<event>
 6    1  0.1603085E-006  0.1078492E+04  0.7818608E-02  0.9226412E-01
          1   -1    0    0  501    0  0.00000000000E+00  0.00000000000E+00  0.10215973718E+04  0.10215973718E+04  0.00000000000E+00 0. -1.
         -1   -1    0    0    0  501 -0.00000000000E+00 -0.00000000000E+00 -0.28463884209E+03  0.28463884209E+03  0.00000000000E+00 0.  1.
         23    2    1    2    0    0  0.41415661328E+03  0.29559730540E+02 -0.38096665124E+02  0.42696945514E+03  0.91935203997E+02 0.  0.
         11    1    3    3    0    0  0.20797783770E+03  0.47225491331E+01  0.25960610780E+02  0.20964502559E+03  0.00000000000E+00 0.  1.
        -11    1    3    3    0    0  0.20617877559E+03  0.24837181406E+02 -0.64057275904E+02  0.21732442955E+03  0.00000000000E+00 0. -1.
         22    1    1    2    0    0 -0.41415661328E+03 -0.29559730540E+02  0.77505519484E+03  0.87926675875E+03  0.00000000000E+00 0. -1.
<mgrwt>
<rscale>  0 0.10784921E+04</rscale>
<asrwt>0</asrwt>
<pdfrwt beam="1">  1        1 0.15716882E+00 0.10784921E+04</pdfrwt>
<pdfrwt beam="2">  1       -1 0.43790592E-01 0.10784921E+04</pdfrwt>
<totfact> 0.74794136E+01</totfact>
</mgrwt>
</event>
<event>
 6    1  0.1603085E-006  0.1728175E+04  0.7818608E-02  0.8745456E-01
         -1   -1    0    0    0  501 -0.00000000000E+00  0.00000000000E+00  0.88033154289E+03  0.88033154289E+03  0.00000000000E+00 0.  1.
          1   -1    0    0  501    0  0.00000000000E+00 -0.00000000000E+00 -0.84814366858E+03  0.84814366858E+03  0.00000000000E+00 0. -1.
         23    2    1    2    0    0  0.34552551337E+03 -0.76178514564E+03  0.22260777815E+03  0.87059163645E+03  0.93118666518E+02 0.  0.
         11    1    3    3    0    0  0.43594704360E+02 -0.13840899461E+03  0.74773916198E+01  0.14530471232E+03  0.00000000000E+00 0.  1.
        -11    1    3    3    0    0  0.30193080901E+03 -0.62337615104E+03  0.21513038653E+03  0.72528692413E+03  0.00000000000E+00 0. -1.
         22    1    1    2    0    0 -0.34552551337E+03  0.76178514564E+03 -0.19041990384E+03  0.85788357502E+03  0.00000000000E+00 0. -1.
<mgrwt>
<rscale>  0 0.17281755E+04</rscale>
<asrwt>0</asrwt>
<pdfrwt beam="1">  1        1 0.13048364E+00 0.17281755E+04</pdfrwt>
<pdfrwt beam="2">  1       -1 0.13543562E+00 0.17281755E+04</pdfrwt>
<totfact> 0.87191278E+00</totfact>
</mgrwt>
</event>
<event>
 6    1  0.1603085E-006  0.3309026E+04  0.7818608E-02  0.8160602E-01
         -2   -1    0    0    0  501 -0.00000000000E+00  0.00000000000E+00  0.13422245963E+04  0.13422245963E+04  0.00000000000E+00 0. -1.
          2   -1    0    0  501    0  0.00000000000E+00 -0.00000000000E+00 -0.20394603960E+04  0.20394603960E+04  0.00000000000E+00 0.  1.
         23    2    1    2    0    0 -0.15087189934E+04 -0.19024553539E+03 -0.10116862907E+04  0.18288471140E+04  0.93521391991E+02 0.  0.
         13    1    3    3    0    0 -0.12063794994E+04 -0.14914312662E+03 -0.76269442252E+03  0.14350254182E+04  0.00000000000E+00 0. -1.
        -13    1    3    3    0    0 -0.30233949403E+03 -0.41102408767E+02 -0.24899186817E+03  0.39382169579E+03  0.00000000000E+00 0.  1.
         22    1    1    2    0    0  0.15087189934E+04  0.19024553539E+03  0.31445049106E+03  0.15528378783E+04  0.00000000000E+00 0. -1.
<mgrwt>
<rscale>  0 0.33090264E+04</rscale>
<asrwt>0</asrwt>
<pdfrwt beam="1">  1        2 0.31376314E+00 0.33090264E+04</pdfrwt>
<pdfrwt beam="2">  1       -2 0.20649609E+00 0.33090264E+04</pdfrwt>
<totfact> 0.63950424E-01</totfact>
</mgrwt>
</event>
<event>
 6    1  0.1603085E-006  0.5560874E+04  0.7818608E-02  0.7747368E-01
          2   -1    0    0  501    0  0.00000000000E+00  0.00000000000E+00  0.18447639410E+04  0.18447639410E+04  0.00000000000E+00 0.  1.
         -2   -1    0    0    0  501 -0.00000000000E+00 -0.00000000000E+00 -0.41906880085E+04  0.41906880085E+04  0.00000000000E+00 0. -1.
         23    2    1    2    0    0 -0.21006300087E+04  0.14181987246E+04 -0.24116801840E+04  0.35000510102E+04  0.10110246358E+03 0.  0.
         11    1    3    3    0    0 -0.57658043243E+03  0.42292869404E+03 -0.73030662976E+03  0.10220868108E+04  0.00000000000E+00 0. -1.
        -11    1    3    3    0    0 -0.15240495763E+04  0.99527003056E+03 -0.16813735542E+04  0.24779641994E+04  0.00000000000E+00 0.  1.
         22    1    1    2    0    0  0.21006300087E+04 -0.14181987246E+04  0.65756116482E+02  0.25354009393E+04  0.00000000000E+00 0. -1.
<mgrwt>
<rscale>  0 0.55608741E+04</rscale>
<asrwt>0</asrwt>
<pdfrwt beam="1">  1        2 0.28380984E+00 0.55608741E+04</pdfrwt>
<pdfrwt beam="2">  1       -2 0.64472122E+00 0.55608741E+04</pdfrwt>
<totfact> 0.20195386E-03</totfact>
</mgrwt>
</event>
<event>
 6    1  0.1603085E-006  0.2688833E+04  0.7818608E-02  0.8338637E-01
         -1   -1    0    0    0  501 -0.00000000000E+00  0.00000000000E+00  0.60138243649E+03  0.60138243649E+03  0.00000000000E+00 0.  1.
          1   -1    0    0  501    0  0.00000000000E+00 -0.00000000000E+00 -0.30055004451E+04  0.30055004451E+04  0.00000000000E+00 0. -1.
         23    2    1    2    0    0  0.53272905374E+03  0.62148866249E+03 -0.26314610705E+04  0.27573340189E+04  0.90857710934E+02 0.  0.
         13    1    3    3    0    0  0.39640070275E+03  0.43572977316E+03 -0.17619391918E+04  0.18578007611E+04  0.00000000000E+00 0.  1.
        -13    1    3    3    0    0  0.13632835100E+03  0.18575888933E+03 -0.86952187873E+03  0.89953325777E+03  0.00000000000E+00 0. -1.
         22    1    1    2    0    0 -0.53272905374E+03 -0.62148866249E+03  0.22734306193E+03  0.84954886270E+03  0.00000000000E+00 0.  1.
<mgrwt>
<rscale>  0 0.26888326E+04</rscale>
<asrwt>0</asrwt>
<pdfrwt beam="1">  1        1 0.46238468E+00 0.26888326E+04</pdfrwt>
<pdfrwt beam="2">  1       -1 0.92520375E-01 0.26888326E+04</pdfrwt>
<totfact> 0.58779324E-01</totfact>
</mgrwt>
</event>
<event>
 6    1  0.1603085E-006  0.6417927E+03  0.7818608E-02  0.9822303E-01
          2   -1    0    0  501    0  0.00000000000E+00  0.00000000000E+00  0.23185849036E+04  0.23185849036E+04  0.00000000000E+00 0. -1.
         -2   -1    0    0    0  501 -0.00000000000E+00 -0.00000000000E+00 -0.44412629688E+02  0.44412629688E+02  0.00000000000E+00 0.  1.
         23    2    1    2    0    0  0.15306114528E+03 -0.26731358108E+03  0.13858730885E+04  0.14228062190E+04  0.94069412262E+02 0.  0.
         11    1    3    3    0    0  0.18732326070E+02 -0.23333020835E+02  0.31098111086E+03  0.31241731901E+03  0.00000000000E+00 0. -1.
        -11    1    3    3    0    0  0.13432881921E+03 -0.24398056024E+03  0.10748919777E+04  0.11103888999E+04  0.00000000000E+00 0.  1.
         22    1    1    2    0    0 -0.15306114528E+03  0.26731358108E+03  0.88829918539E+03  0.94019131436E+03  0.00000000000E+00 0. -1.
<mgrwt>
<rscale>  0 0.64179265E+03</rscale>
<asrwt>0</asrwt>
<pdfrwt beam="1">  1        2 0.35670528E+00 0.64179265E+03</pdfrwt>
<pdfrwt beam="2">  1       -2 0.68327141E-02 0.64179265E+03</pdfrwt>
<totfact> 0.58273640E+02</totfact>
</mgrwt>
</event>
<event>
 6    1  0.1603085E-006  0.3696111E+04  0.7818608E-02  0.8068824E-01
         -2   -1    0    0    0  501 -0.00000000000E+00  0.00000000000E+00  0.20928014630E+04  0.20928014630E+04  0.00000000000E+00 0. -1.
          2   -1    0    0  501    0  0.00000000000E+00 -0.00000000000E+00 -0.16319319114E+04  0.16319319114E+04  0.00000000000E+00 0.  1.
         23    2    1    2    0    0 -0.10773384927E+04 -0.10548723966E+04 -0.84424356273E+03  0.17305582963E+04  0.93117251887E+02 0.  0.
         11    1    3    3    0    0 -0.38809379977E+03 -0.34370946044E+03 -0.33145130795E+03  0.61531533392E+03  0.00000000000E+00 0.  1.
        -11    1    3    3    0    0 -0.68924469295E+03 -0.71116293612E+03 -0.51279225478E+03  0.11152429623E+04  0.00000000000E+00 0. -1.
         22    1    1    2    0    0  0.10773384927E+04  0.10548723966E+04  0.13051131144E+04  0.19941750781E+04  0.00000000000E+00 0. -1.
<mgrwt>
<rscale>  0 0.36961112E+04</rscale>
<asrwt>0</asrwt>
<pdfrwt beam="1">  1        2 0.25106645E+00 0.36961112E+04</pdfrwt>
<pdfrwt beam="2">  1       -2 0.32196946E+00 0.36961112E+04</pdfrwt>
<totfact> 0.20146302E-01</totfact>
</mgrwt>
</event>
<event>
 6    1  0.1603085E-006  0.2688592E+04  0.7818608E-02  0.8338716E-01
          2   -1    0    0  501    0  0.00000000000E+00  0.00000000000E+00  0.41598711527E+04  0.41598711527E+04  0.00000000000E+00 0. -1.
         -2   -1    0    0    0  501 -0.00000000000E+00 -0.00000000000E+00 -0.43441997405E+03  0.43441997405E+03  0.00000000000E+00 0.  1.
         23    2    1    2    0    0 -0.14248575433E+03 -0.10492762427E+04  0.45413131351E+03  0.11558588555E+04  0.92149987914E+02 0.  0.
         13    1    3    3    0    0 -0.11030760497E+03 -0.52522530481E+03  0.20224865835E+03  0.57352760032E+03  0.00000000000E+00 0.  1.
        -13    1    3    3    0    0 -0.32178149358E+02 -0.52405093790E+03  0.25188265517E+03  0.58233125520E+03  0.00000000000E+00 0. -1.
         22    1    1    2    0    0  0.14248575433E+03  0.10492762427E+04  0.32713198652E+04  0.34384322713E+04  0.00000000000E+00 0. -1.
<mgrwt>
<rscale>  0 0.26885915E+04</rscale>
<asrwt>0</asrwt>
<pdfrwt beam="1">  1        2 0.63998015E+00 0.26885915E+04</pdfrwt>
<pdfrwt beam="2">  1       -2 0.66833845E-01 0.26885915E+04</pdfrwt>
<totfact> 0.45550663E-01</totfact>
</mgrwt>
</event>
<event>
 6    1  0.1901692E-006  0.3057285E+04  0.7818608E-02  0.8227559E-01
          2   -1    0    0  501    0  0.00000000000E+00  0.00000000000E+00  0.17865130565E+04  0.17865130565E+04  0.00000000000E+00 0. -1.
         -2   -1    0    0    0  501 -0.00000000000E+00 -0.00000000000E+00 -0.13079937783E+04  0.13079937783E+04  0.00000000000E+00 0.  1.
         23    2    1    2    0    0  0.64918737851E+03  0.12868763345E+04 -0.27352030001E+03  0.14687582441E+04  0.70302720445E+02 0.  0.
         13    1    3    3    0    0  0.13318559384E+03  0.22782543443E+03 -0.72341339122E+02  0.27363497643E+03  0.00000000000E+00 0. -1.
        -13    1    3    3    0    0  0.51600178467E+03  0.10590509001E+04 -0.20117896089E+03  0.11951232677E+04  0.00000000000E+00 0.  1.
         22    1    1    2    0    0 -0.64918737851E+03 -0.12868763345E+04  0.75203957819E+03  0.16257485906E+04  0.00000000000E+00 0. -1.
<mgrwt>
<rscale>  0 0.30572850E+04</rscale>
<asrwt>0</asrwt>
<pdfrwt beam="1">  1        2 0.27484816E+00 0.30572850E+04</pdfrwt>
<pdfrwt beam="2">  1       -2 0.20122981E+00 0.30572850E+04</pdfrwt>
<totfact> 0.97657687E-01</totfact>
</mgrwt>
</event>
<event>
 6    1  0.1603085E-006  0.7512900E+03  0.7818608E-02  0.9633329E-01
         -1   -1    0    0    0  501 -0.00000000000E+00  0.00000000000E+00  0.66177632069E+02  0.66177632069E+02  0.00000000000E+00 0.  1.
          1   -1    0    0  501    0  0.00000000000E+00 -0.00000000000E+00 -0.21322791339E+04  0.21322791339E+04  0.00000000000E+00 0. -1.
         23    2    1    2    0    0 -0.18282890328E+03  0.25617769434E+03 -0.47835726312E+03  0.57981993625E+03  0.91170545368E+02 0.  0.
         13    1    3    3    0    0 -0.97259173896E+02  0.20695267044E+03 -0.34497627031E+03  0.41388087874E+03  0.00000000000E+00 0. -1.
        -13    1    3    3    0    0 -0.85569729385E+02  0.49225023900E+02 -0.13338099280E+03  0.16593905751E+03  0.00000000000E+00 0.  1.
         22    1    1    2    0    0  0.18282890328E+03 -0.25617769434E+03 -0.15877442387E+04  0.16186368297E+04  0.00000000000E+00 0. -1.
<mgrwt>
<rscale>  0 0.75129005E+03</rscale>
<asrwt>0</asrwt>
<pdfrwt beam="1">  1        1 0.32804297E+00 0.75129005E+03</pdfrwt>
<pdfrwt beam="2">  1       -1 0.10181173E-01 0.75129005E+03</pdfrwt>
<totfact> 0.15342150E+02</totfact>
</mgrwt>
</event>
<event>
 6    1  0.1603085E-006  0.2183105E+04  0.7818608E-02  0.8525493E-01
         -2   -1    0    0    0  501 -0.00000000000E+00  0.00000000000E+00  0.29126102247E+03  0.29126102247E+03  0.00000000000E+00 0.  1.
          2   -1    0    0  501    0  0.00000000000E+00 -0.00000000000E+00 -0.40907867755E+04  0.40907867755E+04  0.00000000000E+00 0. -1.
         23    2    1    2    0    0 -0.33962395529E+03 -0.10247213045E+04 -0.16051981824E+04  0.19365475076E+04  0.90315345371E+02 0.  0.
         11    1    3    3    0    0 -0.29763879315E+03 -0.93270244263E+03 -0.14081070543E+04  0.17150184180E+04  0.00000000000E+00 0. -1.
        -11    1    3    3    0    0 -0.41985162140E+02 -0.92018861865E+02 -0.19709112807E+03  0.22152908961E+03  0.00000000000E+00 0.  1.
         22    1    1    2    0    0  0.33962395529E+03  0.10247213045E+04 -0.21943275706E+04  0.24455002903E+04  0.00000000000E+00 0.  1.
<mgrwt>
<rscale>  0 0.21831049E+04</rscale>
<asrwt>0</asrwt>
<pdfrwt beam="1">  1        2 0.62935178E+00 0.21831049E+04</pdfrwt>
<pdfrwt beam="2">  1       -2 0.44809390E-01 0.21831049E+04</pdfrwt>
<totfact> 0.12556343E+00</totfact>
</mgrwt>
</event>
<event>
 6    1  0.1603085E-006  0.1425083E+04  0.7818608E-02  0.8935860E-01
          1   -1    0    0  501    0  0.00000000000E+00  0.00000000000E+00  0.53583148235E+03  0.53583148235E+03  0.00000000000E+00 0. -1.
         -1   -1    0    0    0  501 -0.00000000000E+00 -0.00000000000E+00 -0.94752821514E+03  0.94752821514E+03  0.00000000000E+00 0.  1.
         23    2    1    2    0    0 -0.35786370913E+03 -0.59932301960E+03 -0.73500084248E+02  0.70771062142E+03  0.90540295723E+02 0.  0.
         11    1    3    3    0    0 -0.26880095764E+03 -0.51417957405E+03 -0.50783086665E+02  0.58242039035E+03  0.00000000000E+00 0. -1.
        -11    1    3    3    0    0 -0.89062751491E+02 -0.85143445546E+02 -0.22716997582E+02  0.12529023107E+03  0.00000000000E+00 0.  1.
         22    1    1    2    0    0  0.35786370913E+03  0.59932301960E+03 -0.33819664854E+03  0.77564907608E+03  0.00000000000E+00 0. -1.
<mgrwt>
<rscale>  0 0.14250831E+04</rscale>
<asrwt>0</asrwt>
<pdfrwt beam="1">  1        1 0.82435613E-01 0.14250831E+04</pdfrwt>
<pdfrwt beam="2">  1       -1 0.14577357E+00 0.14250831E+04</pdfrwt>
<totfact> 0.14755238E+01</totfact>
</mgrwt>
</event>
<event>
 6    1  0.1603085E-006  0.2000389E+04  0.7818608E-02  0.8606439E-01
         -1   -1    0    0    0  501 -0.00000000000E+00  0.00000000000E+00  0.10873959474E+04  0.10873959474E+04  0.00000000000E+00 0.  1.
          1   -1    0    0  501    0  0.00000000000E+00 -0.00000000000E+00 -0.91998635164E+03  0.91998635164E+03  0.00000000000E+00 0. -1.
         23    2    1    2    0    0 -0.89028948772E+03 -0.40517692346E+03 -0.11554937945E+03  0.98912423109E+03  0.90726920996E+02 0.  0.
         13    1    3    3    0    0 -0.13288199834E+03 -0.87346699713E+02  0.40598325390E+01  0.15907090769E+03  0.00000000000E+00 0. -1.
        -13    1    3    3    0    0 -0.75740748937E+03 -0.31783022375E+03 -0.11960921199E+03  0.83005332340E+03  0.00000000000E+00 0.  1.
         22    1    1    2    0    0  0.89028948772E+03  0.40517692346E+03  0.28295897518E+03  0.10182580679E+04  0.00000000000E+00 0.  1.
<mgrwt>
<rscale>  0 0.20003894E+04</rscale>
<asrwt>0</asrwt>
<pdfrwt beam="1">  1        1 0.14153636E+00 0.20003894E+04</pdfrwt>
<pdfrwt beam="2">  1       -1 0.16729168E+00 0.20003894E+04</pdfrwt>
<totfact> 0.41888374E+00</totfact>
</mgrwt>
</event>
<event>
 6    1  0.1603085E-006  0.7510150E+03  0.7818608E-02  0.9633759E-01
          2   -1    0    0  501    0  0.00000000000E+00  0.00000000000E+00  0.11523973174E+04  0.11523973174E+04  0.00000000000E+00 0. -1.
         -2   -1    0    0    0  501 -0.00000000000E+00 -0.00000000000E+00 -0.12235874685E+03  0.12235874685E+03  0.00000000000E+00 0.  1.
         23    2    1    2    0    0  0.31690147080E+03 -0.18684978541E+03  0.45908479290E+03  0.59554505084E+03  0.92604945961E+02 0.  0.
         11    1    3    3    0    0  0.15522591280E+03 -0.14083246645E+03  0.28230063727E+03  0.35159993944E+03  0.00000000000E+00 0. -1.
        -11    1    3    3    0    0  0.16167555800E+03 -0.46017318963E+02  0.17678415562E+03  0.24394511140E+03  0.00000000000E+00 0.  1.
         22    1    1    2    0    0 -0.31690147080E+03  0.18684978541E+03  0.57095377765E+03  0.67921101339E+03  0.00000000000E+00 0.  1.
<mgrwt>
<rscale>  0 0.75101502E+03</rscale>
<asrwt>0</asrwt>
<pdfrwt beam="1">  1        2 0.17729189E+00 0.75101502E+03</pdfrwt>
<pdfrwt beam="2">  1       -2 0.18824423E-01 0.75101502E+03</pdfrwt>
<totfact> 0.48353512E+02</totfact>
</mgrwt>
</event>
<event>
 6    1  0.1603085E-006  0.8347492E+03  0.7818608E-02  0.9511038E-01
          1   -1    0    0  501    0  0.00000000000E+00  0.00000000000E+00  0.43336040200E+03  0.43336040200E+03  0.00000000000E+00 0. -1.
         -1   -1    0    0    0  501 -0.00000000000E+00 -0.00000000000E+00 -0.40197851010E+03  0.40197851010E+03  0.00000000000E+00 0.  1.
         23    2    1    2    0    0 -0.54013526663E+02 -0.37529590503E+03  0.17731150749E+03  0.42906322971E+03  0.94294257543E+02 0.  0.
         13    1    3    3    0    0 -0.64556742613E+02 -0.29117782124E+03  0.10067387567E+03  0.31478139373E+03  0.00000000000E+00 0. -1.
        -13    1    3    3    0    0  0.10543215950E+02 -0.84118083790E+02  0.76637631817E+02  0.11428183597E+03  0.00000000000E+00 0.  1.
         22    1    1    2    0    0  0.54013526663E+02  0.37529590503E+03 -0.14592961558E+03  0.40627568239E+03  0.00000000000E+00 0. -1.
<mgrwt>
<rscale>  0 0.83474923E+03</rscale>
<asrwt>0</asrwt>
<pdfrwt beam="1">  1        1 0.66670831E-01 0.83474923E+03</pdfrwt>
<pdfrwt beam="2">  1       -1 0.61842848E-01 0.83474923E+03</pdfrwt>
<totfact> 0.14446167E+02</totfact>
</mgrwt>
</event>
<event>
 6    1  0.1603085E-006  0.1937009E+04  0.7818608E-02  0.8636651E-01
          2   -1    0    0  501    0  0.00000000000E+00  0.00000000000E+00  0.14188138184E+04  0.14188138184E+04  0.00000000000E+00 0. -1.
         -2   -1    0    0    0  501 -0.00000000000E+00 -0.00000000000E+00 -0.66111643949E+03  0.66111643949E+03  0.00000000000E+00 0.  1.
         23    2    1    2    0    0 -0.39291948176E+02 -0.82404207468E+03  0.91975263947E+03  0.12391858820E+04  0.95118528161E+02 0.  0.
         11    1    3    3    0    0 -0.37900570085E+02 -0.60793964376E+03  0.61506465500E+03  0.86563941309E+03  0.00000000000E+00 0. -1.
        -11    1    3    3    0    0 -0.13913780909E+01 -0.21610243092E+03  0.30468798447E+03  0.37354646895E+03  0.00000000000E+00 0.  1.
         22    1    1    2    0    0  0.39291948176E+02  0.82404207468E+03 -0.16205526056E+03  0.84074437584E+03  0.00000000000E+00 0. -1.
<mgrwt>
<rscale>  0 0.19370092E+04</rscale>
<asrwt>0</asrwt>
<pdfrwt beam="1">  1        2 0.21827905E+00 0.19370092E+04</pdfrwt>
<pdfrwt beam="2">  1       -2 0.10171022E+00 0.19370092E+04</pdfrwt>
<totfact> 0.10458639E+01</totfact>
</mgrwt>
</event>
<event>
 6    1  0.1603085E-006  0.2230749E+04  0.7818608E-02  0.8505738E-01
         -1   -1    0    0    0  501 -0.00000000000E+00  0.00000000000E+00  0.54288168115E+03  0.54288168115E+03  0.00000000000E+00 0.  1.
          1   -1    0    0  501    0  0.00000000000E+00 -0.00000000000E+00 -0.22915864363E+04  0.22915864363E+04  0.00000000000E+00 0. -1.
         23    2    1    2    0    0 -0.10450924264E+04 -0.37069790602E+03 -0.74668431075E+03  0.13399179884E+04  0.90596017051E+02 0.  0.
         13    1    3    3    0    0 -0.62920596989E+03 -0.22682252110E+03 -0.50308371687E+03  0.83692403168E+03  0.00000000000E+00 0. -1.
        -13    1    3    3    0    0 -0.41588645655E+03 -0.14387538492E+03 -0.24360059388E+03  0.50299395670E+03  0.00000000000E+00 0.  1.
         22    1    1    2    0    0  0.10450924264E+04  0.37069790602E+03 -0.10020204444E+04  0.14945501291E+04  0.00000000000E+00 0. -1.
<mgrwt>
<rscale>  0 0.22307490E+04</rscale>
<asrwt>0</asrwt>
<pdfrwt beam="1">  1        1 0.35255177E+00 0.22307490E+04</pdfrwt>
<pdfrwt beam="2">  1       -1 0.83520257E-01 0.22307490E+04</pdfrwt>
<totfact> 0.24385883E+00</totfact>
</mgrwt>
</event>
<event>
 6    1  0.1603085E-006  0.4063507E+04  0.7818608E-02  0.7991856E-01
          2   -1    0    0  501    0  0.00000000000E+00  0.00000000000E+00  0.22602854344E+04  0.22602854344E+04  0.00000000000E+00 0. -1.
         -2   -1    0    0    0  501 -0.00000000000E+00 -0.00000000000E+00 -0.18263277399E+04  0.18263277399E+04  0.00000000000E+00 0.  1.
         23    2    1    2    0    0 -0.17877155282E+04  0.81415650523E+03 -0.30072811009E+03  0.19893433166E+04  0.90949494275E+02 0.  0.
         13    1    3    3    0    0 -0.80800673153E+03  0.41225419299E+03 -0.11772686279E+03  0.91470651689E+03  0.00000000000E+00 0.  1.
        -13    1    3    3    0    0 -0.97970879664E+03  0.40190231224E+03 -0.18300124730E+03  0.10746367997E+04  0.00000000000E+00 0. -1.
         22    1    1    2    0    0  0.17877155282E+04 -0.81415650523E+03  0.73468580453E+03  0.20972698577E+04  0.00000000000E+00 0.  1.
<mgrwt>
<rscale>  0 0.40635069E+04</rscale>
<asrwt>0</asrwt>
<pdfrwt beam="1">  1        2 0.34773622E+00 0.40635069E+04</pdfrwt>
<pdfrwt beam="2">  1       -2 0.28097350E+00 0.40635069E+04</pdfrwt>
<totfact> 0.15568215E-01</totfact>
</mgrwt>
</event>
<event>
 6    1  0.1603085E-006  0.9630499E+03  0.7818608E-02  0.9350026E-01
          1   -1    0    0  501    0  0.00000000000E+00  0.00000000000E+00  0.41492851853E+03  0.41492851853E+03  0.00000000000E+00 0. -1.
         -1   -1    0    0    0  501 -0.00000000000E+00 -0.00000000000E+00 -0.55881012457E+03  0.55881012457E+03  0.00000000000E+00 0.  1.
         23    2    1    2    0    0 -0.35140364690E+03  0.64291198775E+02  0.24718087675E+03  0.44407106175E+03  0.92102338486E+02 0.  0.
         11    1    3    3    0    0 -0.30318361419E+03  0.26791104968E+02  0.22715759022E+03  0.37978762225E+03  0.00000000000E+00 0. -1.
        -11    1    3    3    0    0 -0.48220032709E+02  0.37500093807E+02  0.20023286529E+02  0.64283439496E+02  0.00000000000E+00 0.  1.
         22    1    1    2    0    0  0.35140364690E+03 -0.64291198775E+02 -0.39106248279E+03  0.52966758135E+03  0.00000000000E+00 0.  1.
<mgrwt>
<rscale>  0 0.96304986E+03</rscale>
<asrwt>0</asrwt>
<pdfrwt beam="1">  1        1 0.63835157E-01 0.96304986E+03</pdfrwt>
<pdfrwt beam="2">  1       -1 0.85970788E-01 0.96304986E+03</pdfrwt>
<totfact> 0.76708718E+01</totfact>
</mgrwt>
</event>
<event>
 6    1  0.1603085E-006  0.1129030E+04  0.7818608E-02  0.9177350E-01
         -2   -1    0    0    0  501 -0.00000000000E+00  0.00000000000E+00  0.15067327836E+03  0.15067327836E+03  0.00000000000E+00 0.  1.
          2   -1    0    0  501    0  0.00000000000E+00 -0.00000000000E+00 -0.21150212427E+04  0.21150212427E+04  0.00000000000E+00 0. -1.
         23    2    1    2    0    0  0.42615752130E+03  0.17308950597E+03 -0.16328216007E+04  0.16987025107E+04  0.88958585783E+02 0.  0.
         11    1    3    3    0    0  0.27193549051E+03  0.14572981270E+03 -0.11749673713E+04  0.12147980955E+04  0.00000000000E+00 0. -1.
        -11    1    3    3    0    0  0.15422203079E+03  0.27359693268E+02 -0.45785422944E+03  0.48390441516E+03  0.00000000000E+00 0.  1.
         22    1    1    2    0    0 -0.42615752130E+03 -0.17308950597E+03 -0.33152636358E+03  0.56699201034E+03  0.00000000000E+00 0.  1.
<mgrwt>
<rscale>  0 0.11290300E+04</rscale>
<asrwt>0</asrwt>
<pdfrwt beam="1">  1        2 0.32538786E+00 0.11290300E+04</pdfrwt>
<pdfrwt beam="2">  1       -2 0.23180506E-01 0.11290300E+04</pdfrwt>
<totfact> 0.94210115E+01</totfact>
</mgrwt>
</event>
<event>
 6    1  0.1603085E-006  0.4248079E+04  0.7818608E-02  0.7956289E-01
          2   -1    0    0  501    0  0.00000000000E+00  0.00000000000E+00  0.32943401072E+04  0.32943401072E+04  0.00000000000E+00 0.  1.
         -2   -1    0    0    0  501 -0.00000000000E+00 -0.00000000000E+00 -0.13694835301E+04  0.13694835301E+04  0.00000000000E+00 0. -1.
         23    2    1    2    0    0 -0.15727927155E+02  0.19230981925E+04 -0.24328142971E+02  0.19255988294E+04  0.93728156252E+02 0.  0.
         13    1    3    3    0    0 -0.13893524406E+02  0.79461020782E+03 -0.55620008309E+02  0.79667559126E+03  0.00000000000E+00 0.  1.
        -13    1    3    3    0    0 -0.18344027490E+01  0.11284879847E+04  0.31291865338E+02  0.11289232381E+04  0.00000000000E+00 0. -1.
         22    1    1    2    0    0  0.15727927155E+02 -0.19230981925E+04  0.19491847201E+04  0.27382248080E+04  0.00000000000E+00 0.  1.
<mgrwt>
<rscale>  0 0.42480793E+04</rscale>
<asrwt>0</asrwt>
<pdfrwt beam="1">  1        2 0.50682155E+00 0.42480793E+04</pdfrwt>
<pdfrwt beam="2">  1       -2 0.21068978E+00 0.42480793E+04</pdfrwt>
<totfact> 0.98354609E-02</totfact>
</mgrwt>
</event>
<event>
 6    1  0.1603085E-006  0.2767283E+04  0.7818608E-02  0.8313498E-01
          2   -1    0    0  501    0  0.00000000000E+00  0.00000000000E+00  0.18746545347E+04  0.18746545347E+04  0.00000000000E+00 0. -1.
         -2   -1    0    0    0  501 -0.00000000000E+00 -0.00000000000E+00 -0.10212358407E+04  0.10212358407E+04  0.00000000000E+00 0.  1.
         23    2    1    2    0    0 -0.11237250414E+03  0.12173928410E+04  0.11018617852E+04  0.16483340125E+04  0.90734305067E+02 0.  0.
         13    1    3    3    0    0 -0.37445936561E+02  0.40477422593E+03  0.42487273689E+03  0.58801463816E+03  0.00000000000E+00 0.  1.
        -13    1    3    3    0    0 -0.74926567582E+02  0.81261861505E+03  0.67698904829E+03  0.10603193743E+04  0.00000000000E+00 0. -1.
         22    1    1    2    0    0  0.11237250414E+03 -0.12173928410E+04 -0.24844309116E+03  0.12475563629E+04  0.00000000000E+00 0. -1.
<mgrwt>
<rscale>  0 0.27672834E+04</rscale>
<asrwt>0</asrwt>
<pdfrwt beam="1">  1        2 0.28840839E+00 0.27672834E+04</pdfrwt>
<pdfrwt beam="2">  1       -2 0.15711321E+00 0.27672834E+04</pdfrwt>
<totfact> 0.18114251E+00</totfact>
</mgrwt>
</event>
<event>
 6    1  0.1603085E-006  0.3847769E+04  0.7818608E-02  0.8035981E-01
         -1   -1    0    0    0  501 -0.00000000000E+00  0.00000000000E+00  0.18227490453E+04  0.18227490453E+04  0.00000000000E+00 0.  1.
          1   -1    0    0  501    0  0.00000000000E+00 -0.00000000000E+00 -0.20306312369E+04  0.20306312369E+04  0.00000000000E+00 0. -1.
         23    2    1    2    0    0  0.13728712017E+04 -0.10546870548E+04  0.73415673989E+03  0.18824471355E+04  0.86492656174E+02 0.  0.
         11    1    3    3    0    0  0.89022582276E+03 -0.67712617609E+03  0.42949825419E+03  0.11981112737E+04  0.00000000000E+00 0. -1.
        -11    1    3    3    0    0  0.48264537891E+03 -0.37756087866E+03  0.30465848571E+03  0.68433586183E+03  0.00000000000E+00 0.  1.
         22    1    1    2    0    0 -0.13728712017E+04  0.10546870548E+04 -0.94203893154E+03  0.19709331466E+04  0.00000000000E+00 0. -1.
<mgrwt>
<rscale>  0 0.38477688E+04</rscale>
<asrwt>0</asrwt>
<pdfrwt beam="1">  1        1 0.31240480E+00 0.38477688E+04</pdfrwt>
<pdfrwt beam="2">  1       -1 0.28042293E+00 0.38477688E+04</pdfrwt>
<totfact> 0.99569844E-02</totfact>
</mgrwt>
</event>
<event>
 6    1  0.1603085E-006  0.3249567E+03  0.7818608E-02  0.1073390E+00
         -2   -1    0    0    0  501 -0.00000000000E+00  0.00000000000E+00  0.28729550877E+02  0.28729550877E+02  0.00000000000E+00 0. -1.
          2   -1    0    0  501    0  0.00000000000E+00 -0.00000000000E+00 -0.91888721301E+03  0.91888721301E+03  0.00000000000E+00 0.  1.
         23    2    1    2    0    0  0.49503041437E+02  0.43399865980E+02 -0.87229358041E+03  0.87940221343E+03  0.90100294595E+02 0.  0.
         13    1    3    3    0    0 -0.20906650679E+02  0.31849409638E+02 -0.22686132341E+03  0.23003811205E+03  0.00000000000E+00 0.  1.
        -13    1    3    3    0    0  0.70409692116E+02  0.11550456342E+02 -0.64543225700E+03  0.64936410138E+03  0.00000000000E+00 0. -1.
         22    1    1    2    0    0 -0.49503041437E+02 -0.43399865980E+02 -0.17864081728E+02  0.68214550461E+02  0.00000000000E+00 0. -1.
<mgrwt>
<rscale>  0 0.32495672E+03</rscale>
<asrwt>0</asrwt>
<pdfrwt beam="1">  1        2 0.14136726E+00 0.32495672E+03</pdfrwt>
<pdfrwt beam="2">  1       -2 0.44199309E-02 0.32495672E+03</pdfrwt>
<totfact> 0.69985272E+03</totfact>
</mgrwt>
</event>
<event>
 6    1  0.1603085E-006  0.1330129E+04  0.7818608E-02  0.9006008E-01
          1   -1    0    0  501    0  0.00000000000E+00  0.00000000000E+00  0.26959951265E+04  0.26959951265E+04  0.00000000000E+00 0. -1.
         -1   -1    0    0    0  501 -0.00000000000E+00 -0.00000000000E+00 -0.16406223395E+03  0.16406223395E+03  0.00000000000E+00 0.  1.
         23    2    1    2    0    0  0.89737524989E+02  0.41054218806E+03  0.17200037953E+03  0.46300100368E+03  0.90488050472E+02 0.  0.
         11    1    3    3    0    0  0.31708138568E+02  0.11832084415E+03  0.76166855618E+01  0.12273240041E+03  0.00000000000E+00 0.  1.
        -11    1    3    3    0    0  0.58029386422E+02  0.29222134391E+03  0.16438369397E+03  0.34026860327E+03  0.00000000000E+00 0. -1.
         22    1    1    2    0    0 -0.89737524989E+02 -0.41054218806E+03  0.23599325130E+04  0.23970563568E+04  0.00000000000E+00 0. -1.
<mgrwt>
<rscale>  0 0.13301293E+04</rscale>
<asrwt>0</asrwt>
<pdfrwt beam="1">  1        1 0.41476845E+00 0.13301293E+04</pdfrwt>
<pdfrwt beam="2">  1       -1 0.25240346E-01 0.13301293E+04</pdfrwt>
<totfact> 0.13423162E+01</totfact>
</mgrwt>
</event>
<event>
 6    1  0.1603085E-006  0.6320442E+03  0.7818608E-02  0.9841068E-01
         -2   -1    0    0    0  501 -0.00000000000E+00  0.00000000000E+00  0.44295688642E+02  0.44295688642E+02  0.00000000000E+00 0.  1.
          2   -1    0    0  501    0  0.00000000000E+00 -0.00000000000E+00 -0.22546205004E+04  0.22546205004E+04  0.00000000000E+00 0. -1.
         23    2    1    2    0    0  0.18801892152E+02  0.29272641358E+03 -0.14724560429E+04  0.15048805573E+04  0.10245208263E+03 0.  0.
         13    1    3    3    0    0  0.27821628517E+02  0.32333186303E+02 -0.11522812316E+03  0.12286984299E+03  0.00000000000E+00 0.  1.
        -13    1    3    3    0    0 -0.90197363649E+01  0.26039322727E+03 -0.13572279197E+04  0.13820107143E+04  0.00000000000E+00 0. -1.
         22    1    1    2    0    0 -0.18801892152E+02 -0.29272641358E+03 -0.73786876885E+03  0.79403563169E+03  0.00000000000E+00 0.  1.
<mgrwt>
<rscale>  0 0.63204420E+03</rscale>
<asrwt>0</asrwt>
<pdfrwt beam="1">  1        2 0.34686464E+00 0.63204420E+03</pdfrwt>
<pdfrwt beam="2">  1       -2 0.68147223E-02 0.63204420E+03</pdfrwt>
<totfact> 0.63523246E+02</totfact>
</mgrwt>
</event>
<event>
 6    1  0.1603085E-006  0.2029792E+04  0.7818608E-02  0.8592817E-01
         -2   -1    0    0    0  501 -0.00000000000E+00  0.00000000000E+00  0.70554569778E+03  0.70554569778E+03  0.00000000000E+00 0.  1.
          2   -1    0    0  501    0  0.00000000000E+00 -0.00000000000E+00 -0.14598826456E+04  0.14598826456E+04  0.00000000000E+00 0. -1.
         23    2    1    2    0    0  0.16470477266E+03  0.24543291754E+03 -0.14114741449E+04  0.14448769747E+04  0.89695212129E+02 0.  0.
         13    1    3    3    0    0  0.77358336035E+02  0.87938810608E+02 -0.75986466746E+03  0.76883799296E+03  0.00000000000E+00 0.  1.
        -13    1    3    3    0    0  0.87346436625E+02  0.15749410693E+03 -0.65160947744E+03  0.67603898172E+03  0.00000000000E+00 0. -1.
         22    1    1    2    0    0 -0.16470477266E+03 -0.24543291754E+03  0.65713719708E+03  0.72055136870E+03  0.00000000000E+00 0.  1.
<mgrwt>
<rscale>  0 0.20297920E+04</rscale>
<asrwt>0</asrwt>
<pdfrwt beam="1">  1        2 0.22459733E+00 0.20297920E+04</pdfrwt>
<pdfrwt beam="2">  1       -2 0.10854549E+00 0.20297920E+04</pdfrwt>
<totfact> 0.84131561E+00</totfact>
</mgrwt>
</event>
<event>
 6    1  0.1603085E-006  0.2694729E+04  0.7818608E-02  0.8336717E-01
          2   -1    0    0  501    0  0.00000000000E+00  0.00000000000E+00  0.68024551013E+03  0.68024551013E+03  0.00000000000E+00 0. -1.
         -2   -1    0    0    0  501 -0.00000000000E+00 -0.00000000000E+00 -0.26687286034E+04  0.26687286034E+04  0.00000000000E+00 0.  1.
         23    2    1    2    0    0  0.58344091672E+03  0.68565114242E+03  0.24793956054E+03  0.93814291270E+03  0.90096096205E+02 0.  0.
         13    1    3    3    0    0  0.26208881484E+03  0.35552122602E+03  0.15544679437E+03  0.46824095815E+03  0.00000000000E+00 0. -1.
        -13    1    3    3    0    0  0.32135210188E+03  0.33012991641E+03  0.92492766173E+02  0.46990195455E+03  0.00000000000E+00 0.  1.
         22    1    1    2    0    0 -0.58344091672E+03 -0.68565114242E+03 -0.22364226539E+04  0.24108312009E+04  0.00000000000E+00 0.  1.
<mgrwt>
<rscale>  0 0.26947287E+04</rscale>
<asrwt>0</asrwt>
<pdfrwt beam="1">  1        2 0.10465316E+00 0.26947287E+04</pdfrwt>
<pdfrwt beam="2">  1       -2 0.41057363E+00 0.26947287E+04</pdfrwt>
<totfact> 0.23579297E-01</totfact>
</mgrwt>
</event>
<event>
 6    1  0.1603085E-006  0.3954010E+04  0.7818608E-02  0.8013889E-01
          2   -1    0    0  501    0  0.00000000000E+00  0.00000000000E+00  0.19773399635E+04  0.19773399635E+04  0.00000000000E+00 0. -1.
         -2   -1    0    0    0  501 -0.00000000000E+00 -0.00000000000E+00 -0.19766698716E+04  0.19766698716E+04  0.00000000000E+00 0.  1.
         23    2    1    2    0    0  0.86336705520E+03 -0.14368649094E+04  0.10462532638E+04  0.19783510565E+04  0.96143490404E+02 0.  0.
         13    1    3    3    0    0  0.13013857458E+03 -0.18848223532E+03  0.10890416170E+03  0.25361726689E+03  0.00000000000E+00 0. -1.
        -13    1    3    3    0    0  0.73322848062E+03 -0.12483826741E+04  0.93734910207E+03  0.17247337896E+04  0.00000000000E+00 0.  1.
         22    1    1    2    0    0 -0.86336705520E+03  0.14368649094E+04 -0.10455831719E+04  0.19756587785E+04  0.00000000000E+00 0.  1.
<mgrwt>
<rscale>  0 0.39540098E+04</rscale>
<asrwt>0</asrwt>
<pdfrwt beam="1">  1        2 0.30420615E+00 0.39540098E+04</pdfrwt>
<pdfrwt beam="2">  1       -2 0.30410305E+00 0.39540098E+04</pdfrwt>
<totfact> 0.16335911E-01</totfact>
</mgrwt>
</event>
<event>
 6    1  0.1603085E-006  0.2402152E+04  0.7818608E-02  0.8438698E-01
         -1   -1    0    0    0  501 -0.00000000000E+00  0.00000000000E+00  0.16039817588E+04  0.16039817588E+04  0.00000000000E+00 0.  1.
          1   -1    0    0  501    0  0.00000000000E+00 -0.00000000000E+00 -0.89937657513E+03  0.89937657513E+03  0.00000000000E+00 0. -1.
         23    2    1    2    0    0 -0.38252677257E+03  0.45676367893E+03  0.14376123483E+04  0.15587635566E+04  0.89748378182E+02 0.  0.
         13    1    3    3    0    0 -0.16491520347E+03  0.19857636976E+03  0.50993076134E+03  0.57154088246E+03  0.00000000000E+00 0. -1.
        -13    1    3    3    0    0 -0.21761156910E+03  0.25818730917E+03  0.92768158692E+03  0.98722267414E+03  0.00000000000E+00 0.  1.
         22    1    1    2    0    0  0.38252677257E+03 -0.45676367893E+03 -0.73300716456E+03  0.94459477736E+03  0.00000000000E+00 0. -1.
<mgrwt>
<rscale>  0 0.24021521E+04</rscale>
<asrwt>0</asrwt>
<pdfrwt beam="1">  1        1 0.13836563E+00 0.24021521E+04</pdfrwt>
<pdfrwt beam="2">  1       -1 0.24676642E+00 0.24021521E+04</pdfrwt>
<totfact> 0.11947446E+00</totfact>
</mgrwt>
</event>
<event>
 6    1  0.1603085E-006  0.1435205E+04  0.7818608E-02  0.8928722E-01
         -2   -1    0    0    0  501 -0.00000000000E+00  0.00000000000E+00  0.79080718611E+03  0.79080718611E+03  0.00000000000E+00 0.  1.
          2   -1    0    0  501    0  0.00000000000E+00 -0.00000000000E+00 -0.65117418406E+03  0.65117418406E+03  0.00000000000E+00 0. -1.
         23    2    1    2    0    0 -0.52032232551E+03  0.31466436108E+03 -0.30726449517E+03  0.68735142406E+03  0.91057825653E+02 0.  0.
         11    1    3    3    0    0 -0.23545037433E+03  0.13281981511E+03 -0.87159225240E+02  0.28403294282E+03  0.00000000000E+00 0. -1.
        -11    1    3    3    0    0 -0.28487195117E+03  0.18184454596E+03 -0.22010526993E+03  0.40331848124E+03  0.00000000000E+00 0.  1.
         22    1    1    2    0    0  0.52032232551E+03 -0.31466436108E+03  0.44689749721E+03  0.75462994611E+03  0.00000000000E+00 0.  1.
<mgrwt>
<rscale>  0 0.14352048E+04</rscale>
<asrwt>0</asrwt>
<pdfrwt beam="1">  1        2 0.10018064E+00 0.14352048E+04</pdfrwt>
<pdfrwt beam="2">  1       -2 0.12166264E+00 0.14352048E+04</pdfrwt>
<totfact> 0.22342778E+01</totfact>
</mgrwt>
</event>
<event>
 6    1  0.1603085E-006  0.1816388E+04  0.7818608E-02  0.8697633E-01
          2   -1    0    0  501    0  0.00000000000E+00  0.00000000000E+00  0.94280593641E+03  0.94280593641E+03  0.00000000000E+00 0. -1.
         -2   -1    0    0    0  501 -0.00000000000E+00 -0.00000000000E+00 -0.87485233415E+03  0.87485233415E+03  0.00000000000E+00 0.  1.
         23    2    1    2    0    0 -0.22985899061E+03 -0.14041315923E+03 -0.83113178732E+03  0.87909258367E+03  0.97327857850E+02 0.  0.
         11    1    3    3    0    0 -0.98622887191E+02 -0.58705166341E+02 -0.50908876156E+03  0.52186601496E+03  0.00000000000E+00 0.  1.
        -11    1    3    3    0    0 -0.13123610342E+03 -0.81707992885E+02 -0.32204302577E+03  0.35722656870E+03  0.00000000000E+00 0. -1.
         22    1    1    2    0    0  0.22985899061E+03  0.14041315923E+03  0.89908538958E+03  0.93856568689E+03  0.00000000000E+00 0. -1.
<mgrwt>
<rscale>  0 0.18163876E+04</rscale>
<asrwt>0</asrwt>
<pdfrwt beam="1">  1        2 0.14504707E+00 0.18163876E+04</pdfrwt>
<pdfrwt beam="2">  1       -2 0.13459267E+00 0.18163876E+04</pdfrwt>
<totfact> 0.10288232E+01</totfact>
</mgrwt>
</event>
<event>
 6    1  0.1603085E-006  0.4022882E+04  0.7818608E-02  0.7999946E-01
         -2   -1    0    0    0  501 -0.00000000000E+00  0.00000000000E+00  0.14010229935E+04  0.14010229935E+04  0.00000000000E+00 0.  1.
          2   -1    0    0  501    0  0.00000000000E+00 -0.00000000000E+00 -0.28878153075E+04  0.28878153075E+04  0.00000000000E+00 0. -1.
         23    2    1    2    0    0 -0.14635146299E+04 -0.13782300356E+04 -0.76273348729E+03  0.21520991293E+04  0.91516046979E+02 0.  0.
         13    1    3    3    0    0 -0.77677612985E+03 -0.79361518721E+03 -0.41533446798E+03  0.11856259704E+04  0.00000000000E+00 0.  1.
        -13    1    3    3    0    0 -0.68673850002E+03 -0.58461484841E+03 -0.34739901931E+03  0.96647315897E+03  0.00000000000E+00 0. -1.
         22    1    1    2    0    0  0.14635146299E+04  0.13782300356E+04 -0.72405882671E+03  0.21367391716E+04  0.00000000000E+00 0.  1.
<mgrwt>
<rscale>  0 0.40228824E+04</rscale>
<asrwt>0</asrwt>
<pdfrwt beam="1">  1        2 0.44427927E+00 0.40228824E+04</pdfrwt>
<pdfrwt beam="2">  1       -2 0.21554200E+00 0.40228824E+04</pdfrwt>
<totfact> 0.16974797E-01</totfact>
</mgrwt>
</event>
<event>
 6    1  0.1603085E-006  0.1629852E+04  0.7818608E-02  0.8802416E-01
         -1   -1    0    0    0  501 -0.00000000000E+00  0.00000000000E+00  0.81412632736E+03  0.81412632736E+03  0.00000000000E+00 0.  1.
          1   -1    0    0  501    0  0.00000000000E+00 -0.00000000000E+00 -0.81572623410E+03  0.81572623410E+03  0.00000000000E+00 0. -1.
         23    2    1    2    0    0  0.10867513430E+03  0.32989632837E+03 -0.73513655453E+03  0.81823819124E+03  0.91902728481E+02 0.  0.
         13    1    3    3    0    0  0.12014880349E+03  0.24253741198E+03 -0.57288747400E+03  0.63360886125E+03  0.00000000000E+00 0.  1.
        -13    1    3    3    0    0 -0.11473669186E+02  0.87358916398E+02 -0.16224908053E+03  0.18462932999E+03  0.00000000000E+00 0. -1.
         22    1    1    2    0    0 -0.10867513430E+03 -0.32989632837E+03  0.73353664779E+03  0.81161437022E+03  0.00000000000E+00 0.  1.
<mgrwt>
<rscale>  0 0.16298518E+04</rscale>
<asrwt>0</asrwt>
<pdfrwt beam="1">  1        1 0.12549634E+00 0.16298518E+04</pdfrwt>
<pdfrwt beam="2">  1       -1 0.12525020E+00 0.16298518E+04</pdfrwt>
<totfact> 0.11422090E+01</totfact>
</mgrwt>
</event>
<event>
 6    1  0.1603085E-006  0.9877933E+03  0.7818608E-02  0.9322035E-01
         -1   -1    0    0    0  501 -0.00000000000E+00  0.00000000000E+00  0.12083566832E+04  0.12083566832E+04  0.00000000000E+00 0.  1.
          1   -1    0    0  501    0  0.00000000000E+00 -0.00000000000E+00 -0.20187243176E+03  0.20187243176E+03  0.00000000000E+00 0. -1.
         23    2    1    2    0    0 -0.34118273328E+03  0.26738958387E+02  0.75550694578E+01  0.35430291488E+03  0.91393911339E+02 0.  0.
         11    1    3    3    0    0 -0.11409039157E+03  0.34987509217E+02 -0.32216199090E+02  0.12360674226E+03  0.00000000000E+00 0.  1.
        -11    1    3    3    0    0 -0.22709234171E+03 -0.82485508292E+01  0.39771268548E+02  0.23069617261E+03  0.00000000000E+00 0. -1.
         22    1    1    2    0    0  0.34118273328E+03 -0.26738958387E+02  0.99892918194E+03  0.10559262000E+04  0.00000000000E+00 0.  1.
<mgrwt>
<rscale>  0 0.98779330E+03</rscale>
<asrwt>0</asrwt>
<pdfrwt beam="1">  1        1 0.31057298E-01 0.98779330E+03</pdfrwt>
<pdfrwt beam="2">  1       -1 0.18590102E+00 0.98779330E+03</pdfrwt>
<totfact> 0.27889760E+01</totfact>
</mgrwt>
</event>
<event>
 6    1  0.1603085E-006  0.3727271E+04  0.7818608E-02  0.8061945E-01
          1   -1    0    0  501    0  0.00000000000E+00  0.00000000000E+00  0.31109144604E+04  0.31109144604E+04  0.00000000000E+00 0. -1.
         -1   -1    0    0    0  501 -0.00000000000E+00 -0.00000000000E+00 -0.11164363141E+04  0.11164363141E+04  0.00000000000E+00 0.  1.
         23    2    1    2    0    0  0.59521747410E+03 -0.12356304389E+04 -0.43114529970E+03  0.14408268603E+04  0.95022886055E+02 0.  0.
         13    1    3    3    0    0  0.13826002506E+03 -0.25378222799E+03 -0.12905951432E+03  0.31650847067E+03  0.00000000000E+00 0. -1.
        -13    1    3    3    0    0  0.45695744904E+03 -0.98184821092E+03 -0.30208578539E+03  0.11243183896E+04  0.00000000000E+00 0.  1.
         22    1    1    2    0    0 -0.59521747410E+03  0.12356304389E+04  0.24256234460E+04  0.27865239143E+04  0.00000000000E+00 0. -1.
<mgrwt>
<rscale>  0 0.37272713E+04</rscale>
<asrwt>0</asrwt>
<pdfrwt beam="1">  1        1 0.47860222E+00 0.37272713E+04</pdfrwt>
<pdfrwt beam="2">  1       -1 0.17175943E+00 0.37272713E+04</pdfrwt>
<totfact> 0.94633931E-02</totfact>
</mgrwt>
</event>
<event>
 6    1  0.1603085E-006  0.1064775E+04  0.7818608E-02  0.9240221E-01
          1   -1    0    0  501    0  0.00000000000E+00  0.00000000000E+00  0.27843603807E+03  0.27843603807E+03  0.00000000000E+00 0. -1.
         -1   -1    0    0    0  501 -0.00000000000E+00 -0.00000000000E+00 -0.10179594475E+04  0.10179594475E+04  0.00000000000E+00 0.  1.
         23    2    1    2    0    0  0.46756124239E+03 -0.15789244298E+03 -0.60278329318E+03  0.78430037883E+03  0.90751566182E+02 0.  0.
         13    1    3    3    0    0  0.43934250295E+03 -0.13277484897E+03 -0.52173633265E+03  0.69488113820E+03  0.00000000000E+00 0.  1.
        -13    1    3    3    0    0  0.28218739440E+02 -0.25117594010E+02 -0.81046960528E+02  0.89419240632E+02  0.00000000000E+00 0. -1.
         22    1    1    2    0    0 -0.46756124239E+03  0.15789244298E+03 -0.13674011622E+03  0.51209510671E+03  0.00000000000E+00 0. -1.
<mgrwt>
<rscale>  0 0.10647753E+04</rscale>
<asrwt>0</asrwt>
<pdfrwt beam="1">  1        1 0.42836314E-01 0.10647753E+04</pdfrwt>
<pdfrwt beam="2">  1       -1 0.15660914E+00 0.10647753E+04</pdfrwt>
<totfact> 0.29941936E+01</totfact>
</mgrwt>
</event>
<event>
 6    1  0.1603085E-006  0.4011330E+04  0.7818608E-02  0.8002265E-01
         -1   -1    0    0    0  501 -0.00000000000E+00  0.00000000000E+00  0.30173323726E+04  0.30173323726E+04  0.00000000000E+00 0.  1.
          1   -1    0    0  501    0  0.00000000000E+00 -0.00000000000E+00 -0.13331947319E+04  0.13331947319E+04  0.00000000000E+00 0. -1.
         23    2    1    2    0    0  0.11813758274E+04  0.12508778541E+04  0.19582462115E+04  0.26082642771E+04  0.89275208808E+02 0.  0.
         11    1    3    3    0    0  0.99866532680E+03  0.10871512685E+04  0.17138529412E+04  0.22619730811E+04  0.00000000000E+00 0. -1.
        -11    1    3    3    0    0  0.18271050057E+03  0.16372658559E+03  0.24439327026E+03  0.34629119595E+03  0.00000000000E+00 0.  1.
         22    1    1    2    0    0 -0.11813758274E+04 -0.12508778541E+04 -0.27410857081E+03  0.17422628275E+04  0.00000000000E+00 0. -1.
<mgrwt>
<rscale>  0 0.40113298E+04</rscale>
<asrwt>0</asrwt>
<pdfrwt beam="1">  1        1 0.20510688E+00 0.40113298E+04</pdfrwt>
<pdfrwt beam="2">  1       -1 0.46420498E+00 0.40113298E+04</pdfrwt>
<totfact> 0.17315022E-02</totfact>
</mgrwt>
</event>
<event>
 6    1  0.1603085E-006  0.1144198E+04  0.7818608E-02  0.9163152E-01
          1   -1    0    0  501    0  0.00000000000E+00  0.00000000000E+00  0.16467211225E+04  0.16467211225E+04  0.00000000000E+00 0. -1.
         -1   -1    0    0    0  501 -0.00000000000E+00 -0.00000000000E+00 -0.19875709101E+03  0.19875709101E+03  0.00000000000E+00 0.  1.
         23    2    1    2    0    0 -0.39737470851E+03  0.37397479537E+02  0.13815523537E+04  0.14408601944E+04  0.89921985057E+02 0.  0.
         11    1    3    3    0    0 -0.20833433012E+03  0.64535942612E+02  0.72475778367E+03  0.75686321485E+03  0.00000000000E+00 0.  1.
        -11    1    3    3    0    0 -0.18904037838E+03 -0.27138463075E+02  0.65679457006E+03  0.68399697960E+03  0.00000000000E+00 0. -1.
         22    1    1    2    0    0  0.39737470851E+03 -0.37397479537E+02  0.66411677791E+02  0.40461801910E+03  0.00000000000E+00 0.  1.
<mgrwt>
<rscale>  0 0.11441984E+04</rscale>
<asrwt>0</asrwt>
<pdfrwt beam="1">  1        1 0.25334170E+00 0.11441984E+04</pdfrwt>
<pdfrwt beam="2">  1       -1 0.30578015E-01 0.11441984E+04</pdfrwt>
<totfact> 0.50823912E+01</totfact>
</mgrwt>
</event>
<event>
 6    1  0.1603085E-006  0.2252170E+04  0.7818608E-02  0.8497022E-01
          2   -1    0    0  501    0  0.00000000000E+00  0.00000000000E+00  0.13281912312E+04  0.13281912312E+04  0.00000000000E+00 0. -1.
         -2   -1    0    0    0  501 -0.00000000000E+00 -0.00000000000E+00 -0.95473258071E+03  0.95473258071E+03  0.00000000000E+00 0.  1.
         23    2    1    2    0    0  0.31748089708E+03  0.44690478227E+03 -0.80796295017E+03  0.98051258540E+03  0.89904376204E+02 0.  0.
         13    1    3    3    0    0  0.22701198400E+03  0.30090251430E+03 -0.62256497910E+03  0.72778012971E+03  0.00000000000E+00 0. -1.
        -13    1    3    3    0    0  0.90468913075E+02  0.14600226797E+03 -0.18539797107E+03  0.25273245569E+03  0.00000000000E+00 0.  1.
         22    1    1    2    0    0 -0.31748089708E+03 -0.44690478227E+03  0.11814216007E+04  0.13024112265E+04  0.00000000000E+00 0. -1.
<mgrwt>
<rscale>  0 0.22521700E+04</rscale>
<asrwt>0</asrwt>
<pdfrwt beam="1">  1        2 0.20433711E+00 0.22521700E+04</pdfrwt>
<pdfrwt beam="2">  1       -2 0.14688193E+00 0.22521700E+04</pdfrwt>
<totfact> 0.45896589E+00</totfact>
</mgrwt>
</event>
<event>
 6    1  0.1603085E-006  0.2330101E+04  0.7818608E-02  0.8466147E-01
         -1   -1    0    0    0  501 -0.00000000000E+00  0.00000000000E+00  0.45143346591E+03  0.45143346591E+03  0.00000000000E+00 0. -1.
          1   -1    0    0  501    0  0.00000000000E+00 -0.00000000000E+00 -0.30067382153E+04  0.30067382153E+04  0.00000000000E+00 0.  1.
         23    2    1    2    0    0  0.59481794298E+03  0.81170337669E+03 -0.21450299127E+04  0.23714351913E+04  0.99402126676E+02 0.  0.
         11    1    3    3    0    0  0.39236840245E+03  0.58482255662E+03 -0.15779754474E+04  0.17279979452E+04  0.00000000000E+00 0.  1.
        -11    1    3    3    0    0  0.20244954053E+03  0.22688082008E+03 -0.56705446537E+03  0.64343724610E+03  0.00000000000E+00 0. -1.
         22    1    1    2    0    0 -0.59481794298E+03 -0.81170337669E+03 -0.41027483667E+03  0.10867364900E+04  0.00000000000E+00 0. -1.
<mgrwt>
<rscale>  0 0.23301006E+04</rscale>
<asrwt>0</asrwt>
<pdfrwt beam="1">  1        1 0.46257510E+00 0.23301006E+04</pdfrwt>
<pdfrwt beam="2">  1       -1 0.69451303E-01 0.23301006E+04</pdfrwt>
<totfact> 0.11177810E+00</totfact>
</mgrwt>
</event>
<event>
 6    1  0.1603085E-006  0.3832981E+04  0.7818608E-02  0.8039114E-01
         -2   -1    0    0    0  501 -0.00000000000E+00  0.00000000000E+00  0.12933603040E+04  0.12933603040E+04  0.00000000000E+00 0.  1.
          2   -1    0    0  501    0  0.00000000000E+00 -0.00000000000E+00 -0.28398395224E+04  0.28398395224E+04  0.00000000000E+00 0. -1.
         23    2    1    2    0    0  0.13958023064E+04  0.35500682810E+03  0.58816409650E+03  0.15581277869E+04  0.86782886948E+02 0.  0.
         11    1    3    3    0    0  0.91175324996E+03  0.24593658461E+03  0.42732273675E+03  0.10365247290E+04  0.00000000000E+00 0. -1.
        -11    1    3    3    0    0  0.48404905644E+03  0.10907024350E+03  0.16084135975E+03  0.52160305795E+03  0.00000000000E+00 0.  1.
         22    1    1    2    0    0 -0.13958023064E+04 -0.35500682810E+03 -0.21346433149E+04  0.25750720395E+04  0.00000000000E+00 0.  1.
<mgrwt>
<rscale>  0 0.38329809E+04</rscale>
<asrwt>0</asrwt>
<pdfrwt beam="1">  1        2 0.43689839E+00 0.38329809E+04</pdfrwt>
<pdfrwt beam="2">  1       -2 0.19897851E+00 0.38329809E+04</pdfrwt>
<totfact> 0.23613877E-01</totfact>
</mgrwt>
</event>
<event>
 6    1  0.1603085E-006  0.1289829E+04  0.7818608E-02  0.9037670E-01
         -2   -1    0    0    0  501 -0.00000000000E+00  0.00000000000E+00  0.69130599568E+03  0.69130599568E+03  0.00000000000E+00 0.  1.
          2   -1    0    0  501    0  0.00000000000E+00 -0.00000000000E+00 -0.60163581148E+03  0.60163581148E+03  0.00000000000E+00 0. -1.
         23    2    1    2    0    0  0.37097291842E+02 -0.62841163091E+03  0.17056093455E+03  0.65826023312E+03  0.89096100921E+02 0.  0.
         13    1    3    3    0    0  0.34862877206E+02 -0.33979487053E+03  0.13566228430E+03  0.36753262389E+03  0.00000000000E+00 0.  1.
        -13    1    3    3    0    0  0.22344146360E+01 -0.28861676038E+03  0.34898650245E+02  0.29072760923E+03  0.00000000000E+00 0. -1.
         22    1    1    2    0    0 -0.37097291842E+02  0.62841163091E+03 -0.80890750349E+02  0.63468157403E+03  0.00000000000E+00 0.  1.
<mgrwt>
<rscale>  0 0.12898286E+04</rscale>
<asrwt>0</asrwt>
<pdfrwt beam="1">  1        2 0.92559355E-01 0.12898286E+04</pdfrwt>
<pdfrwt beam="2">  1       -2 0.10635477E+00 0.12898286E+04</pdfrwt>
<totfact> 0.34563108E+01</totfact>
</mgrwt>
</event>
<event>
 6    1  0.1603085E-006  0.2000961E+04  0.7818608E-02  0.8606171E-01
         -1   -1    0    0    0  501 -0.00000000000E+00  0.00000000000E+00  0.50026890569E+03  0.50026890569E+03  0.00000000000E+00 0.  1.
          1   -1    0    0  501    0  0.00000000000E+00 -0.00000000000E+00 -0.20008470783E+04  0.20008470783E+04  0.00000000000E+00 0. -1.
         23    2    1    2    0    0 -0.50260893516E+03 -0.68286988508E+03 -0.14108221167E+04  0.16484829028E+04  0.90276321184E+02 0.  0.
         11    1    3    3    0    0 -0.32745933589E+03 -0.38635475523E+03 -0.89245920840E+03  0.10261496247E+04  0.00000000000E+00 0. -1.
        -11    1    3    3    0    0 -0.17514959928E+03 -0.29651512985E+03 -0.51836290828E+03  0.62233327810E+03  0.00000000000E+00 0.  1.
         22    1    1    2    0    0  0.50260893516E+03  0.68286988508E+03 -0.89756055948E+02  0.85263308124E+03  0.00000000000E+00 0.  1.
<mgrwt>
<rscale>  0 0.20009613E+04</rscale>
<asrwt>0</asrwt>
<pdfrwt beam="1">  1        1 0.30782263E+00 0.20009613E+04</pdfrwt>
<pdfrwt beam="2">  1       -1 0.76964447E-01 0.20009613E+04</pdfrwt>
<totfact> 0.46740565E+00</totfact>
</mgrwt>
</event>
<event>
 6    1  0.1603085E-006  0.1001354E+04  0.7818608E-02  0.9307061E-01
          2   -1    0    0  501    0  0.00000000000E+00  0.00000000000E+00  0.13753405057E+04  0.13753405057E+04  0.00000000000E+00 0. -1.
         -2   -1    0    0    0  501 -0.00000000000E+00 -0.00000000000E+00 -0.18226561388E+03  0.18226561388E+03  0.00000000000E+00 0.  1.
         23    2    1    2    0    0  0.16677473555E+03 -0.41685012879E+03  0.27188378416E+03  0.53282765615E+03  0.91687931444E+02 0.  0.
         11    1    3    3    0    0  0.10652891492E+03 -0.15272763712E+03  0.92547172981E+02  0.20794018390E+03  0.00000000000E+00 0. -1.
        -11    1    3    3    0    0  0.60245820624E+02 -0.26412249168E+03  0.17933661118E+03  0.32488747225E+03  0.00000000000E+00 0.  1.
         22    1    1    2    0    0 -0.16677473555E+03  0.41685012879E+03  0.92119110763E+03  0.10247784634E+04  0.00000000000E+00 0. -1.
<mgrwt>
<rscale>  0 0.10013536E+04</rscale>
<asrwt>0</asrwt>
<pdfrwt beam="1">  1        2 0.21159084E+00 0.10013536E+04</pdfrwt>
<pdfrwt beam="2">  1       -2 0.28040864E-01 0.10013536E+04</pdfrwt>
<totfact> 0.17329404E+02</totfact>
</mgrwt>
</event>
<event>
 6    1  0.1603085E-006  0.3192171E+04  0.7818608E-02  0.8190888E-01
          4   -1    0    0  501    0  0.00000000000E+00  0.00000000000E+00  0.18645260361E+04  0.18645260361E+04  0.00000000000E+00 0. -1.
         -4   -1    0    0    0  501 -0.00000000000E+00 -0.00000000000E+00 -0.13662927566E+04  0.13662927566E+04  0.00000000000E+00 0.  1.
         23    2    1    2    0    0 -0.24815571984E+03 -0.61616423757E+03 -0.12181620446E+04  0.13903697884E+04  0.89273470242E+02 0.  0.
         11    1    3    3    0    0 -0.15413484345E+03 -0.35106092910E+03 -0.61295556615E+03  0.72299090726E+03  0.00000000000E+00 0.  1.
        -11    1    3    3    0    0 -0.94020876389E+02 -0.26510330847E+03 -0.60520647849E+03  0.66737888112E+03  0.00000000000E+00 0. -1.
         22    1    1    2    0    0  0.24815571984E+03  0.61616423757E+03  0.17163953242E+04  0.18404490044E+04  0.00000000000E+00 0. -1.
<mgrwt>
<rscale>  0 0.31921707E+04</rscale>
<asrwt>0</asrwt>
<pdfrwt beam="1">  1        4 0.28685016E+00 0.31921707E+04</pdfrwt>
<pdfrwt beam="2">  1       -4 0.21019889E+00 0.31921707E+04</pdfrwt>
<totfact> 0.70205754E-03</totfact>
</mgrwt>
</event>
<event>
 6    1  0.1603085E-006  0.1778997E+04  0.7818608E-02  0.8717549E-01
         -1   -1    0    0    0  501 -0.00000000000E+00  0.00000000000E+00  0.54090023460E+03  0.54090023460E+03  0.00000000000E+00 0.  1.
          1   -1    0    0  501    0  0.00000000000E+00 -0.00000000000E+00 -0.14627608822E+04  0.14627608822E+04  0.00000000000E+00 0. -1.
         23    2    1    2    0    0  0.34778004134E+03 -0.59881481881E+03  0.16269902939E+03  0.71688225572E+03  0.88989044453E+02 0.  0.
         13    1    3    3    0    0  0.17965189482E+03 -0.22442393063E+03  0.77256568379E+02  0.29767344744E+03  0.00000000000E+00 0.  1.
        -13    1    3    3    0    0  0.16812814651E+03 -0.37439088817E+03  0.85442461007E+02  0.41920880828E+03  0.00000000000E+00 0. -1.
         22    1    1    2    0    0 -0.34778004134E+03  0.59881481881E+03 -0.10845596770E+04  0.12867788611E+04  0.00000000000E+00 0. -1.
<mgrwt>
<rscale>  0 0.17789971E+04</rscale>
<asrwt>0</asrwt>
<pdfrwt beam="1">  1        1 0.22504013E+00 0.17789971E+04</pdfrwt>
<pdfrwt beam="2">  1       -1 0.83215424E-01 0.17789971E+04</pdfrwt>
<totfact> 0.94085827E+00</totfact>
</mgrwt>
</event>
<event>
 6    1  0.1603085E-006  0.2342544E+04  0.7818608E-02  0.8461333E-01
         -2   -1    0    0    0  501 -0.00000000000E+00  0.00000000000E+00  0.10844764319E+04  0.10844764319E+04  0.00000000000E+00 0.  1.
          2   -1    0    0  501    0  0.00000000000E+00 -0.00000000000E+00 -0.12650143990E+04  0.12650143990E+04  0.00000000000E+00 0. -1.
         23    2    1    2    0    0 -0.49363427071E+03 -0.98910043851E+03 -0.47199672723E+03  0.12062748935E+04  0.10160579439E+03 0.  0.
         13    1    3    3    0    0 -0.40068307956E+03 -0.87657643214E+03 -0.41984854654E+03  0.10512877692E+04  0.00000000000E+00 0. -1.
        -13    1    3    3    0    0 -0.92951191152E+02 -0.11252400637E+03 -0.52148180689E+02  0.15498712429E+03  0.00000000000E+00 0.  1.
         22    1    1    2    0    0  0.49363427071E+03  0.98910043851E+03  0.29145876010E+03  0.11432159374E+04  0.00000000000E+00 0.  1.
<mgrwt>
<rscale>  0 0.23425442E+04</rscale>
<asrwt>0</asrwt>
<pdfrwt beam="1">  1        2 0.19461760E+00 0.23425442E+04</pdfrwt>
<pdfrwt beam="2">  1       -2 0.16684253E+00 0.23425442E+04</pdfrwt>
<totfact> 0.35158429E+00</totfact>
</mgrwt>
</event>
<event>
 6    1  0.1603085E-006  0.1396708E+04  0.7818608E-02  0.8956205E-01
          2   -1    0    0  501    0  0.00000000000E+00  0.00000000000E+00  0.84667215895E+03  0.84667215895E+03  0.00000000000E+00 0. -1.
         -2   -1    0    0    0  501 -0.00000000000E+00 -0.00000000000E+00 -0.57601826275E+03  0.57601826275E+03  0.00000000000E+00 0.  1.
         23    2    1    2    0    0 -0.35997263705E+03  0.43625043487E+03 -0.27622240539E+03  0.63594495423E+03  0.90732718657E+02 0.  0.
         13    1    3    3    0    0 -0.35947381102E+03  0.40736008804E+03 -0.26860570303E+03  0.60606326884E+03  0.00000000000E+00 0. -1.
        -13    1    3    3    0    0 -0.49882602449E+00  0.28890346824E+02 -0.76167023571E+01  0.29881685391E+02  0.00000000000E+00 0.  1.
         22    1    1    2    0    0  0.35997263705E+03 -0.43625043487E+03  0.54687630159E+03  0.78674546747E+03  0.00000000000E+00 0. -1.
<mgrwt>
<rscale>  0 0.13967085E+04</rscale>
<asrwt>0</asrwt>
<pdfrwt beam="1">  1        2 0.13025726E+00 0.13967085E+04</pdfrwt>
<pdfrwt beam="2">  1       -2 0.88618194E-01 0.13967085E+04</pdfrwt>
<totfact> 0.34033005E+01</totfact>
</mgrwt>
</event>
<event>
 6    1  0.1603085E-006  0.2113070E+04  0.7818608E-02  0.8555508E-01
         -2   -1    0    0    0  501 -0.00000000000E+00  0.00000000000E+00  0.51806616147E+03  0.51806616147E+03  0.00000000000E+00 0.  1.
          2   -1    0    0  501    0  0.00000000000E+00 -0.00000000000E+00 -0.21546780461E+04  0.21546780461E+04  0.00000000000E+00 0. -1.
         23    2    1    2    0    0  0.65201989380E+03 -0.17885024046E+03  0.20335490385E+03  0.71249036352E+03  0.95770302097E+02 0.  0.
         13    1    3    3    0    0  0.33746617104E+03 -0.57689963940E+02  0.13802005995E+03  0.36913559227E+03  0.00000000000E+00 0.  1.
        -13    1    3    3    0    0  0.31455372276E+03 -0.12116027652E+03  0.65334843902E+02  0.34335477125E+03  0.00000000000E+00 0. -1.
         22    1    1    2    0    0 -0.65201989380E+03  0.17885024046E+03 -0.18399667884E+04  0.19602538440E+04  0.00000000000E+00 0. -1.
<mgrwt>
<rscale>  0 0.21130696E+04</rscale>
<asrwt>0</asrwt>
<pdfrwt beam="1">  1        2 0.33148894E+00 0.21130696E+04</pdfrwt>
<pdfrwt beam="2">  1       -2 0.79702484E-01 0.21130696E+04</pdfrwt>
<totfact> 0.70259625E+00</totfact>
</mgrwt>
</event>
<event>
 6    1  0.1603085E-006  0.2799662E+04  0.7818608E-02  0.8303373E-01
         -2   -1    0    0    0  501 -0.00000000000E+00  0.00000000000E+00  0.61325433962E+03  0.61325433962E+03  0.00000000000E+00 0.  1.
          2   -1    0    0  501    0  0.00000000000E+00 -0.00000000000E+00 -0.31952924597E+04  0.31952924597E+04  0.00000000000E+00 0. -1.
         23    2    1    2    0    0 -0.10779047089E+04  0.87237386470E+03 -0.10478118440E+04  0.17405127117E+04  0.92520904979E+02 0.  0.
         11    1    3    3    0    0 -0.70365585017E+03  0.54578157807E+03 -0.62154345694E+03  0.10859674743E+04  0.00000000000E+00 0.  1.
        -11    1    3    3    0    0 -0.37424885875E+03  0.32659228662E+03 -0.42626838709E+03  0.65454523739E+03  0.00000000000E+00 0. -1.
         22    1    1    2    0    0  0.10779047089E+04 -0.87237386470E+03 -0.15342262760E+04  0.20680340876E+04  0.00000000000E+00 0. -1.
<mgrwt>
<rscale>  0 0.27996621E+04</rscale>
<asrwt>0</asrwt>
<pdfrwt beam="1">  1        2 0.49158346E+00 0.27996621E+04</pdfrwt>
<pdfrwt beam="2">  1       -2 0.94346821E-01 0.27996621E+04</pdfrwt>
<totfact> 0.10759738E+00</totfact>
</mgrwt>
</event>
<event>
 6    1  0.1603085E-006  0.2575960E+04  0.7818608E-02  0.8376413E-01
         -1   -1    0    0    0  501 -0.00000000000E+00  0.00000000000E+00  0.85108322653E+03  0.85108322653E+03  0.00000000000E+00 0.  1.
          1   -1    0    0  501    0  0.00000000000E+00 -0.00000000000E+00 -0.19491546198E+04  0.19491546198E+04  0.00000000000E+00 0. -1.
         23    2    1    2    0    0 -0.80519389099E+03  0.58956821832E+03  0.33244225928E+03  0.10560196271E+04  0.93443624316E+02 0.  0.
         13    1    3    3    0    0 -0.10867187419E+03  0.11407408332E+03  0.73190913541E+02  0.17372214179E+03  0.00000000000E+00 0. -1.
        -13    1    3    3    0    0 -0.69652201680E+03  0.47549413501E+03  0.25925134574E+03  0.88229748531E+03  0.00000000000E+00 0.  1.
         22    1    1    2    0    0  0.80519389099E+03 -0.58956821832E+03 -0.14305136525E+04  0.17442182192E+04  0.00000000000E+00 0. -1.
<mgrwt>
<rscale>  0 0.25759603E+04</rscale>
<asrwt>0</asrwt>
<pdfrwt beam="1">  1        1 0.29986994E+00 0.25759603E+04</pdfrwt>
<pdfrwt beam="2">  1       -1 0.13093588E+00 0.25759603E+04</pdfrwt>
<totfact> 0.14179545E+00</totfact>
</mgrwt>
</event>
<event>
 6    1  0.1603085E-006  0.6452089E+04  0.7818608E-02  0.7636743E-01
          2   -1    0    0  501    0  0.00000000000E+00  0.00000000000E+00  0.45090090685E+04  0.45090090685E+04  0.00000000000E+00 0. -1.
         -2   -1    0    0    0  501 -0.00000000000E+00 -0.00000000000E+00 -0.23081265358E+04  0.23081265358E+04  0.00000000000E+00 0.  1.
         23    2    1    2    0    0 -0.10226202973E+04 -0.16223904275E+04  0.38405936951E+04  0.42939321508E+04  0.98946519043E+02 0.  0.
         13    1    3    3    0    0 -0.19479654236E+03 -0.33398643991E+03  0.86056720810E+03  0.94343444638E+03  0.00000000000E+00 0. -1.
        -13    1    3    3    0    0 -0.82782375499E+03 -0.12884039876E+04  0.29800264870E+04  0.33504977045E+04  0.00000000000E+00 0.  1.
         22    1    1    2    0    0  0.10226202973E+04  0.16223904275E+04 -0.16397111624E+04  0.25232034535E+04  0.00000000000E+00 0.  1.
<mgrwt>
<rscale>  0 0.64520891E+04</rscale>
<asrwt>0</asrwt>
<pdfrwt beam="1">  1        2 0.69369370E+00 0.64520891E+04</pdfrwt>
<pdfrwt beam="2">  1       -2 0.35509639E+00 0.64520891E+04</pdfrwt>
<totfact> 0.11186329E-03</totfact>
</mgrwt>
</event>
<event>
 6    1  0.1603085E-006  0.2528783E+04  0.7818608E-02  0.8392803E-01
          1   -1    0    0  501    0  0.00000000000E+00  0.00000000000E+00  0.16564635464E+04  0.16564635464E+04  0.00000000000E+00 0. -1.
         -1   -1    0    0    0  501 -0.00000000000E+00 -0.00000000000E+00 -0.96511978760E+03  0.96511978760E+03  0.00000000000E+00 0.  1.
         23    2    1    2    0    0  0.90386144672E+03  0.53113838547E+03  0.10758769043E+04  0.15049189980E+04  0.90534953753E+02 0.  0.
         13    1    3    3    0    0  0.43505605855E+03  0.26636467953E+03  0.46017456498E+03  0.68701131493E+03  0.00000000000E+00 0. -1.
        -13    1    3    3    0    0  0.46880538817E+03  0.26477370595E+03  0.61570233932E+03  0.81790768305E+03  0.00000000000E+00 0.  1.
         22    1    1    2    0    0 -0.90386144672E+03 -0.53113838547E+03 -0.38453314549E+03  0.11166643360E+04  0.00000000000E+00 0.  1.
<mgrwt>
<rscale>  0 0.25287829E+04</rscale>
<asrwt>0</asrwt>
<pdfrwt beam="1">  1        1 0.25484055E+00 0.25287829E+04</pdfrwt>
<pdfrwt beam="2">  1       -1 0.14847997E+00 0.25287829E+04</pdfrwt>
<totfact> 0.16220453E+00</totfact>
</mgrwt>
</event>
<event>
 6    1  0.1603085E-006  0.4118782E+04  0.7818608E-02  0.7981004E-01
         -2   -1    0    0    0  501 -0.00000000000E+00  0.00000000000E+00  0.12089905559E+04  0.12089905559E+04  0.00000000000E+00 0.  1.
          2   -1    0    0  501    0  0.00000000000E+00 -0.00000000000E+00 -0.35079610503E+04  0.35079610503E+04  0.00000000000E+00 0. -1.
         23    2    1    2    0    0  0.11561902560E+04 -0.14658340856E+04 -0.21428034817E+04  0.28434966133E+04  0.91764663934E+02 0.  0.
         11    1    3    3    0    0  0.10450825148E+04 -0.13309579640E+04 -0.19805407279E+04  0.26050313126E+04  0.00000000000E+00 0. -1.
        -11    1    3    3    0    0  0.11110774116E+03 -0.13487612163E+03 -0.16226275387E+03  0.23846530067E+03  0.00000000000E+00 0.  1.
         22    1    1    2    0    0 -0.11561902560E+04  0.14658340856E+04 -0.15616701272E+03  0.18734549929E+04  0.00000000000E+00 0. -1.
<mgrwt>
<rscale>  0 0.41187822E+04</rscale>
<asrwt>0</asrwt>
<pdfrwt beam="1">  1        2 0.53968632E+00 0.41187822E+04</pdfrwt>
<pdfrwt beam="2">  1       -2 0.18599855E+00 0.41187822E+04</pdfrwt>
<totfact> 0.10325141E-01</totfact>
</mgrwt>
</event>
<event>
 6    1  0.1603085E-006  0.2016745E+04  0.7818608E-02  0.8598832E-01
          2   -1    0    0  501    0  0.00000000000E+00  0.00000000000E+00  0.22291956651E+04  0.22291956651E+04  0.00000000000E+00 0. -1.
         -2   -1    0    0    0  501 -0.00000000000E+00 -0.00000000000E+00 -0.45613527147E+03  0.45613527147E+03  0.00000000000E+00 0.  1.
         23    2    1    2    0    0  0.52191260042E+03 -0.88672419536E+02 -0.25116253487E+03  0.59302741540E+03  0.91341863475E+02 0.  0.
         13    1    3    3    0    0  0.44004137733E+03 -0.80817972437E+02 -0.17336796126E+03  0.47981705724E+03  0.00000000000E+00 0. -1.
        -13    1    3    3    0    0  0.81871223098E+02 -0.78544470995E+01 -0.77794573610E+02  0.11321035816E+03  0.00000000000E+00 0.  1.
         22    1    1    2    0    0 -0.52191260042E+03  0.88672419536E+02  0.20242229285E+04  0.20923035211E+04  0.00000000000E+00 0. -1.
<mgrwt>
<rscale>  0 0.20167447E+04</rscale>
<asrwt>0</asrwt>
<pdfrwt beam="1">  1        2 0.34295317E+00 0.20167447E+04</pdfrwt>
<pdfrwt beam="2">  1       -2 0.70174658E-01 0.20167447E+04</pdfrwt>
<totfact> 0.85287082E+00</totfact>
</mgrwt>
</event>
<event>
 6    1  0.1603085E-006  0.3157706E+04  0.7818608E-02  0.8200077E-01
          1   -1    0    0  501    0  0.00000000000E+00  0.00000000000E+00  0.21947042094E+04  0.21947042094E+04  0.00000000000E+00 0. -1.
         -1   -1    0    0    0  501 -0.00000000000E+00 -0.00000000000E+00 -0.11358146272E+04  0.11358146272E+04  0.00000000000E+00 0.  1.
         23    2    1    2    0    0  0.14796189255E+04 -0.42150000468E+03  0.16198275345E+03  0.15496829997E+04  0.91348609794E+02 0.  0.
         13    1    3    3    0    0  0.38950852039E+03 -0.13678254553E+03  0.11386286079E+02  0.41298426087E+03  0.00000000000E+00 0. -1.
        -13    1    3    3    0    0  0.10901104051E+04 -0.28471745915E+03  0.15059646737E+03  0.11366987388E+04  0.00000000000E+00 0.  1.
         22    1    1    2    0    0 -0.14796189255E+04  0.42150000468E+03  0.89690682874E+03  0.17808358369E+04  0.00000000000E+00 0. -1.
<mgrwt>
<rscale>  0 0.31577062E+04</rscale>
<asrwt>0</asrwt>
<pdfrwt beam="1">  1        1 0.33764680E+00 0.31577062E+04</pdfrwt>
<pdfrwt beam="2">  1       -1 0.17474071E+00 0.31577062E+04</pdfrwt>
<totfact> 0.41900006E-01</totfact>
</mgrwt>
</event>
<event>
 6    1  0.1603085E-006  0.6656017E+03  0.7818608E-02  0.9777936E-01
         -1   -1    0    0    0  501 -0.00000000000E+00  0.00000000000E+00  0.30068360254E+03  0.30068360254E+03  0.00000000000E+00 0.  1.
          1   -1    0    0  501    0  0.00000000000E+00 -0.00000000000E+00 -0.36834862897E+03  0.36834862897E+03  0.00000000000E+00 0. -1.
         23    2    1    2    0    0  0.73973186102E+02  0.14922714084E+03  0.24799029775E+03  0.31213020642E+03  0.90472681849E+02 0.  0.
         13    1    3    3    0    0 -0.81481829080E+01 -0.84598094854E+01  0.14747575530E+02  0.18853441204E+02  0.00000000000E+00 0.  1.
        -13    1    3    3    0    0  0.82121369010E+02  0.15768695033E+03  0.23324272221E+03  0.29327676522E+03  0.00000000000E+00 0. -1.
         22    1    1    2    0    0 -0.73973186102E+02 -0.14922714084E+03 -0.31565532418E+03  0.35690202509E+03  0.00000000000E+00 0. -1.
<mgrwt>
<rscale>  0 0.66560166E+03</rscale>
<asrwt>0</asrwt>
<pdfrwt beam="1">  1        1 0.56669020E-01 0.66560166E+03</pdfrwt>
<pdfrwt beam="2">  1       -1 0.46259016E-01 0.66560166E+03</pdfrwt>
<totfact> 0.31550982E+02</totfact>
</mgrwt>
</event>
<event>
 6    1  0.1603085E-006  0.3873828E+04  0.7818608E-02  0.8030495E-01
         -1   -1    0    0    0  501 -0.00000000000E+00  0.00000000000E+00  0.25195609170E+04  0.25195609170E+04  0.00000000000E+00 0.  1.
          1   -1    0    0  501    0  0.00000000000E+00 -0.00000000000E+00 -0.14890039850E+04  0.14890039850E+04  0.00000000000E+00 0. -1.
         23    2    1    2    0    0 -0.15681984563E+04 -0.73855313311E+03  0.14073876429E+04  0.22346684808E+04  0.91083001452E+02 0.  0.
         11    1    3    3    0    0 -0.12425188316E+04 -0.55497319398E+03  0.11365294633E+04  0.17730052210E+04  0.00000000000E+00 0. -1.
        -11    1    3    3    0    0 -0.32567962465E+03 -0.18357993913E+03  0.27085817961E+03  0.46166325977E+03  0.00000000000E+00 0.  1.
         22    1    1    2    0    0  0.15681984563E+04  0.73855313311E+03 -0.37683071090E+03  0.17738964213E+04  0.00000000000E+00 0. -1.
<mgrwt>
<rscale>  0 0.38738282E+04</rscale>
<asrwt>0</asrwt>
<pdfrwt beam="1">  1        1 0.22907754E+00 0.38738282E+04</pdfrwt>
<pdfrwt beam="2">  1       -1 0.38762476E+00 0.38738282E+04</pdfrwt>
<totfact> 0.45702634E-02</totfact>
</mgrwt>
</event>
<event>
 6    1  0.1603085E-006  0.1561854E+04  0.7818608E-02  0.8844331E-01
         -2   -1    0    0    0  501 -0.00000000000E+00  0.00000000000E+00  0.26135849368E+03  0.26135849368E+03  0.00000000000E+00 0.  1.
          2   -1    0    0  501    0  0.00000000000E+00 -0.00000000000E+00 -0.23333747326E+04  0.23333747326E+04  0.00000000000E+00 0. -1.
         23    2    1    2    0    0 -0.48738366794E+03  0.56192145625E+03 -0.14199079368E+04  0.16055194979E+04  0.90861137602E+02 0.  0.
         13    1    3    3    0    0 -0.31656388065E+02  0.14847057857E+02 -0.97945805963E+02  0.10399972566E+03  0.00000000000E+00 0.  1.
        -13    1    3    3    0    0 -0.45572727987E+03  0.54707439839E+03 -0.13219621308E+04  0.15015197722E+04  0.00000000000E+00 0. -1.
         22    1    1    2    0    0  0.48738366794E+03 -0.56192145625E+03 -0.65210830214E+03  0.98921372841E+03  0.00000000000E+00 0.  1.
<mgrwt>
<rscale>  0 0.15618544E+04</rscale>
<asrwt>0</asrwt>
<pdfrwt beam="1">  1        2 0.35898074E+00 0.15618544E+04</pdfrwt>
<pdfrwt beam="2">  1       -2 0.40208998E-01 0.15618544E+04</pdfrwt>
<totfact> 0.24468300E+01</totfact>
</mgrwt>
</event>
<event>
 6    1  0.1603085E-006  0.2836570E+04  0.7818608E-02  0.8292004E-01
         -1   -1    0    0    0  501 -0.00000000000E+00  0.00000000000E+00  0.10805176912E+04  0.10805176912E+04  0.00000000000E+00 0.  1.
          1   -1    0    0  501    0  0.00000000000E+00 -0.00000000000E+00 -0.18616380574E+04  0.18616380574E+04  0.00000000000E+00 0. -1.
         23    2    1    2    0    0  0.86868206800E+03  0.50619814387E+03  0.64450903235E+03  0.11976603264E+04  0.90295451055E+02 0.  0.
         11    1    3    3    0    0  0.75815382122E+03  0.45363066848E+03  0.59737551034E+03  0.10665062121E+04  0.00000000000E+00 0.  1.
        -11    1    3    3    0    0  0.11052824678E+03  0.52567475390E+02  0.47133522011E+02  0.13115411431E+03  0.00000000000E+00 0. -1.
         22    1    1    2    0    0 -0.86868206800E+03 -0.50619814387E+03 -0.14256293986E+04  0.17444954222E+04  0.00000000000E+00 0. -1.
<mgrwt>
<rscale>  0 0.28365704E+04</rscale>
<asrwt>0</asrwt>
<pdfrwt beam="1">  1        1 0.28640585E+00 0.28365704E+04</pdfrwt>
<pdfrwt beam="2">  1       -1 0.16623349E+00 0.28365704E+04</pdfrwt>
<totfact> 0.83767131E-01</totfact>
</mgrwt>
</event>
<event>
 6    1  0.1603085E-006  0.5981371E+04  0.7818608E-02  0.7692716E-01
         -2   -1    0    0    0  501 -0.00000000000E+00  0.00000000000E+00  0.29282160686E+04  0.29282160686E+04  0.00000000000E+00 0.  1.
          2   -1    0    0  501    0  0.00000000000E+00 -0.00000000000E+00 -0.30544877304E+04  0.30544877304E+04  0.00000000000E+00 0. -1.
         23    2    1    2    0    0 -0.66423374243E+03 -0.13087601722E+04 -0.26687263608E+04  0.30470376823E+04  0.90986787461E+02 0.  0.
         13    1    3    3    0    0 -0.35576088883E+03 -0.61324983595E+03 -0.13332299263E+04  0.15100143072E+04  0.00000000000E+00 0. -1.
        -13    1    3    3    0    0 -0.30847285360E+03 -0.69551033625E+03 -0.13354964344E+04  0.15370233751E+04  0.00000000000E+00 0.  1.
         22    1    1    2    0    0  0.66423374243E+03  0.13087601722E+04  0.25424546989E+04  0.29356661167E+04  0.00000000000E+00 0.  1.
<mgrwt>
<rscale>  0 0.59813711E+04</rscale>
<asrwt>0</asrwt>
<pdfrwt beam="1">  1        2 0.46992119E+00 0.59813711E+04</pdfrwt>
<pdfrwt beam="2">  1       -2 0.45049478E+00 0.59813711E+04</pdfrwt>
<totfact> 0.37514287E-03</totfact>
</mgrwt>
</event>
<event>
 6    1  0.1603085E-006  0.1053570E+04  0.7818608E-02  0.9251666E-01
          1   -1    0    0  501    0  0.00000000000E+00  0.00000000000E+00  0.18795440474E+03  0.18795440474E+03  0.00000000000E+00 0. -1.
         -1   -1    0    0    0  501 -0.00000000000E+00 -0.00000000000E+00 -0.14764355941E+04  0.14764355941E+04  0.00000000000E+00 0.  1.
         23    2    1    2    0    0 -0.34450348638E+03  0.39587939545E+02 -0.30829327036E+02  0.35980651593E+03  0.90886877020E+02 0.  0.
         13    1    3    3    0    0 -0.71703301280E+02  0.46732745441E+02 -0.69120516939E+01  0.85866695345E+02  0.00000000000E+00 0. -1.
        -13    1    3    3    0    0 -0.27280018510E+03 -0.71448058957E+01 -0.23917275342E+02  0.27393982059E+03  0.00000000000E+00 0.  1.
         22    1    1    2    0    0  0.34450348638E+03 -0.39587939545E+02 -0.12576518623E+04  0.13045834829E+04  0.00000000000E+00 0.  1.
<mgrwt>
<rscale>  0 0.10535703E+04</rscale>
<asrwt>0</asrwt>
<pdfrwt beam="1">  1        1 0.28916064E-01 0.10535703E+04</pdfrwt>
<pdfrwt beam="2">  1       -1 0.22714393E+00 0.10535703E+04</pdfrwt>
<totfact> 0.15948710E+01</totfact>
</mgrwt>
</event>
<event>
 6    1  0.1603085E-006  0.1787783E+04  0.7818608E-02  0.8712823E-01
         -2   -1    0    0    0  501 -0.00000000000E+00  0.00000000000E+00  0.42428262129E+03  0.42428262129E+03  0.00000000000E+00 0.  1.
          2   -1    0    0  501    0  0.00000000000E+00 -0.00000000000E+00 -0.18832783243E+04  0.18832783243E+04  0.00000000000E+00 0. -1.
         23    2    1    2    0    0  0.65912279314E+03  0.60412613296E+02  0.39691548950E+02  0.66922153647E+03  0.90495886786E+02 0.  0.
         11    1    3    3    0    0  0.83725017222E+02  0.34408754381E+01  0.35472987290E+02  0.90994785344E+02  0.00000000000E+00 0.  1.
        -11    1    3    3    0    0  0.57539777592E+03  0.56971737858E+02  0.42185616603E+01  0.57822675112E+03  0.00000000000E+00 0. -1.
         22    1    1    2    0    0 -0.65912279314E+03 -0.60412613296E+02 -0.14986872519E+04  0.16383394091E+04  0.00000000000E+00 0. -1.
<mgrwt>
<rscale>  0 0.17877833E+04</rscale>
<asrwt>0</asrwt>
<pdfrwt beam="1">  1        2 0.28973513E+00 0.17877833E+04</pdfrwt>
<pdfrwt beam="2">  1       -2 0.65274249E-01 0.17877833E+04</pdfrwt>
<totfact> 0.15858431E+01</totfact>
</mgrwt>
</event>
<event>
 6    1  0.1603085E-006  0.1020005E+04  0.7818608E-02  0.9286872E-01
          1   -1    0    0  501    0  0.00000000000E+00  0.00000000000E+00  0.10438062397E+04  0.10438062397E+04  0.00000000000E+00 0. -1.
         -1   -1    0    0    0  501 -0.00000000000E+00 -0.00000000000E+00 -0.24918638901E+03  0.24918638901E+03  0.00000000000E+00 0.  1.
         23    2    1    2    0    0  0.26024579282E+03 -0.38018048858E+03  0.66587808674E+03  0.81462089213E+03  0.89154331998E+02 0.  0.
         11    1    3    3    0    0  0.11019313260E+03 -0.10167777192E+03  0.17277192621E+03  0.22875977413E+03  0.00000000000E+00 0. -1.
        -11    1    3    3    0    0  0.15005266022E+03 -0.27850271666E+03  0.49310616053E+03  0.58586111800E+03  0.00000000000E+00 0.  1.
         22    1    1    2    0    0 -0.26024579282E+03  0.38018048858E+03  0.12874176397E+03  0.47837173659E+03  0.00000000000E+00 0. -1.
<mgrwt>
<rscale>  0 0.10200045E+04</rscale>
<asrwt>0</asrwt>
<pdfrwt beam="1">  1        1 0.16058557E+00 0.10200045E+04</pdfrwt>
<pdfrwt beam="2">  1       -1 0.38336368E-01 0.10200045E+04</pdfrwt>
<totfact> 0.92141374E+01</totfact>
</mgrwt>
</event>
<event>
 6    1  0.1603085E-006  0.1006416E+04  0.7818608E-02  0.9301536E-01
         -2   -1    0    0    0  501 -0.00000000000E+00  0.00000000000E+00  0.29208486826E+03  0.29208486826E+03  0.00000000000E+00 0.  1.
          2   -1    0    0  501    0  0.00000000000E+00 -0.00000000000E+00 -0.86693384277E+03  0.86693384277E+03  0.00000000000E+00 0. -1.
         23    2    1    2    0    0  0.44991043090E+03  0.49878609060E+02 -0.53177382877E+03  0.70430700055E+03  0.91420318216E+02 0.  0.
         13    1    3    3    0    0  0.30241849562E+03  0.53057942728E+02 -0.29798708412E+03  0.42786492505E+03  0.00000000000E+00 0.  1.
        -13    1    3    3    0    0  0.14749193527E+03 -0.31793336675E+01 -0.23378674465E+03  0.27644207550E+03  0.00000000000E+00 0. -1.
         22    1    1    2    0    0 -0.44991043090E+03 -0.49878609060E+02 -0.43075145741E+02  0.45471171048E+03  0.00000000000E+00 0.  1.
<mgrwt>
<rscale>  0 0.10064159E+04</rscale>
<asrwt>0</asrwt>
<pdfrwt beam="1">  1        2 0.13337444E+00 0.10064159E+04</pdfrwt>
<pdfrwt beam="2">  1       -2 0.44936134E-01 0.10064159E+04</pdfrwt>
<totfact> 0.14473494E+02</totfact>
</mgrwt>
</event>
<event>
 6    1  0.1603085E-006  0.3258880E+04  0.7818608E-02  0.8173438E-01
          2   -1    0    0  501    0  0.00000000000E+00  0.00000000000E+00  0.98922157414E+03  0.98922157414E+03  0.00000000000E+00 0. -1.
         -2   -1    0    0    0  501 -0.00000000000E+00 -0.00000000000E+00 -0.26840048427E+04  0.26840048427E+04  0.00000000000E+00 0.  1.
         23    2    1    2    0    0 -0.65441855377E+03  0.12530628967E+04  0.62343416372E+02  0.14180269903E+04  0.92106335489E+02 0.  0.
         13    1    3    3    0    0 -0.23886670306E+03  0.46164894083E+03  0.67374971421E+02  0.52413398399E+03  0.00000000000E+00 0. -1.
        -13    1    3    3    0    0 -0.41555185071E+03  0.79141395586E+03 -0.50315550483E+01  0.89389300629E+03  0.00000000000E+00 0.  1.
         22    1    1    2    0    0  0.65441855377E+03 -0.12530628967E+04 -0.17571266849E+04  0.22551994265E+04  0.00000000000E+00 0.  1.
<mgrwt>
<rscale>  0 0.32588805E+04</rscale>
<asrwt>0</asrwt>
<pdfrwt beam="1">  1        2 0.15218794E+00 0.32588805E+04</pdfrwt>
<pdfrwt beam="2">  1       -2 0.41292382E+00 0.32588805E+04</pdfrwt>
<totfact> 0.13081328E-01</totfact>
</mgrwt>
</event>
<event>
 6    1  0.1603085E-006  0.5195820E+04  0.7818608E-02  0.7798990E-01
         -2   -1    0    0    0  501 -0.00000000000E+00  0.00000000000E+00  0.18068218700E+04  0.18068218700E+04  0.00000000000E+00 0.  1.
          2   -1    0    0  501    0  0.00000000000E+00 -0.00000000000E+00 -0.37353640711E+04  0.37353640711E+04  0.00000000000E+00 0. -1.
         23    2    1    2    0    0 -0.21307184992E+04 -0.12134196331E+04 -0.52090480360E+02  0.24545623259E+04  0.99066971501E+02 0.  0.
         13    1    3    3    0    0 -0.13665954282E+04 -0.82069911808E+03 -0.63401240731E+02  0.15953525705E+04  0.00000000000E+00 0. -1.
        -13    1    3    3    0    0 -0.76412307094E+03 -0.39272051505E+03  0.11310760371E+02  0.85920975541E+03  0.00000000000E+00 0.  1.
         22    1    1    2    0    0  0.21307184992E+04  0.12134196331E+04 -0.18764517207E+04  0.30876236152E+04  0.00000000000E+00 0.  1.
<mgrwt>
<rscale>  0 0.51958204E+04</rscale>
<asrwt>0</asrwt>
<pdfrwt beam="1">  1        2 0.57467139E+00 0.51958204E+04</pdfrwt>
<pdfrwt beam="2">  1       -2 0.27797260E+00 0.51958204E+04</pdfrwt>
<totfact> 0.17011257E-02</totfact>
</mgrwt>
</event>
<event>
 6    1  0.1603085E-006  0.2847579E+04  0.7818608E-02  0.8288647E-01
          1   -1    0    0  501    0  0.00000000000E+00  0.00000000000E+00  0.12622475153E+04  0.12622475153E+04  0.00000000000E+00 0. -1.
         -1   -1    0    0    0  501 -0.00000000000E+00 -0.00000000000E+00 -0.16060052172E+04  0.16060052172E+04  0.00000000000E+00 0.  1.
         23    2    1    2    0    0 -0.11348313683E+04  0.74367563396E+03  0.25695662241E+03  0.13844220877E+04  0.98499380696E+02 0.  0.
         13    1    3    3    0    0 -0.59100704480E+03  0.44016629541E+03  0.16091176516E+03  0.75427335283E+03  0.00000000000E+00 0. -1.
        -13    1    3    3    0    0 -0.54382432350E+03  0.30350933855E+03  0.96044857258E+02  0.63014873484E+03  0.00000000000E+00 0.  1.
         22    1    1    2    0    0  0.11348313683E+04 -0.74367563396E+03 -0.60071432430E+03  0.14838306448E+04  0.00000000000E+00 0. -1.
<mgrwt>
<rscale>  0 0.28475787E+04</rscale>
<asrwt>0</asrwt>
<pdfrwt beam="1">  1        1 0.19419192E+00 0.28475787E+04</pdfrwt>
<pdfrwt beam="2">  1       -1 0.24707773E+00 0.28475787E+04</pdfrwt>
<totfact> 0.60484074E-01</totfact>
</mgrwt>
</event>
<event>
 6    1  0.1603085E-006  0.2199594E+04  0.7818608E-02  0.8518597E-01
         -1   -1    0    0    0  501 -0.00000000000E+00  0.00000000000E+00  0.58439737938E+03  0.58439737938E+03  0.00000000000E+00 0.  1.
          1   -1    0    0  501    0  0.00000000000E+00 -0.00000000000E+00 -0.20697442483E+04  0.20697442483E+04  0.00000000000E+00 0. -1.
         23    2    1    2    0    0  0.59703992377E+03 -0.74607181526E+03 -0.91937905906E+02  0.96456524223E+03  0.94094122360E+02 0.  0.
         11    1    3    3    0    0  0.49133213373E+03 -0.65612588011E+03 -0.98600346660E+02  0.82560914756E+03  0.00000000000E+00 0.  1.
        -11    1    3    3    0    0  0.10570779005E+03 -0.89945935157E+02  0.66624407541E+01  0.13895609467E+03  0.00000000000E+00 0. -1.
         22    1    1    2    0    0 -0.59703992377E+03  0.74607181526E+03 -0.13934089630E+04  0.16895763855E+04  0.00000000000E+00 0. -1.
<mgrwt>
<rscale>  0 0.21995937E+04</rscale>
<asrwt>0</asrwt>
<pdfrwt beam="1">  1        1 0.31842219E+00 0.21995937E+04</pdfrwt>
<pdfrwt beam="2">  1       -1 0.89907290E-01 0.21995937E+04</pdfrwt>
<totfact> 0.29490613E+00</totfact>
</mgrwt>
</event>
<event>
 6    1  0.1603085E-006  0.1856775E+04  0.7818608E-02  0.8676677E-01
          2   -1    0    0  501    0  0.00000000000E+00  0.00000000000E+00  0.17295553208E+04  0.17295553208E+04  0.00000000000E+00 0. -1.
         -2   -1    0    0    0  501 -0.00000000000E+00 -0.00000000000E+00 -0.49833800576E+03  0.49833800576E+03  0.00000000000E+00 0.  1.
         23    2    1    2    0    0 -0.30116793772E+03 -0.63429569398E+03  0.13418988363E+04  0.15170603270E+04  0.88013606172E+02 0.  0.
         13    1    3    3    0    0 -0.10564206692E+03 -0.29936033304E+03  0.54267349651E+03  0.62870611507E+03  0.00000000000E+00 0. -1.
        -13    1    3    3    0    0 -0.19552587080E+03 -0.33493536094E+03  0.79922533978E+03  0.88835421196E+03  0.00000000000E+00 0.  1.
         22    1    1    2    0    0  0.30116793772E+03  0.63429569398E+03 -0.11068152123E+03  0.71083299956E+03  0.00000000000E+00 0.  1.
<mgrwt>
<rscale>  0 0.18567748E+04</rscale>
<asrwt>0</asrwt>
<pdfrwt beam="1">  1        2 0.26608543E+00 0.18567748E+04</pdfrwt>
<pdfrwt beam="2">  1       -2 0.76667386E-01 0.18567748E+04</pdfrwt>
<totfact> 0.13492457E+01</totfact>
</mgrwt>
</event>
<event>
 6    1  0.1603085E-006  0.2531247E+04  0.7818608E-02  0.8391938E-01
          2   -1    0    0  501    0  0.00000000000E+00  0.00000000000E+00  0.33452920749E+04  0.33452920749E+04  0.00000000000E+00 0. -1.
         -2   -1    0    0    0  501 -0.00000000000E+00 -0.00000000000E+00 -0.47882288496E+03  0.47882288496E+03  0.00000000000E+00 0.  1.
         23    2    1    2    0    0  0.68071232555E+02  0.35558429408E+03  0.32646772482E+04  0.32859295451E+04  0.90230581681E+02 0.  0.
         13    1    3    3    0    0  0.74486091133E+02  0.17171230599E+03  0.14780296526E+04  0.14898338658E+04  0.00000000000E+00 0.  1.
        -13    1    3    3    0    0 -0.64148585781E+01  0.18387198809E+03  0.17866475956E+04  0.17960956794E+04  0.00000000000E+00 0. -1.
         22    1    1    2    0    0 -0.68071232555E+02 -0.35558429408E+03 -0.39820805828E+03  0.53818541469E+03  0.00000000000E+00 0.  1.
<mgrwt>
<rscale>  0 0.25312467E+04</rscale>
<asrwt>0</asrwt>
<pdfrwt beam="1">  1        2 0.51466030E+00 0.25312467E+04</pdfrwt>
<pdfrwt beam="2">  1       -2 0.73665061E-01 0.25312467E+04</pdfrwt>
<totfact> 0.15362141E+00</totfact>
</mgrwt>
</event>
<event>
 6    1  0.1603085E-006  0.4517251E+04  0.7818608E-02  0.7907624E-01
         -2   -1    0    0    0  501 -0.00000000000E+00  0.00000000000E+00  0.18964170694E+04  0.18964170694E+04  0.00000000000E+00 0.  1.
          2   -1    0    0  501    0  0.00000000000E+00 -0.00000000000E+00 -0.26900144794E+04  0.26900144794E+04  0.00000000000E+00 0. -1.
         23    2    1    2    0    0  0.21793932826E+04 -0.23390071054E+03  0.15230096332E+03  0.21991342578E+04  0.92364916805E+02 0.  0.
         13    1    3    3    0    0  0.15050030712E+04 -0.13668096611E+03  0.69962463206E+02  0.15128154802E+04  0.00000000000E+00 0. -1.
        -13    1    3    3    0    0  0.67439021146E+03 -0.97219744429E+02  0.82338500118E+02  0.68631877770E+03  0.00000000000E+00 0.  1.
         22    1    1    2    0    0 -0.21793932826E+04  0.23390071054E+03 -0.94589837331E+03  0.23872972910E+04  0.00000000000E+00 0. -1.
<mgrwt>
<rscale>  0 0.45172511E+04</rscale>
<asrwt>0</asrwt>
<pdfrwt beam="1">  1        2 0.41384838E+00 0.45172511E+04</pdfrwt>
<pdfrwt beam="2">  1       -2 0.29175647E+00 0.45172511E+04</pdfrwt>
<totfact> 0.72706937E-02</totfact>
</mgrwt>
</event>
<event>
 6    1  0.1603085E-006  0.2711682E+04  0.7818608E-02  0.8331225E-01
         -1   -1    0    0    0  501 -0.00000000000E+00  0.00000000000E+00  0.83393019878E+03  0.83393019878E+03  0.00000000000E+00 0.  1.
          1   -1    0    0  501    0  0.00000000000E+00 -0.00000000000E+00 -0.22043864763E+04  0.22043864763E+04  0.00000000000E+00 0. -1.
         23    2    1    2    0    0  0.95091352670E+03  0.38493824651E+03 -0.16766775826E+04  0.19677161536E+04  0.90802843889E+02 0.  0.
         13    1    3    3    0    0  0.46054290469E+03  0.13771247746E+03 -0.77578587273E+03  0.91263805193E+03  0.00000000000E+00 0.  1.
        -13    1    3    3    0    0  0.49037062201E+03  0.24722576905E+03 -0.90089170983E+03  0.10550781017E+04  0.00000000000E+00 0. -1.
         22    1    1    2    0    0 -0.95091352670E+03 -0.38493824651E+03  0.30622130504E+03  0.10706005215E+04  0.00000000000E+00 0.  1.
<mgrwt>
<rscale>  0 0.27116817E+04</rscale>
<asrwt>0</asrwt>
<pdfrwt beam="1">  1        1 0.33913638E+00 0.27116817E+04</pdfrwt>
<pdfrwt beam="2">  1       -1 0.12829695E+00 0.27116817E+04</pdfrwt>
<totfact> 0.98922940E-01</totfact>
</mgrwt>
</event>
<event>
 6    1  0.1603085E-006  0.1924111E+04  0.7818608E-02  0.8642947E-01
         -2   -1    0    0    0  501 -0.00000000000E+00  0.00000000000E+00  0.10083656523E+04  0.10083656523E+04  0.00000000000E+00 0.  1.
          2   -1    0    0  501    0  0.00000000000E+00 -0.00000000000E+00 -0.91787232473E+03  0.91787232473E+03  0.00000000000E+00 0. -1.
         23    2    1    2    0    0 -0.29513203012E+03  0.42774161608E+03  0.85326987800E+03  0.10032570069E+04  0.91593295566E+02 0.  0.
         13    1    3    3    0    0 -0.70459087516E+02  0.17843566583E+03  0.32499258569E+03  0.37739097844E+03  0.00000000000E+00 0. -1.
        -13    1    3    3    0    0 -0.22467294260E+03  0.24930595026E+03  0.52827729231E+03  0.62586602843E+03  0.00000000000E+00 0.  1.
         22    1    1    2    0    0  0.29513203012E+03 -0.42774161608E+03 -0.76277655046E+03  0.92298097015E+03  0.00000000000E+00 0. -1.
<mgrwt>
<rscale>  0 0.19241111E+04</rscale>
<asrwt>0</asrwt>
<pdfrwt beam="1">  1        2 0.14121113E+00 0.19241111E+04</pdfrwt>
<pdfrwt beam="2">  1       -2 0.15513318E+00 0.19241111E+04</pdfrwt>
<totfact> 0.72997626E+00</totfact>
</mgrwt>
</event>
<event>
 6    1  0.1603085E-006  0.2101649E+04  0.7818608E-02  0.8560517E-01
         -2   -1    0    0    0  501 -0.00000000000E+00  0.00000000000E+00  0.95645081907E+03  0.95645081907E+03  0.00000000000E+00 0.  1.
          2   -1    0    0  501    0  0.00000000000E+00 -0.00000000000E+00 -0.11545099378E+04  0.11545099378E+04  0.00000000000E+00 0. -1.
         23    2    1    2    0    0  0.25891201621E+02  0.70121416512E+03 -0.88224204449E+03  0.11309209946E+04  0.90882402908E+02 0.  0.
         13    1    3    3    0    0 -0.35254017532E+01  0.50451416497E+03 -0.57547417894E+03  0.76532182887E+03  0.00000000000E+00 0.  1.
        -13    1    3    3    0    0  0.29416603374E+02  0.19670000015E+03 -0.30676786555E+03  0.36559916568E+03  0.00000000000E+00 0. -1.
         22    1    1    2    0    0 -0.25891201621E+02 -0.70121416512E+03  0.68418292581E+03  0.98003976228E+03  0.00000000000E+00 0.  1.
<mgrwt>
<rscale>  0 0.21016489E+04</rscale>
<asrwt>0</asrwt>
<pdfrwt beam="1">  1        2 0.17761691E+00 0.21016489E+04</pdfrwt>
<pdfrwt beam="2">  1       -2 0.14714628E+00 0.21016489E+04</pdfrwt>
<totfact> 0.58605413E+00</totfact>
</mgrwt>
</event>
<event>
 6    1  0.1603085E-006  0.1539228E+04  0.7818608E-02  0.8858778E-01
          2   -1    0    0  501    0  0.00000000000E+00  0.00000000000E+00  0.14535104293E+04  0.14535104293E+04  0.00000000000E+00 0. -1.
         -2   -1    0    0    0  501 -0.00000000000E+00 -0.00000000000E+00 -0.40749991633E+03  0.40749991633E+03  0.00000000000E+00 0.  1.
         23    2    1    2    0    0  0.33259441401E+03  0.62581734695E+03  0.87911730494E+03  0.11329171244E+04  0.91583725799E+02 0.  0.
         13    1    3    3    0    0  0.25957353178E+03  0.44332472324E+03  0.57777946451E+03  0.77313927481E+03  0.00000000000E+00 0. -1.
        -13    1    3    3    0    0  0.73020882238E+02  0.18249262370E+03  0.30133784043E+03  0.35977784955E+03  0.00000000000E+00 0.  1.
         22    1    1    2    0    0 -0.33259441401E+03 -0.62581734695E+03  0.16689320802E+03  0.72809322127E+03  0.00000000000E+00 0.  1.
<mgrwt>
<rscale>  0 0.15392276E+04</rscale>
<asrwt>0</asrwt>
<pdfrwt beam="1">  1        2 0.22361699E+00 0.15392276E+04</pdfrwt>
<pdfrwt beam="2">  1       -2 0.62692296E-01 0.15392276E+04</pdfrwt>
<totfact> 0.30650438E+01</totfact>
</mgrwt>
</event>
<event>
 6    1  0.1603085E-006  0.1172386E+04  0.7818608E-02  0.9137376E-01
         -2   -1    0    0    0  501 -0.00000000000E+00  0.00000000000E+00  0.24631934243E+03  0.24631934243E+03  0.00000000000E+00 0.  1.
          2   -1    0    0  501    0  0.00000000000E+00 -0.00000000000E+00 -0.13950274781E+04  0.13950274781E+04  0.00000000000E+00 0. -1.
         23    2    1    2    0    0 -0.29761900018E+03  0.15427037525E+03 -0.12450743424E+04  0.12925447796E+04  0.89919248363E+02 0.  0.
         13    1    3    3    0    0 -0.87101373101E+02  0.85217927006E+02 -0.53535452162E+03  0.54904754630E+03  0.00000000000E+00 0. -1.
        -13    1    3    3    0    0 -0.21051762708E+03  0.69052448249E+02 -0.70971982075E+03  0.74349723327E+03  0.00000000000E+00 0.  1.
         22    1    1    2    0    0  0.29761900018E+03 -0.15427037525E+03  0.96366206729E+02  0.34880204092E+03  0.00000000000E+00 0.  1.
<mgrwt>
<rscale>  0 0.11723860E+04</rscale>
<asrwt>0</asrwt>
<pdfrwt beam="1">  1        2 0.21461961E+00 0.11723860E+04</pdfrwt>
<pdfrwt beam="2">  1       -2 0.37895283E-01 0.11723860E+04</pdfrwt>
<totfact> 0.94560589E+01</totfact>
</mgrwt>
</event>
<event>
 6    1  0.1603085E-006  0.3448954E+04  0.7818608E-02  0.8125995E-01
          2   -1    0    0  501    0  0.00000000000E+00  0.00000000000E+00  0.11840208938E+04  0.11840208938E+04  0.00000000000E+00 0. -1.
         -2   -1    0    0    0  501 -0.00000000000E+00 -0.00000000000E+00 -0.25116282324E+04  0.25116282324E+04  0.00000000000E+00 0.  1.
         23    2    1    2    0    0 -0.15430840862E+04  0.38353076641E+03 -0.13762277214E+04  0.21048731245E+04  0.91015291368E+02 0.  0.
         11    1    3    3    0    0 -0.12876441057E+04  0.29061845658E+03 -0.11657349712E+04  0.17610861572E+04  0.00000000000E+00 0. -1.
        -11    1    3    3    0    0 -0.25543998057E+03  0.92912309826E+02 -0.21049275018E+03  0.34378696727E+03  0.00000000000E+00 0.  1.
         22    1    1    2    0    0  0.15430840862E+04 -0.38353076641E+03  0.48620382817E+02  0.15907760017E+04  0.00000000000E+00 0. -1.
<mgrwt>
<rscale>  0 0.34489536E+04</rscale>
<asrwt>0</asrwt>
<pdfrwt beam="1">  1        2 0.18215706E+00 0.34489536E+04</pdfrwt>
<pdfrwt beam="2">  1       -2 0.38640434E+00 0.34489536E+04</pdfrwt>
<totfact> 0.14530513E-01</totfact>
</mgrwt>
</event>
<event>
 6    1  0.1603085E-006  0.4357096E+04  0.7818608E-02  0.7936144E-01
         -1   -1    0    0    0  501 -0.00000000000E+00  0.00000000000E+00  0.24487124836E+04  0.24487124836E+04  0.00000000000E+00 0.  1.
          1   -1    0    0  501    0  0.00000000000E+00 -0.00000000000E+00 -0.19381901889E+04  0.19381901889E+04  0.00000000000E+00 0. -1.
         23    2    1    2    0    0 -0.56915164543E+03 -0.14729773786E+04 -0.12543954835E+04  0.20186690021E+04  0.88997516518E+02 0.  0.
         11    1    3    3    0    0 -0.53076415317E+03 -0.12981873878E+04 -0.11215719515E+04  0.17958075405E+04  0.00000000000E+00 0. -1.
        -11    1    3    3    0    0 -0.38387492257E+02 -0.17478999077E+03 -0.13282353202E+03  0.22286146166E+03  0.00000000000E+00 0.  1.
         22    1    1    2    0    0  0.56915164543E+03  0.14729773786E+04  0.17649177782E+04  0.23682336703E+04  0.00000000000E+00 0.  1.
<mgrwt>
<rscale>  0 0.43570956E+04</rscale>
<asrwt>0</asrwt>
<pdfrwt beam="1">  1        1 0.29818311E+00 0.43570956E+04</pdfrwt>
<pdfrwt beam="2">  1       -1 0.37672500E+00 0.43570956E+04</pdfrwt>
<totfact> 0.25680852E-02</totfact>
</mgrwt>
</event>
<event>
 6    1  0.1603085E-006  0.2697726E+04  0.7818608E-02  0.8335743E-01
          2   -1    0    0  501    0  0.00000000000E+00  0.00000000000E+00  0.19438773289E+04  0.19438773289E+04  0.00000000000E+00 0. -1.
         -2   -1    0    0    0  501 -0.00000000000E+00 -0.00000000000E+00 -0.93598030150E+03  0.93598030150E+03  0.00000000000E+00 0.  1.
         23    2    1    2    0    0 -0.81427054145E+03 -0.10599147249E+04  0.32343050946E+03  0.13782084860E+04  0.91627494501E+02 0.  0.
         11    1    3    3    0    0 -0.45074784812E+03 -0.58797505923E+03  0.22604160308E+03  0.77458575974E+03  0.00000000000E+00 0. -1.
        -11    1    3    3    0    0 -0.36352269333E+03 -0.47193966565E+03  0.97388906374E+02  0.60362272626E+03  0.00000000000E+00 0.  1.
         22    1    1    2    0    0  0.81427054145E+03  0.10599147249E+04  0.68446651796E+03  0.15016491444E+04  0.00000000000E+00 0. -1.
<mgrwt>
<rscale>  0 0.26977256E+04</rscale>
<asrwt>0</asrwt>
<pdfrwt beam="1">  1        2 0.29905805E+00 0.26977256E+04</pdfrwt>
<pdfrwt beam="2">  1       -2 0.14399697E+00 0.26977256E+04</pdfrwt>
<totfact> 0.21022824E+00</totfact>
</mgrwt>
</event>
<event>
 6    1  0.1603085E-006  0.2232396E+04  0.7818608E-02  0.8505064E-01
          2   -1    0    0  501    0  0.00000000000E+00  0.00000000000E+00  0.21996652107E+04  0.21996652107E+04  0.00000000000E+00 0. -1.
         -2   -1    0    0    0  501 -0.00000000000E+00 -0.00000000000E+00 -0.56640329657E+03  0.56640329657E+03  0.00000000000E+00 0.  1.
         23    2    1    2    0    0  0.54317617893E+03 -0.63537026836E+03 -0.95107193281E+02  0.84617384592E+03  0.90714166625E+02 0.  0.
         13    1    3    3    0    0  0.21019620081E+03 -0.23132923530E+03  0.74628036722E+01  0.31265212518E+03  0.00000000000E+00 0. -1.
        -13    1    3    3    0    0  0.33297997811E+03 -0.40404103306E+03 -0.10256999695E+03  0.53352172073E+03  0.00000000000E+00 0.  1.
         22    1    1    2    0    0 -0.54317617893E+03  0.63537026836E+03  0.17283691074E+04  0.19198946614E+04  0.00000000000E+00 0. -1.
<mgrwt>
<rscale>  0 0.22323957E+04</rscale>
<asrwt>0</asrwt>
<pdfrwt beam="1">  1        2 0.33841003E+00 0.22323957E+04</pdfrwt>
<pdfrwt beam="2">  1       -2 0.87138970E-01 0.22323957E+04</pdfrwt>
<totfact> 0.53604045E+00</totfact>
</mgrwt>
</event>
<event>
 6    1  0.1603085E-006  0.8769838E+03  0.7818608E-02  0.9454819E-01
         -1   -1    0    0    0  501 -0.00000000000E+00  0.00000000000E+00  0.16434328552E+03  0.16434328552E+03  0.00000000000E+00 0.  1.
          1   -1    0    0  501    0  0.00000000000E+00 -0.00000000000E+00 -0.11699603924E+04  0.11699603924E+04  0.00000000000E+00 0. -1.
         23    2    1    2    0    0 -0.34912328358E+02 -0.42679853691E+03 -0.40187419780E+03  0.59411359285E+03  0.89956815041E+02 0.  0.
         13    1    3    3    0    0 -0.44307197447E+02 -0.18845397166E+03 -0.13407328011E+03  0.23548603275E+03  0.00000000000E+00 0. -1.
        -13    1    3    3    0    0  0.93948690888E+01 -0.23834456525E+03 -0.26780091769E+03  0.35862756010E+03  0.00000000000E+00 0.  1.
         22    1    1    2    0    0  0.34912328358E+02  0.42679853691E+03 -0.60374290905E+03  0.74019008505E+03  0.00000000000E+00 0.  1.
<mgrwt>
<rscale>  0 0.87698377E+03</rscale>
<asrwt>0</asrwt>
<pdfrwt beam="1">  1        1 0.17999390E+00 0.87698377E+03</pdfrwt>
<pdfrwt beam="2">  1       -1 0.25283583E-01 0.87698377E+03</pdfrwt>
<totfact> 0.15562425E+02</totfact>
</mgrwt>
</event>
<event>
 6    1  0.1603085E-006  0.8993868E+03  0.7818608E-02  0.9426348E-01
          2   -1    0    0  501    0  0.00000000000E+00  0.00000000000E+00  0.46848962913E+03  0.46848962913E+03  0.00000000000E+00 0. -1.
         -2   -1    0    0    0  501 -0.00000000000E+00 -0.00000000000E+00 -0.43165131275E+03  0.43165131275E+03  0.00000000000E+00 0.  1.
         23    2    1    2    0    0  0.25466315964E+03  0.17724956231E+02 -0.34630639285E+03  0.43974180291E+03  0.90979319372E+02 0.  0.
         13    1    3    3    0    0  0.14836740622E+03  0.35993089263E+02 -0.26040454785E+03  0.30185910330E+03  0.00000000000E+00 0.  1.
        -13    1    3    3    0    0  0.10629575342E+03 -0.18268133032E+02 -0.85901844993E+02  0.13788269961E+03  0.00000000000E+00 0. -1.
         22    1    1    2    0    0 -0.25466315964E+03 -0.17724956231E+02  0.38314470922E+03  0.46039913896E+03  0.00000000000E+00 0. -1.
<mgrwt>
<rscale>  0 0.89938682E+03</rscale>
<asrwt>0</asrwt>
<pdfrwt beam="1">  1        2 0.72075328E-01 0.89938682E+03</pdfrwt>
<pdfrwt beam="2">  1       -2 0.66407894E-01 0.89938682E+03</pdfrwt>
<totfact> 0.13898027E+02</totfact>
</mgrwt>
</event>
<event>
 6    1  0.1603085E-006  0.1968469E+04  0.7818608E-02  0.8621506E-01
         -2   -1    0    0    0  501 -0.00000000000E+00  0.00000000000E+00  0.32475157679E+03  0.32475157679E+03  0.00000000000E+00 0.  1.
          2   -1    0    0  501    0  0.00000000000E+00 -0.00000000000E+00 -0.29829489220E+04  0.29829489220E+04  0.00000000000E+00 0. -1.
         23    2    1    2    0    0 -0.55163044695E+02 -0.86394303262E+03 -0.55263254173E+03  0.10311145314E+04  0.91399812089E+02 0.  0.
         13    1    3    3    0    0 -0.59025297136E+02 -0.75516563811E+03 -0.51493987957E+03  0.91592696557E+03  0.00000000000E+00 0. -1.
        -13    1    3    3    0    0  0.38622524411E+01 -0.10877739451E+03 -0.37692662163E+02  0.11518756587E+03  0.00000000000E+00 0.  1.
         22    1    1    2    0    0  0.55163044695E+02  0.86394303262E+03 -0.21055648034E+04  0.22765859673E+04  0.00000000000E+00 0. -1.
<mgrwt>
<rscale>  0 0.19684688E+04</rscale>
<asrwt>0</asrwt>
<pdfrwt beam="1">  1        2 0.45891523E+00 0.19684688E+04</pdfrwt>
<pdfrwt beam="2">  1       -2 0.49961780E-01 0.19684688E+04</pdfrwt>
<totfact> 0.63156055E+00</totfact>
</mgrwt>
</event>
<event>
 6    1  0.1859366E-006  0.2385209E+04  0.7818608E-02  0.8445062E-01
         -1   -1    0    0    0  501 -0.00000000000E+00  0.00000000000E+00  0.91376930207E+03  0.91376930207E+03  0.00000000000E+00 0.  1.
          1   -1    0    0  501    0  0.00000000000E+00 -0.00000000000E+00 -0.15565256533E+04  0.15565256533E+04  0.00000000000E+00 0. -1.
         23    2    1    2    0    0  0.76511599230E+02 -0.44931269086E+03 -0.14613977385E+04  0.15333266315E+04  0.87585899322E+02 0.  0.
         11    1    3    3    0    0 -0.96353085787E+01 -0.18154625344E+03 -0.52444438568E+03  0.55506197400E+03  0.00000000000E+00 0.  1.
        -11    1    3    3    0    0  0.86146907809E+02 -0.26776643742E+03 -0.93695335284E+03  0.97826465751E+03  0.00000000000E+00 0. -1.
         22    1    1    2    0    0 -0.76511599230E+02  0.44931269086E+03  0.81864138728E+03  0.93696832387E+03  0.00000000000E+00 0.  1.
<mgrwt>
<rscale>  0 0.23852089E+04</rscale>
<asrwt>0</asrwt>
<pdfrwt beam="1">  1        1 0.23946548E+00 0.23852089E+04</pdfrwt>
<pdfrwt beam="2">  1       -1 0.14057990E+00 0.23852089E+04</pdfrwt>
<totfact> 0.22242352E+00</totfact>
</mgrwt>
</event>
<event>
 6    1  0.1603085E-006  0.3451498E+04  0.7818608E-02  0.8125382E-01
          2   -1    0    0  501    0  0.00000000000E+00  0.00000000000E+00  0.35594714717E+04  0.35594714717E+04  0.00000000000E+00 0. -1.
         -2   -1    0    0    0  501 -0.00000000000E+00 -0.00000000000E+00 -0.83669973600E+03  0.83669973600E+03  0.00000000000E+00 0.  1.
         23    2    1    2    0    0 -0.27940315692E+03  0.15284682600E+04  0.40935712851E+03  0.16093865927E+04  0.90942840125E+02 0.  0.
         11    1    3    3    0    0 -0.23283887479E+03  0.12494320578E+04  0.29834487850E+03  0.13054899751E+04  0.00000000000E+00 0. -1.
        -11    1    3    3    0    0 -0.46564282129E+02  0.27903620220E+03  0.11101225002E+03  0.30389661755E+03  0.00000000000E+00 0.  1.
         22    1    1    2    0    0  0.27940315692E+03 -0.15284682600E+04  0.23134146072E+04  0.27867846150E+04  0.00000000000E+00 0. -1.
<mgrwt>
<rscale>  0 0.34514976E+04</rscale>
<asrwt>0</asrwt>
<pdfrwt beam="1">  1        2 0.54761099E+00 0.34514976E+04</pdfrwt>
<pdfrwt beam="2">  1       -2 0.12872304E+00 0.34514976E+04</pdfrwt>
<totfact> 0.27067039E-01</totfact>
</mgrwt>
</event>
<event>
 6    1  0.1603085E-006  0.2106474E+04  0.7818608E-02  0.8558397E-01
          2   -1    0    0  501    0  0.00000000000E+00  0.00000000000E+00  0.14588040186E+04  0.14588040186E+04  0.00000000000E+00 0. -1.
         -2   -1    0    0    0  501 -0.00000000000E+00 -0.00000000000E+00 -0.76042302268E+03  0.76042302268E+03  0.00000000000E+00 0.  1.
         23    2    1    2    0    0  0.12961087836E+03 -0.32118068345E+03  0.13956233082E+04  0.14407009639E+04  0.88875405290E+02 0.  0.
         11    1    3    3    0    0  0.97431116139E+02 -0.23783482152E+03  0.11728273060E+04  0.12006590333E+04  0.00000000000E+00 0.  1.
        -11    1    3    3    0    0  0.32179762221E+02 -0.83345861927E+02  0.22279600226E+03  0.24004193055E+03  0.00000000000E+00 0. -1.
         22    1    1    2    0    0 -0.12961087836E+03  0.32118068345E+03 -0.69724231228E+03  0.77852607743E+03  0.00000000000E+00 0.  1.
<mgrwt>
<rscale>  0 0.21064740E+04</rscale>
<asrwt>0</asrwt>
<pdfrwt beam="1">  1        2 0.22443139E+00 0.21064740E+04</pdfrwt>
<pdfrwt beam="2">  1       -2 0.11698816E+00 0.21064740E+04</pdfrwt>
<totfact> 0.69770225E+00</totfact>
</mgrwt>
</event>
<event>
 6    1  0.1603085E-006  0.3312412E+04  0.7818608E-02  0.8159744E-01
          1   -1    0    0  501    0  0.00000000000E+00  0.00000000000E+00  0.16770603166E+04  0.16770603166E+04  0.00000000000E+00 0. -1.
         -1   -1    0    0    0  501 -0.00000000000E+00 -0.00000000000E+00 -0.16356107197E+04  0.16356107197E+04  0.00000000000E+00 0.  1.
         23    2    1    2    0    0 -0.15299751145E+04  0.21145056680E+02 -0.60983610013E+03  0.16497086124E+04  0.91473889630E+02 0.  0.
         11    1    3    3    0    0 -0.61679250035E+03  0.53099835006E+02 -0.24063914460E+03  0.66419859897E+03  0.00000000000E+00 0.  1.
        -11    1    3    3    0    0 -0.91318261410E+03 -0.31954778325E+02 -0.36919695553E+03  0.98551001341E+03  0.00000000000E+00 0. -1.
         22    1    1    2    0    0  0.15299751145E+04 -0.21145056680E+02  0.65128569700E+03  0.16629624239E+04  0.00000000000E+00 0. -1.
<mgrwt>
<rscale>  0 0.33124117E+04</rscale>
<asrwt>0</asrwt>
<pdfrwt beam="1">  1        1 0.25800928E+00 0.33124117E+04</pdfrwt>
<pdfrwt beam="2">  1       -1 0.25163242E+00 0.33124117E+04</pdfrwt>
<totfact> 0.27857910E-01</totfact>
</mgrwt>
</event>
<event>
 6    1  0.1603085E-006  0.3008640E+04  0.7818608E-02  0.8241268E-01
         -1   -1    0    0    0  501 -0.00000000000E+00  0.00000000000E+00  0.14791781496E+04  0.14791781496E+04  0.00000000000E+00 0. -1.
          1   -1    0    0  501    0  0.00000000000E+00 -0.00000000000E+00 -0.15298891553E+04  0.15298891553E+04  0.00000000000E+00 0.  1.
         23    2    1    2    0    0  0.96165288310E+03 -0.71617481949E+03 -0.93168097774E+03  0.15211860156E+04  0.91075848091E+02 0.  0.
         13    1    3    3    0    0  0.82161236543E+03 -0.62520390900E+03 -0.76263175604E+03  0.12835630106E+04  0.00000000000E+00 0. -1.
        -13    1    3    3    0    0  0.14004051768E+03 -0.90970910486E+02 -0.16904922170E+03  0.23762300500E+03  0.00000000000E+00 0.  1.
         22    1    1    2    0    0 -0.96165288310E+03  0.71617481949E+03  0.88096997202E+03  0.14878812894E+04  0.00000000000E+00 0. -1.
<mgrwt>
<rscale>  0 0.30086400E+04</rscale>
<asrwt>0</asrwt>
<pdfrwt beam="1">  1        1 0.23536756E+00 0.30086400E+04</pdfrwt>
<pdfrwt beam="2">  1       -1 0.22756587E+00 0.30086400E+04</pdfrwt>
<totfact> 0.51968118E-01</totfact>
</mgrwt>
</event>
<event>
 6    1  0.1603085E-006  0.1818970E+04  0.7818608E-02  0.8696276E-01
          1   -1    0    0  501    0  0.00000000000E+00  0.00000000000E+00  0.21829876009E+04  0.21829876009E+04  0.00000000000E+00 0. -1.
         -1   -1    0    0    0  501 -0.00000000000E+00 -0.00000000000E+00 -0.37891318394E+03  0.37891318394E+03  0.00000000000E+00 0.  1.
         23    2    1    2    0    0  0.83769575466E+02  0.63721295653E+03  0.18060004040E+04  0.19192022527E+04  0.92963078304E+02 0.  0.
         11    1    3    3    0    0  0.17370309937E+02  0.41255390690E+03  0.12264408839E+04  0.12940864328E+04  0.00000000000E+00 0.  1.
        -11    1    3    3    0    0  0.66399265529E+02  0.22465904963E+03  0.57955952010E+03  0.62511581998E+03  0.00000000000E+00 0. -1.
         22    1    1    2    0    0 -0.83769575466E+02 -0.63721295653E+03 -0.19259870401E+01  0.64269853211E+03  0.00000000000E+00 0.  1.
<mgrwt>
<rscale>  0 0.18189698E+04</rscale>
<asrwt>0</asrwt>
<pdfrwt beam="1">  1        1 0.33584424E+00 0.18189698E+04</pdfrwt>
<pdfrwt beam="2">  1       -1 0.58294337E-01 0.18189698E+04</pdfrwt>
<totfact> 0.62873121E+00</totfact>
</mgrwt>
</event>
<event>
 6    1  0.1603085E-006  0.3586345E+04  0.7818608E-02  0.8093627E-01
          3   -1    0    0  501    0  0.00000000000E+00  0.00000000000E+00  0.40739891008E+04  0.40739891008E+04  0.00000000000E+00 0. -1.
         -3   -1    0    0    0  501 -0.00000000000E+00 -0.00000000000E+00 -0.78926781507E+03  0.78926781507E+03  0.00000000000E+00 0.  1.
         23    2    1    2    0    0 -0.15199365823E+04  0.57651482495E+03  0.26637799219E+04  0.31231003899E+04  0.12432222593E+03 0.  0.
         13    1    3    3    0    0 -0.93661961614E+03  0.34910357471E+03  0.17515072364E+04  0.20166574351E+04  0.00000000000E+00 0.  1.
        -13    1    3    3    0    0 -0.58331696611E+03  0.22741125024E+03  0.91227268544E+03  0.11064429548E+04  0.00000000000E+00 0. -1.
         22    1    1    2    0    0  0.15199365823E+04 -0.57651482495E+03  0.62094136384E+03  0.17401565259E+04  0.00000000000E+00 0.  1.
<mgrwt>
<rscale>  0 0.35863455E+04</rscale>
<asrwt>0</asrwt>
<pdfrwt beam="1">  1        3 0.62676754E+00 0.35863455E+04</pdfrwt>
<pdfrwt beam="2">  1       -3 0.12142582E+00 0.35863455E+04</pdfrwt>
<totfact> 0.96209651E-04</totfact>
</mgrwt>
</event>
<event>
 6    1  0.1603085E-006  0.1794167E+04  0.7818608E-02  0.8709407E-01
          1   -1    0    0  501    0  0.00000000000E+00  0.00000000000E+00  0.66736267879E+03  0.66736267879E+03  0.00000000000E+00 0. -1.
         -1   -1    0    0    0  501 -0.00000000000E+00 -0.00000000000E+00 -0.12058794316E+04  0.12058794316E+04  0.00000000000E+00 0.  1.
         23    2    1    2    0    0 -0.71701255914E+03  0.33658994269E+03 -0.70431022442E+03  0.10639910525E+04  0.92866937707E+02 0.  0.
         13    1    3    3    0    0 -0.22970397192E+03  0.15091933452E+03 -0.21586491084E+03  0.34948278925E+03  0.00000000000E+00 0. -1.
        -13    1    3    3    0    0 -0.48730858722E+03  0.18567060817E+03 -0.48844531358E+03  0.71450826327E+03  0.00000000000E+00 0.  1.
         22    1    1    2    0    0  0.71701255914E+03 -0.33658994269E+03  0.16579347159E+03  0.80925105790E+03  0.00000000000E+00 0. -1.
<mgrwt>
<rscale>  0 0.17941671E+04</rscale>
<asrwt>0</asrwt>
<pdfrwt beam="1">  1        1 0.10267118E+00 0.17941671E+04</pdfrwt>
<pdfrwt beam="2">  1       -1 0.18551991E+00 0.17941671E+04</pdfrwt>
<totfact> 0.52531470E+00</totfact>
</mgrwt>
</event>
<event>
 6    1  0.1649019E-006  0.2695239E+04  0.7818608E-02  0.8336551E-01
         -1   -1    0    0    0  501 -0.00000000000E+00  0.00000000000E+00  0.81415574482E+03  0.81415574482E+03  0.00000000000E+00 0.  1.
          1   -1    0    0  501    0  0.00000000000E+00 -0.00000000000E+00 -0.22306277434E+04  0.22306277434E+04  0.00000000000E+00 0. -1.
         23    2    1    2    0    0  0.65513790665E+03  0.30873508487E+03 -0.19908575870E+04  0.21204232589E+04  0.90320738652E+02 0.  0.
         13    1    3    3    0    0  0.33530918622E+03  0.15908493690E+03 -0.88869062250E+03  0.96307387568E+03  0.00000000000E+00 0.  1.
        -13    1    3    3    0    0  0.31982872043E+03  0.14965014797E+03 -0.11021669645E+04  0.11573493832E+04  0.00000000000E+00 0. -1.
         22    1    1    2    0    0 -0.65513790665E+03 -0.30873508487E+03  0.57438558842E+03  0.92436022932E+03  0.00000000000E+00 0.  1.
<mgrwt>
<rscale>  0 0.26952391E+04</rscale>
<asrwt>0</asrwt>
<pdfrwt beam="1">  1        1 0.34317350E+00 0.26952391E+04</pdfrwt>
<pdfrwt beam="2">  1       -1 0.12525473E+00 0.26952391E+04</pdfrwt>
<totfact> 0.10094714E+00</totfact>
</mgrwt>
</event>
<event>
 6    1  0.1643263E-006  0.2192707E+04  0.7818608E-02  0.8521470E-01
          2   -1    0    0  501    0  0.00000000000E+00  0.00000000000E+00  0.12904704960E+04  0.12904704960E+04  0.00000000000E+00 0. -1.
         -2   -1    0    0    0  501 -0.00000000000E+00 -0.00000000000E+00 -0.93143647972E+03  0.93143647972E+03  0.00000000000E+00 0.  1.
         23    2    1    2    0    0 -0.47177336225E+03  0.94255344943E+03 -0.11891083001E+03  0.10645788518E+04  0.90615869090E+02 0.  0.
         13    1    3    3    0    0 -0.23183830337E+03  0.55250908617E+03 -0.87953272321E+02  0.60559975835E+03  0.00000000000E+00 0.  1.
        -13    1    3    3    0    0 -0.23993505889E+03  0.39004436327E+03 -0.30957557693E+02  0.45897909340E+03  0.00000000000E+00 0. -1.
         22    1    1    2    0    0  0.47177336225E+03 -0.94255344943E+03  0.47794484626E+03  0.11573281239E+04  0.00000000000E+00 0.  1.
<mgrwt>
<rscale>  0 0.21927073E+04</rscale>
<asrwt>0</asrwt>
<pdfrwt beam="1">  1        2 0.19853392E+00 0.21927073E+04</pdfrwt>
<pdfrwt beam="2">  1       -2 0.14329792E+00 0.21927073E+04</pdfrwt>
<totfact> 0.51768699E+00</totfact>
</mgrwt>
</event>
<event>
 6    1  0.1603085E-006  0.9242182E+03  0.7818608E-02  0.9395804E-01
          1   -1    0    0  501    0  0.00000000000E+00  0.00000000000E+00  0.13558307917E+04  0.13558307917E+04  0.00000000000E+00 0. -1.
         -1   -1    0    0    0  501 -0.00000000000E+00 -0.00000000000E+00 -0.15750107400E+03  0.15750107400E+03  0.00000000000E+00 0.  1.
         23    2    1    2    0    0 -0.16214641683E+02 -0.35204434045E+03  0.12698982481E+03  0.38551658901E+03  0.91096062222E+02 0.  0.
         11    1    3    3    0    0 -0.28614068947E+02 -0.69045457061E+02 -0.82739789441E+00  0.74744395574E+02  0.00000000000E+00 0. -1.
        -11    1    3    3    0    0  0.12399427264E+02 -0.28299888339E+03  0.12781722270E+03  0.31077219344E+03  0.00000000000E+00 0.  1.
         22    1    1    2    0    0  0.16214641683E+02  0.35204434045E+03  0.10713398929E+04  0.11278152767E+04  0.00000000000E+00 0. -1.
<mgrwt>
<rscale>  0 0.92421817E+03</rscale>
<asrwt>0</asrwt>
<pdfrwt beam="1">  1        1 0.20858934E+00 0.92421817E+03</pdfrwt>
<pdfrwt beam="2">  1       -1 0.24230935E-01 0.92421817E+03</pdfrwt>
<totfact> 0.12274155E+02</totfact>
</mgrwt>
</event>
<event>
 6    1  0.1603085E-006  0.3026359E+04  0.7818608E-02  0.8236244E-01
          1   -1    0    0  501    0  0.00000000000E+00  0.00000000000E+00  0.21410410411E+04  0.21410410411E+04  0.00000000000E+00 0.  1.
         -1   -1    0    0    0  501 -0.00000000000E+00 -0.00000000000E+00 -0.10694384125E+04  0.10694384125E+04  0.00000000000E+00 0. -1.
         23    2    1    2    0    0 -0.13388364467E+04 -0.69674528641E+03  0.63288326197E+03  0.16387251128E+04  0.83317145509E+02 0.  0.
         13    1    3    3    0    0 -0.59178993959E+03 -0.30489694169E+03  0.23451236906E+03  0.70581408948E+03  0.00000000000E+00 0.  1.
        -13    1    3    3    0    0 -0.74704650712E+03 -0.39184834472E+03  0.39837089290E+03  0.93291102329E+03  0.00000000000E+00 0. -1.
         22    1    1    2    0    0  0.13388364467E+04  0.69674528641E+03  0.43871936661E+03  0.15717543408E+04  0.00000000000E+00 0. -1.
<mgrwt>
<rscale>  0 0.30263586E+04</rscale>
<asrwt>0</asrwt>
<pdfrwt beam="1">  1        1 0.32939093E+00 0.30263586E+04</pdfrwt>
<pdfrwt beam="2">  1       -1 0.16452899E+00 0.30263586E+04</pdfrwt>
<totfact> 0.54817766E-01</totfact>
</mgrwt>
</event>
<event>
 6    1  0.1603085E-006  0.2875974E+04  0.7818608E-02  0.8280062E-01
          2   -1    0    0  501    0  0.00000000000E+00  0.00000000000E+00  0.26607885334E+04  0.26607885334E+04  0.00000000000E+00 0. -1.
         -2   -1    0    0    0  501 -0.00000000000E+00 -0.00000000000E+00 -0.77714075939E+03  0.77714075939E+03  0.00000000000E+00 0.  1.
         23    2    1    2    0    0  0.97215865671E+03  0.90018890196E+03  0.27922053417E+03  0.13571555711E+04  0.92057723121E+02 0.  0.
         11    1    3    3    0    0  0.51460089272E+03  0.52690861556E+03  0.18246296856E+03  0.75877500146E+03  0.00000000000E+00 0. -1.
        -11    1    3    3    0    0  0.45755776399E+03  0.37328028640E+03  0.96757565616E+02  0.59838056963E+03  0.00000000000E+00 0.  1.
         22    1    1    2    0    0 -0.97215865671E+03 -0.90018890196E+03  0.16044272399E+04  0.20807737217E+04  0.00000000000E+00 0. -1.
<mgrwt>
<rscale>  0 0.28759744E+04</rscale>
<asrwt>0</asrwt>
<pdfrwt beam="1">  1        2 0.40935208E+00 0.28759744E+04</pdfrwt>
<pdfrwt beam="2">  1       -2 0.11956012E+00 0.28759744E+04</pdfrwt>
<totfact> 0.12980072E+00</totfact>
</mgrwt>
</event>
<event>
 6    1  0.1603085E-006  0.1636218E+04  0.7818608E-02  0.8798602E-01
          2   -1    0    0  501    0  0.00000000000E+00  0.00000000000E+00  0.15921217758E+04  0.15921217758E+04  0.00000000000E+00 0. -1.
         -2   -1    0    0    0  501 -0.00000000000E+00 -0.00000000000E+00 -0.42038378727E+03  0.42038378727E+03  0.00000000000E+00 0.  1.
         23    2    1    2    0    0 -0.55084654933E+03 -0.32711021816E+02  0.13263035053E+04  0.14394502159E+04  0.91836833434E+02 0.  0.
         13    1    3    3    0    0 -0.30527594033E+03 -0.36880728037E+02  0.84278550601E+03  0.89712930895E+03  0.00000000000E+00 0. -1.
        -13    1    3    3    0    0 -0.24557060900E+03  0.41697062208E+01  0.48351799933E+03  0.54232090697E+03  0.00000000000E+00 0.  1.
         22    1    1    2    0    0  0.55084654933E+03  0.32711021816E+02 -0.15456551685E+03  0.57305534712E+03  0.00000000000E+00 0.  1.
<mgrwt>
<rscale>  0 0.16362178E+04</rscale>
<asrwt>0</asrwt>
<pdfrwt beam="1">  1        2 0.24494181E+00 0.16362178E+04</pdfrwt>
<pdfrwt beam="2">  1       -2 0.64674430E-01 0.16362178E+04</pdfrwt>
<totfact> 0.23772245E+01</totfact>
</mgrwt>
</event>
<event>
 6    1  0.1603085E-006  0.1983337E+04  0.7818608E-02  0.8614451E-01
         -1   -1    0    0    0  501 -0.00000000000E+00  0.00000000000E+00  0.58732093065E+03  0.58732093065E+03  0.00000000000E+00 0.  1.
          1   -1    0    0  501    0  0.00000000000E+00 -0.00000000000E+00 -0.16743928847E+04  0.16743928847E+04  0.00000000000E+00 0. -1.
         23    2    1    2    0    0  0.83815393758E+02 -0.64603455038E+03  0.30514831651E+03  0.72461819624E+03  0.87007900467E+02 0.  0.
         11    1    3    3    0    0  0.58289207084E+02 -0.19417875348E+03  0.69157796214E+02  0.21420975875E+03  0.00000000000E+00 0. -1.
        -11    1    3    3    0    0  0.25526186674E+02 -0.45185579690E+03  0.23599052029E+03  0.51040843749E+03  0.00000000000E+00 0.  1.
         22    1    1    2    0    0 -0.83815393758E+02  0.64603455038E+03 -0.13922202705E+04  0.15370956191E+04  0.00000000000E+00 0. -1.
<mgrwt>
<rscale>  0 0.19833366E+04</rscale>
<asrwt>0</asrwt>
<pdfrwt beam="1">  1        1 0.25759890E+00 0.19833366E+04</pdfrwt>
<pdfrwt beam="2">  1       -1 0.90357069E-01 0.19833366E+04</pdfrwt>
<totfact> 0.55189653E+00</totfact>
</mgrwt>
</event>
<event>
 6    1  0.1603085E-006  0.5392078E+04  0.7818608E-02  0.7770716E-01
          2   -1    0    0  501    0  0.00000000000E+00  0.00000000000E+00  0.25439168089E+04  0.25439168089E+04  0.00000000000E+00 0. -1.
         -2   -1    0    0    0  501 -0.00000000000E+00 -0.00000000000E+00 -0.28572574016E+04  0.28572574016E+04  0.00000000000E+00 0.  1.
         23    2    1    2    0    0 -0.18812470393E+03 -0.11285496925E+04 -0.26012143702E+04  0.28431707441E+04  0.91040470817E+02 0.  0.
         11    1    3    3    0    0 -0.66483230998E+02 -0.40490032923E+03 -0.10433602763E+04  0.11211444879E+04  0.00000000000E+00 0.  1.
        -11    1    3    3    0    0 -0.12164147293E+03 -0.72364936327E+03 -0.15578540940E+04  0.17220262562E+04  0.00000000000E+00 0. -1.
         22    1    1    2    0    0  0.18812470393E+03  0.11285496925E+04  0.22878737775E+04  0.25580034665E+04  0.00000000000E+00 0. -1.
<mgrwt>
<rscale>  0 0.53920776E+04</rscale>
<asrwt>0</asrwt>
<pdfrwt beam="1">  1        2 0.39137182E+00 0.53920776E+04</pdfrwt>
<pdfrwt beam="2">  1       -2 0.43957806E+00 0.53920776E+04</pdfrwt>
<totfact> 0.94523458E-03</totfact>
</mgrwt>
</event>
<event>
 6    1  0.1603085E-006  0.2039597E+04  0.7818608E-02  0.8588328E-01
          1   -1    0    0  501    0  0.00000000000E+00  0.00000000000E+00  0.30166351063E+04  0.30166351063E+04  0.00000000000E+00 0. -1.
         -1   -1    0    0    0  501 -0.00000000000E+00 -0.00000000000E+00 -0.34475143148E+03  0.34475143148E+03  0.00000000000E+00 0.  1.
         23    2    1    2    0    0 -0.68423950878E+03  0.74332047910E+03  0.15407920855E+04  0.18447859894E+04  0.92119790611E+02 0.  0.
         13    1    3    3    0    0 -0.53685873356E+03  0.63492830196E+03  0.12711340648E+04  0.15189249682E+04  0.00000000000E+00 0.  1.
        -13    1    3    3    0    0 -0.14738077523E+03  0.10839217714E+03  0.26965802070E+03  0.32586102114E+03  0.00000000000E+00 0. -1.
         22    1    1    2    0    0  0.68423950878E+03 -0.74332047910E+03  0.11310915894E+04  0.15166005485E+04  0.00000000000E+00 0.  1.
<mgrwt>
<rscale>  0 0.20395973E+04</rscale>
<asrwt>0</asrwt>
<pdfrwt beam="1">  1        1 0.46409769E+00 0.20395973E+04</pdfrwt>
<pdfrwt beam="2">  1       -1 0.53038684E-01 0.20395973E+04</pdfrwt>
<totfact> 0.19294698E+00</totfact>
</mgrwt>
</event>
<event>
 6    1  0.1603085E-006  0.3842930E+04  0.7818608E-02  0.8037004E-01
         -1   -1    0    0    0  501 -0.00000000000E+00  0.00000000000E+00  0.15977481369E+04  0.15977481369E+04  0.00000000000E+00 0.  1.
          1   -1    0    0  501    0  0.00000000000E+00 -0.00000000000E+00 -0.23107700867E+04  0.23107700867E+04  0.00000000000E+00 0. -1.
         23    2    1    2    0    0  0.18949984259E+04  0.18934572995E+03 -0.60803008798E+03  0.20011917883E+04  0.90538093221E+02 0.  0.
         13    1    3    3    0    0  0.47652268383E+03  0.84637255805E+02 -0.13976452619E+03  0.50375733847E+03  0.00000000000E+00 0. -1.
        -13    1    3    3    0    0  0.14184757420E+04  0.10470847414E+03 -0.46826556179E+03  0.14974344499E+04  0.00000000000E+00 0.  1.
         22    1    1    2    0    0 -0.18949984259E+04 -0.18934572995E+03 -0.10499186179E+03  0.19073264352E+04  0.00000000000E+00 0.  1.
<mgrwt>
<rscale>  0 0.38429304E+04</rscale>
<asrwt>0</asrwt>
<pdfrwt beam="1">  1        1 0.35550309E+00 0.38429304E+04</pdfrwt>
<pdfrwt beam="2">  1       -1 0.24580741E+00 0.38429304E+04</pdfrwt>
<totfact> 0.10774331E-01</totfact>
</mgrwt>
</event>
<event>
 6    1  0.1603085E-006  0.7934083E+04  0.7818608E-02  0.7488093E-01
          1   -1    0    0  501    0  0.00000000000E+00  0.00000000000E+00  0.32652525819E+04  0.32652525819E+04  0.00000000000E+00 0. -1.
         -1   -1    0    0    0  501 -0.00000000000E+00 -0.00000000000E+00 -0.48196638224E+04  0.48196638224E+04  0.00000000000E+00 0.  1.
         23    2    1    2    0    0 -0.58897392239E+03  0.23584022064E+04  0.24166881511E+04  0.34288900270E+04  0.89184915927E+02 0.  0.
         13    1    3    3    0    0 -0.19478708694E+03  0.64544067295E+03  0.63772748070E+03  0.92802586773E+03  0.00000000000E+00 0. -1.
        -13    1    3    3    0    0 -0.39418683544E+03  0.17129615334E+04  0.17789606704E+04  0.25008641592E+04  0.00000000000E+00 0.  1.
         22    1    1    2    0    0  0.58897392239E+03 -0.23584022064E+04 -0.39710993916E+04  0.46560263774E+04  0.00000000000E+00 0.  1.
<mgrwt>
<rscale>  0 0.79340834E+04</rscale>
<asrwt>0</asrwt>
<pdfrwt beam="1">  1        1 0.50234655E+00 0.79340834E+04</pdfrwt>
<pdfrwt beam="2">  1       -1 0.74148674E+00 0.79340834E+04</pdfrwt>
<totfact> 0.31236741E-05</totfact>
</mgrwt>
</event>
<event>
 6    1  0.1603085E-006  0.2709049E+04  0.7818608E-02  0.8332075E-01
          2   -1    0    0  501    0  0.00000000000E+00  0.00000000000E+00  0.14785336197E+04  0.14785336197E+04  0.00000000000E+00 0. -1.
         -2   -1    0    0    0  501 -0.00000000000E+00 -0.00000000000E+00 -0.12409168141E+04  0.12409168141E+04  0.00000000000E+00 0.  1.
         23    2    1    2    0    0  0.33369940722E+03 -0.25230981399E+03  0.14106390798E+04  0.14740602169E+04  0.89080711544E+02 0.  0.
         13    1    3    3    0    0  0.30229959568E+03 -0.18854296301E+03  0.11523041382E+04  0.12061253340E+04  0.00000000000E+00 0. -1.
        -13    1    3    3    0    0  0.31399811542E+02 -0.63766850983E+02  0.25833494159E+03  0.26793488294E+03  0.00000000000E+00 0.  1.
         22    1    1    2    0    0 -0.33369940722E+03  0.25230981399E+03 -0.11730222742E+04  0.12453902169E+04  0.00000000000E+00 0.  1.
<mgrwt>
<rscale>  0 0.27090494E+04</rscale>
<asrwt>0</asrwt>
<pdfrwt beam="1">  1        2 0.22746671E+00 0.27090494E+04</pdfrwt>
<pdfrwt beam="2">  1       -2 0.19091028E+00 0.27090494E+04</pdfrwt>
<totfact> 0.17492323E+00</totfact>
</mgrwt>
</event>
<event>
 6    1  0.1603085E-006  0.3188436E+04  0.7818608E-02  0.8191878E-01
          1   -1    0    0  501    0  0.00000000000E+00  0.00000000000E+00  0.16565597726E+04  0.16565597726E+04  0.00000000000E+00 0. -1.
         -1   -1    0    0    0  501 -0.00000000000E+00 -0.00000000000E+00 -0.15342228320E+04  0.15342228320E+04  0.00000000000E+00 0.  1.
         23    2    1    2    0    0  0.86187086379E+03 -0.11650687306E+04  0.72290903917E+03  0.16220591177E+04  0.90949269579E+02 0.  0.
         13    1    3    3    0    0  0.71910293319E+03 -0.10031009745E+04  0.64435244954E+03  0.13923040877E+04  0.00000000000E+00 0.  1.
        -13    1    3    3    0    0  0.14276793060E+03 -0.16196775610E+03  0.78556589629E+02  0.22975502997E+03  0.00000000000E+00 0. -1.
         22    1    1    2    0    0 -0.86187086379E+03  0.11650687306E+04 -0.60057209854E+03  0.15687234869E+04  0.00000000000E+00 0.  1.
<mgrwt>
<rscale>  0 0.31884365E+04</rscale>
<asrwt>0</asrwt>
<pdfrwt beam="1">  1        1 0.25485535E+00 0.31884365E+04</pdfrwt>
<pdfrwt beam="2">  1       -1 0.23603428E+00 0.31884365E+04</pdfrwt>
<totfact> 0.36799816E-01</totfact>
</mgrwt>
</event>
<event>
 6    1  0.1603085E-006  0.2224906E+04  0.7818608E-02  0.8508133E-01
         -2   -1    0    0    0  501 -0.00000000000E+00  0.00000000000E+00  0.34384585041E+03  0.34384585041E+03  0.00000000000E+00 0.  1.
          2   -1    0    0  501    0  0.00000000000E+00 -0.00000000000E+00 -0.35991455015E+04  0.35991455015E+04  0.00000000000E+00 0. -1.
         23    2    1    2    0    0  0.60382788589E+03 -0.89994412715E+03 -0.12003806084E+04  0.16198039252E+04  0.91343326068E+02 0.  0.
         13    1    3    3    0    0  0.45683786177E+03 -0.60615964681E+03 -0.83047196849E+03  0.11250840146E+04  0.00000000000E+00 0. -1.
        -13    1    3    3    0    0  0.14699002412E+03 -0.29378448034E+03 -0.36990863991E+03  0.49471991061E+03  0.00000000000E+00 0.  1.
         22    1    1    2    0    0 -0.60382788589E+03  0.89994412715E+03 -0.20549190427E+04  0.23231874268E+04  0.00000000000E+00 0. -1.
<mgrwt>
<rscale>  0 0.22249056E+04</rscale>
<asrwt>0</asrwt>
<pdfrwt beam="1">  1        2 0.55371465E+00 0.22249056E+04</pdfrwt>
<pdfrwt beam="2">  1       -2 0.52899366E-01 0.22249056E+04</pdfrwt>
<totfact> 0.21338166E+00</totfact>
</mgrwt>
</event>
<event>
 6    1  0.1603085E-006  0.2776148E+04  0.7818608E-02  0.8310712E-01
          2   -1    0    0  501    0  0.00000000000E+00  0.00000000000E+00  0.11570722870E+04  0.11570722870E+04  0.00000000000E+00 0.  1.
         -2   -1    0    0    0  501 -0.00000000000E+00 -0.00000000000E+00 -0.16651936048E+04  0.16651936048E+04  0.00000000000E+00 0. -1.
         23    2    1    2    0    0 -0.13275306363E+04 -0.36976974272E+03 -0.41023501492E+03  0.14407272635E+04  0.91296371656E+02 0.  0.
         13    1    3    3    0    0 -0.25518614625E+03 -0.56326365059E+02 -0.43938790150E+02  0.26499669039E+03  0.00000000000E+00 0.  1.
        -13    1    3    3    0    0 -0.10723444900E+04 -0.31344337766E+03 -0.36629622477E+03  0.11757305731E+04  0.00000000000E+00 0. -1.
         22    1    1    2    0    0  0.13275306363E+04  0.36976974272E+03 -0.97886302864E+02  0.13815386282E+04  0.00000000000E+00 0. -1.
<mgrwt>
<rscale>  0 0.27761480E+04</rscale>
<asrwt>0</asrwt>
<pdfrwt beam="1">  1        2 0.17801112E+00 0.27761480E+04</pdfrwt>
<pdfrwt beam="2">  1       -2 0.25618363E+00 0.27761480E+04</pdfrwt>
<totfact> 0.10319227E+00</totfact>
</mgrwt>
</event>
<event>
 6    1  0.1603085E-006  0.3885453E+04  0.7818608E-02  0.8028062E-01
          2   -1    0    0  501    0  0.00000000000E+00  0.00000000000E+00  0.24553286338E+04  0.24553286338E+04  0.00000000000E+00 0. -1.
         -2   -1    0    0    0  501 -0.00000000000E+00 -0.00000000000E+00 -0.15371406648E+04  0.15371406648E+04  0.00000000000E+00 0.  1.
         23    2    1    2    0    0  0.14290403436E+04  0.28368617217E+02 -0.89102922587E+03  0.16867746222E+04  0.91183675543E+02 0.  0.
         11    1    3    3    0    0  0.36817980388E+03 -0.32418208999E+02 -0.22580748152E+03  0.43312391641E+03  0.00000000000E+00 0. -1.
        -11    1    3    3    0    0  0.10608605397E+04  0.60786826216E+02 -0.66522174435E+03  0.12536507058E+04  0.00000000000E+00 0.  1.
         22    1    1    2    0    0 -0.14290403436E+04 -0.28368617217E+02  0.18092171949E+04  0.23056946763E+04  0.00000000000E+00 0. -1.
<mgrwt>
<rscale>  0 0.38854526E+04</rscale>
<asrwt>0</asrwt>
<pdfrwt beam="1">  1        2 0.37774287E+00 0.38854526E+04</pdfrwt>
<pdfrwt beam="2">  1       -2 0.23648318E+00 0.38854526E+04</pdfrwt>
<totfact> 0.22914252E-01</totfact>
</mgrwt>
</event>
<event>
 6    1  0.1603085E-006  0.2618943E+04  0.7818608E-02  0.8361795E-01
         -1   -1    0    0    0  501 -0.00000000000E+00  0.00000000000E+00  0.97172030544E+03  0.97172030544E+03  0.00000000000E+00 0.  1.
          1   -1    0    0  501    0  0.00000000000E+00 -0.00000000000E+00 -0.17646186005E+04  0.17646186005E+04  0.00000000000E+00 0. -1.
         23    2    1    2    0    0  0.37909473164E+03  0.72746040834E+03 -0.14613009538E+04  0.16781926138E+04  0.89546133825E+02 0.  0.
         13    1    3    3    0    0  0.32041513918E+03  0.62374848378E+03 -0.11790545087E+04  0.13718227170E+04  0.00000000000E+00 0. -1.
        -13    1    3    3    0    0  0.58679592456E+02  0.10371192456E+03 -0.28224644510E+03  0.30636989676E+03  0.00000000000E+00 0.  1.
         22    1    1    2    0    0 -0.37909473164E+03 -0.72746040834E+03  0.66840265879E+03  0.10581462921E+04  0.00000000000E+00 0.  1.
<mgrwt>
<rscale>  0 0.26189431E+04</rscale>
<asrwt>0</asrwt>
<pdfrwt beam="1">  1        1 0.27147979E+00 0.26189431E+04</pdfrwt>
<pdfrwt beam="2">  1       -1 0.14949543E+00 0.26189431E+04</pdfrwt>
<totfact> 0.13331288E+00</totfact>
</mgrwt>
</event>
<event>
 6    1  0.1603085E-006  0.2256408E+04  0.7818608E-02  0.8495310E-01
         -2   -1    0    0    0  501 -0.00000000000E+00  0.00000000000E+00  0.76128615644E+03  0.76128615644E+03  0.00000000000E+00 0.  1.
          2   -1    0    0  501    0  0.00000000000E+00 -0.00000000000E+00 -0.16719652045E+04  0.16719652045E+04  0.00000000000E+00 0. -1.
         23    2    1    2    0    0 -0.10065528602E+04  0.29371652229E+03 -0.89989718113E+03  0.13846645479E+04  0.89793751066E+02 0.  0.
         11    1    3    3    0    0 -0.50794790401E+03  0.10162622983E+03 -0.43796500825E+03  0.67834527508E+03  0.00000000000E+00 0.  1.
        -11    1    3    3    0    0 -0.49860495622E+03  0.19209029246E+03 -0.46193217288E+03  0.70631927283E+03  0.00000000000E+00 0. -1.
         22    1    1    2    0    0  0.10065528602E+04 -0.29371652229E+03 -0.10781866957E+02  0.10485868131E+04  0.00000000000E+00 0.  1.
<mgrwt>
<rscale>  0 0.22564077E+04</rscale>
<asrwt>0</asrwt>
<pdfrwt beam="1">  1        2 0.25722541E+00 0.22564077E+04</pdfrwt>
<pdfrwt beam="2">  1       -2 0.11712095E+00 0.22564077E+04</pdfrwt>
<totfact> 0.52158654E+00</totfact>
</mgrwt>
</event>
<event>
 6    1  0.2043885E-006  0.2461352E+04  0.7818608E-02  0.8416885E-01
         -2   -1    0    0    0  501 -0.00000000000E+00  0.00000000000E+00  0.86536596721E+03  0.86536596721E+03  0.00000000000E+00 0.  1.
          2   -1    0    0  501    0  0.00000000000E+00 -0.00000000000E+00 -0.17502003110E+04  0.17502003110E+04  0.00000000000E+00 0. -1.
         23    2    1    2    0    0 -0.48270235097E+03 -0.56724261819E+03  0.59577875503E+03  0.95816442716E+03  0.91438487512E+02 0.  0.
         11    1    3    3    0    0 -0.15960536637E+03 -0.18122858964E+03  0.24914703947E+03  0.34697539099E+03  0.00000000000E+00 0. -1.
        -11    1    3    3    0    0 -0.32309698460E+03 -0.38601402856E+03  0.34663171556E+03  0.61118903617E+03  0.00000000000E+00 0.  1.
         22    1    1    2    0    0  0.48270235097E+03  0.56724261819E+03 -0.14806130989E+04  0.16574018511E+04  0.00000000000E+00 0. -1.
<mgrwt>
<rscale>  0 0.24613523E+04</rscale>
<asrwt>0</asrwt>
<pdfrwt beam="1">  1        2 0.26926158E+00 0.24613523E+04</pdfrwt>
<pdfrwt beam="2">  1       -2 0.13313323E+00 0.24613523E+04</pdfrwt>
<totfact> 0.33639931E+00</totfact>
</mgrwt>
</event>
<event>
 6    1  0.1603085E-006  0.2198841E+04  0.7818608E-02  0.8518911E-01
          2   -1    0    0  501    0  0.00000000000E+00  0.00000000000E+00  0.20133690388E+04  0.20133690388E+04  0.00000000000E+00 0. -1.
         -2   -1    0    0    0  501 -0.00000000000E+00 -0.00000000000E+00 -0.60034960718E+03  0.60034960718E+03  0.00000000000E+00 0.  1.
         23    2    1    2    0    0 -0.29633173567E+02  0.60295696794E+03 -0.38244186316E+03  0.71948621799E+03  0.83447043197E+02 0.  0.
         11    1    3    3    0    0 -0.35461609960E+02  0.24053267415E+03 -0.19345306052E+03  0.31070497218E+03  0.00000000000E+00 0. -1.
        -11    1    3    3    0    0  0.58284363927E+01  0.36242429379E+03 -0.18898880263E+03  0.40878124581E+03  0.00000000000E+00 0.  1.
         22    1    1    2    0    0  0.29633173567E+02 -0.60295696794E+03  0.17954612947E+04  0.18942324279E+04  0.00000000000E+00 0. -1.
<mgrwt>
<rscale>  0 0.21988409E+04</rscale>
<asrwt>0</asrwt>
<pdfrwt beam="1">  1        2 0.30974908E+00 0.21988409E+04</pdfrwt>
<pdfrwt beam="2">  1       -2 0.92361479E-01 0.21988409E+04</pdfrwt>
<totfact> 0.59747312E+00</totfact>
</mgrwt>
</event>
<event>
 6    1  0.1603085E-006  0.1145067E+04  0.7818608E-02  0.9162347E-01
         -1   -1    0    0    0  501 -0.00000000000E+00  0.00000000000E+00  0.71370448111E+03  0.71370448111E+03  0.00000000000E+00 0.  1.
          1   -1    0    0  501    0  0.00000000000E+00 -0.00000000000E+00 -0.45928612102E+03  0.45928612102E+03  0.00000000000E+00 0. -1.
         23    2    1    2    0    0  0.53160880681E+03 -0.17491835416E+03  0.23270967187E+02  0.56748794206E+03  0.91086071160E+02 0.  0.
         13    1    3    3    0    0  0.95407550162E+02  0.37525835011E+01 -0.10236926965E+01  0.95486807767E+02  0.00000000000E+00 0.  1.
        -13    1    3    3    0    0  0.43620125665E+03 -0.17867093767E+03  0.24294659883E+02  0.47200113429E+03  0.00000000000E+00 0. -1.
         22    1    1    2    0    0 -0.53160880681E+03  0.17491835416E+03  0.23114739291E+03  0.60550266007E+03  0.00000000000E+00 0. -1.
<mgrwt>
<rscale>  0 0.11450669E+04</rscale>
<asrwt>0</asrwt>
<pdfrwt beam="1">  1        1 0.70659403E-01 0.11450669E+04</pdfrwt>
<pdfrwt beam="2">  1       -1 0.10980069E+00 0.11450669E+04</pdfrwt>
<totfact> 0.37942363E+01</totfact>
</mgrwt>
</event>
<event>
 6    1  0.1603085E-006  0.1627778E+04  0.7818608E-02  0.8803662E-01
         -1   -1    0    0    0  501 -0.00000000000E+00  0.00000000000E+00  0.41455427901E+03  0.41455427901E+03  0.00000000000E+00 0.  1.
          1   -1    0    0  501    0  0.00000000000E+00 -0.00000000000E+00 -0.15978982130E+04  0.15978982130E+04  0.00000000000E+00 0. -1.
         23    2    1    2    0    0  0.54879882508E+03  0.52614008174E+03 -0.24314756577E+03  0.80333184177E+03  0.90651934600E+02 0.  0.
         11    1    3    3    0    0  0.48157696279E+03  0.46407977775E+03 -0.18141353110E+03  0.69296268332E+03  0.00000000000E+00 0.  1.
        -11    1    3    3    0    0  0.67221862292E+02  0.62060303985E+02 -0.61734034677E+02  0.11036915846E+03  0.00000000000E+00 0. -1.
         22    1    1    2    0    0 -0.54879882508E+03 -0.52614008174E+03 -0.94019636825E+03  0.12091206503E+04  0.00000000000E+00 0.  1.
<mgrwt>
<rscale>  0 0.16277783E+04</rscale>
<asrwt>0</asrwt>
<pdfrwt beam="1">  1        1 0.24583049E+00 0.16277783E+04</pdfrwt>
<pdfrwt beam="2">  1       -1 0.63777582E-01 0.16277783E+04</pdfrwt>
<totfact> 0.13363219E+01</totfact>
</mgrwt>
</event>
<event>
 6    1  0.1603085E-006  0.2632311E+04  0.7818608E-02  0.8357308E-01
          1   -1    0    0  501    0  0.00000000000E+00  0.00000000000E+00  0.15960460660E+04  0.15960460660E+04  0.00000000000E+00 0. -1.
         -1   -1    0    0    0  501 -0.00000000000E+00 -0.00000000000E+00 -0.10853481026E+04  0.10853481026E+04  0.00000000000E+00 0.  1.
         23    2    1    2    0    0 -0.23120422180E+03 -0.11944812705E+04 -0.25152210647E+03  0.12456990990E+04  0.90895420487E+02 0.  0.
         11    1    3    3    0    0 -0.18119359859E+03 -0.10131445855E+04 -0.24235746336E+03  0.10573694772E+04  0.00000000000E+00 0.  1.
        -11    1    3    3    0    0 -0.50010623212E+02 -0.18133668496E+03 -0.91646431114E+01  0.18832962175E+03  0.00000000000E+00 0. -1.
         22    1    1    2    0    0  0.23120422180E+03  0.11944812705E+04  0.76222006988E+03  0.14356950695E+04  0.00000000000E+00 0. -1.
<mgrwt>
<rscale>  0 0.26323112E+04</rscale>
<asrwt>0</asrwt>
<pdfrwt beam="1">  1        1 0.24554555E+00 0.26323112E+04</pdfrwt>
<pdfrwt beam="2">  1       -1 0.16697663E+00 0.26323112E+04</pdfrwt>
<totfact> 0.12776291E+00</totfact>
</mgrwt>
</event>
<event>
 6    1  0.1603085E-006  0.2892981E+04  0.7818608E-02  0.8274969E-01
          2   -1    0    0  501    0  0.00000000000E+00  0.00000000000E+00  0.22247859339E+04  0.22247859339E+04  0.00000000000E+00 0.  1.
         -2   -1    0    0    0  501 -0.00000000000E+00 -0.00000000000E+00 -0.94046585254E+03  0.94046585254E+03  0.00000000000E+00 0. -1.
         23    2    1    2    0    0 -0.99081970757E+03 -0.34956983743E+03 -0.44216697741E+03  0.11441925770E+04  0.98702852478E+02 0.  0.
         13    1    3    3    0    0 -0.72646617307E+03 -0.29079586305E+03 -0.35878655235E+03  0.86083861712E+03  0.00000000000E+00 0. -1.
        -13    1    3    3    0    0 -0.26435353451E+03 -0.58773974387E+02 -0.83380425056E+02  0.28335395983E+03  0.00000000000E+00 0.  1.
         22    1    1    2    0    0  0.99081970757E+03  0.34956983743E+03  0.17264870588E+04  0.20210592095E+04  0.00000000000E+00 0.  1.
<mgrwt>
<rscale>  0 0.28929813E+04</rscale>
<asrwt>0</asrwt>
<pdfrwt beam="1">  1        2 0.34227476E+00 0.28929813E+04</pdfrwt>
<pdfrwt beam="2">  1       -2 0.14468705E+00 0.28929813E+04</pdfrwt>
<totfact> 0.14229385E+00</totfact>
</mgrwt>
</event>
<event>
 6    1  0.1603085E-006  0.3907330E+04  0.7818608E-02  0.8023506E-01
          1   -1    0    0  501    0  0.00000000000E+00  0.00000000000E+00  0.26577806348E+04  0.26577806348E+04  0.00000000000E+00 0. -1.
         -1   -1    0    0    0  501 -0.00000000000E+00 -0.00000000000E+00 -0.14360878489E+04  0.14360878489E+04  0.00000000000E+00 0.  1.
         23    2    1    2    0    0  0.13645575060E+04 -0.94437791658E+03 -0.46702767554E+03  0.17262444355E+04  0.89096378960E+02 0.  0.
         11    1    3    3    0    0  0.50791081721E+03 -0.40369699540E+03 -0.17516633506E+03  0.67203266831E+03  0.00000000000E+00 0. -1.
        -11    1    3    3    0    0  0.85664668880E+03 -0.54068092118E+03 -0.29186134048E+03  0.10542117672E+04  0.00000000000E+00 0.  1.
         22    1    1    2    0    0 -0.13645575060E+04  0.94437791658E+03  0.16887204615E+04  0.23676240482E+04  0.00000000000E+00 0.  1.
<mgrwt>
<rscale>  0 0.39073298E+04</rscale>
<asrwt>0</asrwt>
<pdfrwt beam="1">  1        1 0.40888933E+00 0.39073298E+04</pdfrwt>
<pdfrwt beam="2">  1       -1 0.22093659E+00 0.39073298E+04</pdfrwt>
<totfact> 0.89890519E-02</totfact>
</mgrwt>
</event>
<event>
 6    1  0.1603085E-006  0.1485877E+04  0.7818608E-02  0.8893899E-01
         -2   -1    0    0    0  501 -0.00000000000E+00  0.00000000000E+00  0.10726837764E+04  0.10726837764E+04  0.00000000000E+00 0.  1.
          2   -1    0    0  501    0  0.00000000000E+00 -0.00000000000E+00 -0.51455795386E+03  0.51455795386E+03  0.00000000000E+00 0. -1.
         23    2    1    2    0    0  0.30370738606E+03  0.54307333431E+03  0.70841458316E+03  0.94712179274E+03  0.89563641425E+02 0.  0.
         11    1    3    3    0    0  0.78530000276E+02  0.21577398562E+03  0.22604614819E+03  0.32221457901E+03  0.00000000000E+00 0. -1.
        -11    1    3    3    0    0  0.22517738578E+03  0.32729934869E+03  0.48236843497E+03  0.62490721373E+03  0.00000000000E+00 0.  1.
         22    1    1    2    0    0 -0.30370738606E+03 -0.54307333431E+03 -0.15028876066E+03  0.64011993748E+03  0.00000000000E+00 0. -1.
<mgrwt>
<rscale>  0 0.14858775E+04</rscale>
<asrwt>0</asrwt>
<pdfrwt beam="1">  1        2 0.79162762E-01 0.14858775E+04</pdfrwt>
<pdfrwt beam="2">  1       -2 0.16502827E+00 0.14858775E+04</pdfrwt>
<totfact> 0.13314896E+01</totfact>
</mgrwt>
</event>
<event>
 6    1  0.1603085E-006  0.2257886E+04  0.7818608E-02  0.8494714E-01
          1   -1    0    0  501    0  0.00000000000E+00  0.00000000000E+00  0.10189266229E+04  0.10189266229E+04  0.00000000000E+00 0. -1.
         -1   -1    0    0    0  501 -0.00000000000E+00 -0.00000000000E+00 -0.12508382297E+04  0.12508382297E+04  0.00000000000E+00 0.  1.
         23    2    1    2    0    0 -0.99493176031E+03  0.33146851563E+03  0.29797234855E+03  0.10948020486E+04  0.10021686817E+03 0.  0.
         11    1    3    3    0    0 -0.56535465631E+03  0.21759074253E+03  0.21436098756E+03  0.64259026730E+03  0.00000000000E+00 0. -1.
        -11    1    3    3    0    0 -0.42957710400E+03  0.11387777310E+03  0.83611360995E+02  0.45221178134E+03  0.00000000000E+00 0.  1.
         22    1    1    2    0    0  0.99493176031E+03 -0.33146851563E+03 -0.52988395536E+03  0.11749628040E+04  0.00000000000E+00 0.  1.
<mgrwt>
<rscale>  0 0.22578861E+04</rscale>
<asrwt>0</asrwt>
<pdfrwt beam="1">  1        1 0.15675794E+00 0.22578861E+04</pdfrwt>
<pdfrwt beam="2">  1       -1 0.19243665E+00 0.22578861E+04</pdfrwt>
<totfact> 0.22539343E+00</totfact>
</mgrwt>
</event>
<event>
 6    1  0.1603085E-006  0.1156969E+04  0.7818608E-02  0.9151378E-01
         -2   -1    0    0    0  501 -0.00000000000E+00  0.00000000000E+00  0.43281500730E+03  0.43281500730E+03  0.00000000000E+00 0.  1.
          2   -1    0    0  501    0  0.00000000000E+00 -0.00000000000E+00 -0.77318120906E+03  0.77318120906E+03  0.00000000000E+00 0. -1.
         23    2    1    2    0    0 -0.86632430515E+02 -0.54913514248E+03 -0.32377643560E+03  0.64982196033E+03  0.91557725807E+02 0.  0.
         13    1    3    3    0    0 -0.68208752639E+02 -0.34865574033E+03 -0.25409114018E+03  0.43677862438E+03  0.00000000000E+00 0. -1.
        -13    1    3    3    0    0 -0.18423677876E+02 -0.20047940216E+03 -0.69685295420E+02  0.21304333595E+03  0.00000000000E+00 0.  1.
         22    1    1    2    0    0  0.86632430515E+02  0.54913514248E+03 -0.16589766170E+02  0.55617425603E+03  0.00000000000E+00 0.  1.
<mgrwt>
<rscale>  0 0.11569692E+04</rscale>
<asrwt>0</asrwt>
<pdfrwt beam="1">  1        2 0.11895095E+00 0.11569692E+04</pdfrwt>
<pdfrwt beam="2">  1       -2 0.66586925E-01 0.11569692E+04</pdfrwt>
<totfact> 0.73929141E+01</totfact>
</mgrwt>
</event>
<event>
 6    1  0.1603085E-006  0.1677296E+04  0.7818608E-02  0.8774420E-01
         -2   -1    0    0    0  501 -0.00000000000E+00  0.00000000000E+00  0.41584219714E+03  0.41584219714E+03  0.00000000000E+00 0.  1.
          2   -1    0    0  501    0  0.00000000000E+00 -0.00000000000E+00 -0.16913391301E+04  0.16913391301E+04  0.00000000000E+00 0. -1.
         23    2    1    2    0    0 -0.61192880240E+03 -0.51079540567E+03 -0.95725184150E+03  0.12488988889E+04  0.89713661453E+02 0.  0.
         11    1    3    3    0    0 -0.21312655512E+03 -0.17086307400E+03 -0.26406359231E+03  0.37992986108E+03  0.00000000000E+00 0.  1.
        -11    1    3    3    0    0 -0.39880224728E+03 -0.33993233167E+03 -0.69318824919E+03  0.86896902785E+03  0.00000000000E+00 0. -1.
         22    1    1    2    0    0  0.61192880240E+03  0.51079540567E+03 -0.31824509143E+03  0.85828243829E+03  0.00000000000E+00 0.  1.
<mgrwt>
<rscale>  0 0.16772957E+04</rscale>
<asrwt>0</asrwt>
<pdfrwt beam="1">  1        2 0.26020603E+00 0.16772957E+04</pdfrwt>
<pdfrwt beam="2">  1       -2 0.63975721E-01 0.16772957E+04</pdfrwt>
<totfact> 0.21350770E+01</totfact>
</mgrwt>
</event>
<event>
 6    1  0.1603085E-006  0.1362686E+04  0.7818608E-02  0.8981280E-01
         -2   -1    0    0    0  501 -0.00000000000E+00  0.00000000000E+00  0.30520555308E+03  0.30520555308E+03  0.00000000000E+00 0.  1.
          2   -1    0    0  501    0  0.00000000000E+00 -0.00000000000E+00 -0.15210356235E+04  0.15210356235E+04  0.00000000000E+00 0. -1.
         23    2    1    2    0    0  0.63617442722E+03  0.22659734110E+03 -0.52856847236E+03  0.86270977542E+03  0.93910967316E+02 0.  0.
         11    1    3    3    0    0  0.28231928519E+03  0.14944977252E+03 -0.23678562017E+03  0.39762651221E+03  0.00000000000E+00 0.  1.
        -11    1    3    3    0    0  0.35385514203E+03  0.77147568589E+02 -0.29178285219E+03  0.46508326321E+03  0.00000000000E+00 0. -1.
         22    1    1    2    0    0 -0.63617442722E+03 -0.22659734110E+03 -0.68726159801E+03  0.96353140112E+03  0.00000000000E+00 0. -1.
<mgrwt>
<rscale>  0 0.13626863E+04</rscale>
<asrwt>0</asrwt>
<pdfrwt beam="1">  1        2 0.23400548E+00 0.13626863E+04</pdfrwt>
<pdfrwt beam="2">  1       -2 0.46954700E-01 0.13626863E+04</pdfrwt>
<totfact> 0.51809665E+01</totfact>
</mgrwt>
</event>
<event>
 6    1  0.1603085E-006  0.2221221E+04  0.7818608E-02  0.8509647E-01
          2   -1    0    0  501    0  0.00000000000E+00  0.00000000000E+00  0.24008382764E+04  0.24008382764E+04  0.00000000000E+00 0. -1.
         -2   -1    0    0    0  501 -0.00000000000E+00 -0.00000000000E+00 -0.51376064955E+03  0.51376064955E+03  0.00000000000E+00 0.  1.
         23    2    1    2    0    0 -0.17116334268E+03 -0.10753264548E+04  0.67104996951E+03  0.12823161264E+04  0.91666307828E+02 0.  0.
         11    1    3    3    0    0 -0.17677631471E+03 -0.97290838965E+03  0.62566081507E+03  0.11701504414E+04  0.00000000000E+00 0.  1.
        -11    1    3    3    0    0  0.56129720303E+01 -0.10241806520E+03  0.45389154438E+02  0.11216568493E+03  0.00000000000E+00 0. -1.
         22    1    1    2    0    0  0.17116334268E+03  0.10753264548E+04  0.12160276573E+04  0.16322827995E+04  0.00000000000E+00 0. -1.
<mgrwt>
<rscale>  0 0.22212215E+04</rscale>
<asrwt>0</asrwt>
<pdfrwt beam="1">  1        2 0.36935973E+00 0.22212215E+04</pdfrwt>
<pdfrwt beam="2">  1       -2 0.79040101E-01 0.22212215E+04</pdfrwt>
<totfact> 0.51462535E+00</totfact>
</mgrwt>
</event>
<event>
 6    1  0.1603085E-006  0.1807332E+04  0.7818608E-02  0.8702410E-01
          2   -1    0    0  501    0  0.00000000000E+00  0.00000000000E+00  0.85972351190E+03  0.85972351190E+03  0.00000000000E+00 0. -1.
         -2   -1    0    0    0  501 -0.00000000000E+00 -0.00000000000E+00 -0.94985460749E+03  0.94985460749E+03  0.00000000000E+00 0.  1.
         23    2    1    2    0    0  0.63053173680E+03 -0.35248954995E+03 -0.58479339032E+03  0.93407258557E+03  0.93215512796E+02 0.  0.
         13    1    3    3    0    0  0.57563479341E+03 -0.34923027878E+03 -0.54419517745E+03  0.86571680945E+03  0.00000000000E+00 0.  1.
        -13    1    3    3    0    0  0.54896943386E+02 -0.32592711765E+01 -0.40598212866E+02  0.68355776124E+02  0.00000000000E+00 0. -1.
         22    1    1    2    0    0 -0.63053173680E+03  0.35248954995E+03  0.49466229473E+03  0.87550553383E+03  0.00000000000E+00 0. -1.
<mgrwt>
<rscale>  0 0.18073321E+04</rscale>
<asrwt>0</asrwt>
<pdfrwt beam="1">  1        2 0.13226516E+00 0.18073321E+04</pdfrwt>
<pdfrwt beam="2">  1       -2 0.14613148E+00 0.18073321E+04</pdfrwt>
<totfact> 0.94627009E+00</totfact>
</mgrwt>
</event>
<event>
 6    1  0.1603085E-006  0.1912992E+04  0.7818608E-02  0.8648416E-01
         -2   -1    0    0    0  501 -0.00000000000E+00  0.00000000000E+00  0.10996226503E+04  0.10996226503E+04  0.00000000000E+00 0. -1.
          2   -1    0    0  501    0  0.00000000000E+00 -0.00000000000E+00 -0.83199858100E+03  0.83199858100E+03  0.00000000000E+00 0.  1.
         23    2    1    2    0    0 -0.96868204503E+02  0.93496189208E+03  0.30092807079E+03  0.99106482938E+03  0.90081094312E+02 0.  0.
         13    1    3    3    0    0 -0.74163526275E+02  0.68851655723E+03  0.17946316010E+03  0.71537563842E+03  0.00000000000E+00 0. -1.
        -13    1    3    3    0    0 -0.22704678228E+02  0.24644533485E+03  0.12146491069E+03  0.27568919096E+03  0.00000000000E+00 0.  1.
         22    1    1    2    0    0  0.96868204503E+02 -0.93496189208E+03 -0.33304001486E+02  0.94055640193E+03  0.00000000000E+00 0.  1.
<mgrwt>
<rscale>  0 0.19129919E+04</rscale>
<asrwt>0</asrwt>
<pdfrwt beam="1">  1        2 0.12799978E+00 0.19129919E+04</pdfrwt>
<pdfrwt beam="2">  1       -2 0.16917272E+00 0.19129919E+04</pdfrwt>
<totfact> 0.66022699E+00</totfact>
</mgrwt>
</event>
<event>
 6    1  0.1603085E-006  0.3324829E+04  0.7818608E-02  0.8156606E-01
          2   -1    0    0  501    0  0.00000000000E+00  0.00000000000E+00  0.17166552026E+04  0.17166552026E+04  0.00000000000E+00 0. -1.
         -2   -1    0    0    0  501 -0.00000000000E+00 -0.00000000000E+00 -0.16098872197E+04  0.16098872197E+04  0.00000000000E+00 0.  1.
         23    2    1    2    0    0  0.15183365257E+04  0.66340842633E+03 -0.64786178667E+02  0.16607431018E+04  0.91727072004E+02 0.  0.
         11    1    3    3    0    0  0.85691243049E+03  0.38765836020E+03  0.70684547690E+01  0.94054658620E+03  0.00000000000E+00 0. -1.
        -11    1    3    3    0    0  0.66142409525E+03  0.27575006613E+03 -0.71854633436E+02  0.72019651561E+03  0.00000000000E+00 0.  1.
         22    1    1    2    0    0 -0.15183365257E+04 -0.66340842633E+03  0.17155416159E+03  0.16657993204E+04  0.00000000000E+00 0.  1.
<mgrwt>
<rscale>  0 0.33248286E+04</rscale>
<asrwt>0</asrwt>
<pdfrwt beam="1">  1        2 0.26410080E+00 0.33248286E+04</pdfrwt>
<pdfrwt beam="2">  1       -2 0.24767496E+00 0.33248286E+04</pdfrwt>
<totfact> 0.53146753E-01</totfact>
</mgrwt>
</event>
<event>
 6    1  0.1603085E-006  0.2798110E+04  0.7818608E-02  0.8303855E-01
          1   -1    0    0  501    0  0.00000000000E+00  0.00000000000E+00  0.44871269312E+04  0.44871269312E+04  0.00000000000E+00 0. -1.
         -1   -1    0    0    0  501 -0.00000000000E+00 -0.00000000000E+00 -0.43621568881E+03  0.43621568881E+03  0.00000000000E+00 0.  1.
         23    2    1    2    0    0  0.99774423035E+03 -0.42163539380E+03  0.35814516471E+04  0.37428078827E+04  0.92439123905E+02 0.  0.
         13    1    3    3    0    0  0.28013176793E+03 -0.15545591839E+03  0.11436481054E+04  0.11876747615E+04  0.00000000000E+00 0.  1.
        -13    1    3    3    0    0  0.71761246241E+03 -0.26617947541E+03  0.24378035416E+04  0.25551331212E+04  0.00000000000E+00 0. -1.
         22    1    1    2    0    0 -0.99774423035E+03  0.42163539380E+03  0.46945959533E+03  0.11805347374E+04  0.00000000000E+00 0.  1.
<mgrwt>
<rscale>  0 0.27981102E+04</rscale>
<asrwt>0</asrwt>
<pdfrwt beam="1">  1        1 0.69032719E+00 0.27981102E+04</pdfrwt>
<pdfrwt beam="2">  1       -1 0.67110109E-01 0.27981102E+04</pdfrwt>
<totfact> 0.64764329E-02</totfact>
</mgrwt>
</event>
<event>
 6    1  0.1603085E-006  0.9321887E+03  0.7818608E-02  0.9386215E-01
          2   -1    0    0  501    0  0.00000000000E+00  0.00000000000E+00  0.10468714776E+04  0.10468714776E+04  0.00000000000E+00 0. -1.
         -2   -1    0    0    0  501 -0.00000000000E+00 -0.00000000000E+00 -0.20751731008E+03  0.20751731008E+03  0.00000000000E+00 0.  1.
         23    2    1    2    0    0  0.16435117863E+03 -0.43020827354E+03  0.38810782058E+03  0.60963012418E+03  0.94502589258E+02 0.  0.
         13    1    3    3    0    0  0.86171221225E+02 -0.31407710568E+03  0.23153507070E+03  0.39959779359E+03  0.00000000000E+00 0. -1.
        -13    1    3    3    0    0  0.78179957405E+02 -0.11613116786E+03  0.15657274988E+03  0.21003233059E+03  0.00000000000E+00 0.  1.
         22    1    1    2    0    0 -0.16435117863E+03  0.43020827354E+03  0.45124634696E+03  0.64475866352E+03  0.00000000000E+00 0. -1.
<mgrwt>
<rscale>  0 0.93218872E+03</rscale>
<asrwt>0</asrwt>
<pdfrwt beam="1">  1        2 0.16105715E+00 0.93218872E+03</pdfrwt>
<pdfrwt beam="2">  1       -2 0.31925741E-01 0.93218872E+03</pdfrwt>
<totfact> 0.21454449E+02</totfact>
</mgrwt>
</event>
<event>
 6    1  0.1603085E-006  0.2097042E+04  0.7818608E-02  0.8562547E-01
         -1   -1    0    0    0  501 -0.00000000000E+00  0.00000000000E+00  0.69263717870E+03  0.69263717870E+03  0.00000000000E+00 0.  1.
          1   -1    0    0  501    0  0.00000000000E+00 -0.00000000000E+00 -0.15872620209E+04  0.15872620209E+04  0.00000000000E+00 0. -1.
         23    2    1    2    0    0  0.15602555824E+02 -0.94041829926E+03 -0.94709598792E+03  0.13378889882E+04  0.91247558606E+02 0.  0.
         13    1    3    3    0    0  0.13676566075E+02 -0.63143172770E+03 -0.69499912466E+03  0.93910428520E+03  0.00000000000E+00 0.  1.
        -13    1    3    3    0    0  0.19259897483E+01 -0.30898657156E+03 -0.25209686326E+03  0.39878470295E+03  0.00000000000E+00 0. -1.
         22    1    1    2    0    0 -0.15602555824E+02  0.94041829926E+03  0.52471145721E+02  0.94201021144E+03  0.00000000000E+00 0.  1.
<mgrwt>
<rscale>  0 0.20970424E+04</rscale>
<asrwt>0</asrwt>
<pdfrwt beam="1">  1        1 0.24419415E+00 0.20970424E+04</pdfrwt>
<pdfrwt beam="2">  1       -1 0.10655957E+00 0.20970424E+04</pdfrwt>
<totfact> 0.43078907E+00</totfact>
</mgrwt>
</event>
<event>
 6    1  0.1603085E-006  0.8808047E+03  0.7818608E-02  0.9449900E-01
          1   -1    0    0  501    0  0.00000000000E+00  0.00000000000E+00  0.92659801032E+03  0.92659801032E+03  0.00000000000E+00 0. -1.
         -1   -1    0    0    0  501 -0.00000000000E+00 -0.00000000000E+00 -0.20931861596E+03  0.20931861596E+03  0.00000000000E+00 0.  1.
         23    2    1    2    0    0 -0.17512270992E+03 -0.10819228996E+03 -0.13220804174E+03  0.26184429562E+03  0.93327025617E+02 0.  0.
         11    1    3    3    0    0 -0.85768932525E+02 -0.28668156857E+01 -0.68179329309E+02  0.10960360105E+03  0.00000000000E+00 0.  1.
        -11    1    3    3    0    0 -0.89353777398E+02 -0.10532547428E+03 -0.64028712427E+02  0.15224069457E+03  0.00000000000E+00 0. -1.
         22    1    1    2    0    0  0.17512270992E+03  0.10819228996E+03  0.84948743610E+03  0.87407233066E+03  0.00000000000E+00 0. -1.
<mgrwt>
<rscale>  0 0.88080466E+03</rscale>
<asrwt>0</asrwt>
<pdfrwt beam="1">  1        1 0.14255354E+00 0.88080466E+03</pdfrwt>
<pdfrwt beam="2">  1       -1 0.32202864E-01 0.88080466E+03</pdfrwt>
<totfact> 0.15694705E+02</totfact>
</mgrwt>
</event>
<event>
 6    1  0.1603085E-006  0.2669871E+04  0.7818608E-02  0.8344847E-01
          2   -1    0    0  501    0  0.00000000000E+00  0.00000000000E+00  0.61523472221E+03  0.61523472221E+03  0.00000000000E+00 0. -1.
         -2   -1    0    0    0  501 -0.00000000000E+00 -0.00000000000E+00 -0.28965419107E+04  0.28965419107E+04  0.00000000000E+00 0.  1.
         23    2    1    2    0    0  0.27139562602E+03  0.15594367632E+03 -0.28467714697E+04  0.28654610217E+04  0.93728597100E+02 0.  0.
         13    1    3    3    0    0  0.97472306045E+02  0.10930645357E+03 -0.13291620964E+04  0.13372062779E+04  0.00000000000E+00 0. -1.
        -13    1    3    3    0    0  0.17392331997E+03  0.46637222745E+02 -0.15176093733E+04  0.15282547438E+04  0.00000000000E+00 0.  1.
         22    1    1    2    0    0 -0.27139562602E+03 -0.15594367632E+03  0.56546428122E+03  0.64631561125E+03  0.00000000000E+00 0. -1.
<mgrwt>
<rscale>  0 0.26698713E+04</rscale>
<asrwt>0</asrwt>
<pdfrwt beam="1">  1        2 0.94651495E-01 0.26698713E+04</pdfrwt>
<pdfrwt beam="2">  1       -2 0.44562184E+00 0.26698713E+04</pdfrwt>
<totfact> 0.15679665E-01</totfact>
</mgrwt>
</event>
<event>
 6    1  0.1603085E-006  0.1504686E+04  0.7818608E-02  0.8881343E-01
          1   -1    0    0  501    0  0.00000000000E+00  0.00000000000E+00  0.32107765415E+03  0.32107765415E+03  0.00000000000E+00 0. -1.
         -1   -1    0    0    0  501 -0.00000000000E+00 -0.00000000000E+00 -0.17628759431E+04  0.17628759431E+04  0.00000000000E+00 0.  1.
         23    2    1    2    0    0  0.73924669218E+03 -0.12272095046E+03 -0.74127781096E+03  0.10581490137E+04  0.92953959294E+02 0.  0.
         13    1    3    3    0    0  0.35594294016E+03 -0.62242787754E+02 -0.42257429356E+03  0.55600231551E+03  0.00000000000E+00 0.  1.
        -13    1    3    3    0    0  0.38330375202E+03 -0.60478162702E+02 -0.31870351740E+03  0.50214669817E+03  0.00000000000E+00 0. -1.
         22    1    1    2    0    0 -0.73924669218E+03  0.12272095046E+03 -0.70052047800E+03  0.10258045836E+04  0.00000000000E+00 0.  1.
<mgrwt>
<rscale>  0 0.15046861E+04</rscale>
<asrwt>0</asrwt>
<pdfrwt beam="1">  1        1 0.49396561E-01 0.15046861E+04</pdfrwt>
<pdfrwt beam="2">  1       -1 0.27121169E+00 0.15046861E+04</pdfrwt>
<totfact> 0.39412634E+00</totfact>
</mgrwt>
</event>
<event>
 6    1  0.1603085E-006  0.6979290E+04  0.7818608E-02  0.7579575E-01
         -2   -1    0    0    0  501 -0.00000000000E+00  0.00000000000E+00  0.45464574863E+04  0.45464574863E+04  0.00000000000E+00 0.  1.
          2   -1    0    0  501    0  0.00000000000E+00 -0.00000000000E+00 -0.26784861450E+04  0.26784861450E+04  0.00000000000E+00 0. -1.
         23    2    1    2    0    0  0.16915267748E+03 -0.29700132739E+04 -0.95316953563E+03  0.31251354257E+04  0.91366239051E+02 0.  0.
         11    1    3    3    0    0  0.81920581660E+02 -0.11733575182E+04 -0.33277783954E+03  0.12223828933E+04  0.00000000000E+00 0. -1.
        -11    1    3    3    0    0  0.87232095816E+02 -0.17966557557E+04 -0.62039169609E+03  0.19027525324E+04  0.00000000000E+00 0.  1.
         22    1    1    2    0    0 -0.16915267748E+03  0.29700132739E+04  0.28211408769E+04  0.40998082056E+04  0.00000000000E+00 0.  1.
<mgrwt>
<rscale>  0 0.69792903E+04</rscale>
<asrwt>0</asrwt>
<pdfrwt beam="1">  1        2 0.41207479E+00 0.69792903E+04</pdfrwt>
<pdfrwt beam="2">  1       -2 0.69945500E+00 0.69792903E+04</pdfrwt>
<totfact> 0.40049056E-04</totfact>
</mgrwt>
</event>
<event>
 6    1  0.1603085E-006  0.3577481E+04  0.7818608E-02  0.8095669E-01
         -2   -1    0    0    0  501 -0.00000000000E+00  0.00000000000E+00  0.10344875559E+04  0.10344875559E+04  0.00000000000E+00 0.  1.
          2   -1    0    0  501    0  0.00000000000E+00 -0.00000000000E+00 -0.30929259852E+04  0.30929259852E+04  0.00000000000E+00 0. -1.
         23    2    1    2    0    0 -0.10988579874E+04 -0.73721195239E+03 -0.24165312849E+04  0.27565740785E+04  0.90038103241E+02 0.  0.
         13    1    3    3    0    0 -0.16283511991E+03 -0.13848054757E+03 -0.43842761510E+03  0.48776112187E+03  0.00000000000E+00 0. -1.
        -13    1    3    3    0    0 -0.93602286751E+03 -0.59873140483E+03 -0.19781036698E+04  0.22688129566E+04  0.00000000000E+00 0.  1.
         22    1    1    2    0    0  0.10988579874E+04  0.73721195239E+03  0.35809285554E+03  0.13708394627E+04  0.00000000000E+00 0.  1.
<mgrwt>
<rscale>  0 0.35774815E+04</rscale>
<asrwt>0</asrwt>
<pdfrwt beam="1">  1        2 0.47583477E+00 0.35774815E+04</pdfrwt>
<pdfrwt beam="2">  1       -2 0.15915193E+00 0.35774815E+04</pdfrwt>
<totfact> 0.31704277E-01</totfact>
</mgrwt>
</event>
<event>
 6    1  0.1603085E-006  0.8665966E+03  0.7818608E-02  0.9468328E-01
          1   -1    0    0  501    0  0.00000000000E+00  0.00000000000E+00  0.58433576659E+03  0.58433576659E+03  0.00000000000E+00 0. -1.
         -1   -1    0    0    0  501 -0.00000000000E+00 -0.00000000000E+00 -0.32130060428E+03  0.32130060428E+03  0.00000000000E+00 0.  1.
         23    2    1    2    0    0 -0.11847767469E+03  0.36808166177E+03 -0.65459540676E+02  0.39826092899E+03  0.69323495055E+02 0.  0.
         13    1    3    3    0    0 -0.68959609822E+02  0.19509881509E+03 -0.69493288563E+02  0.21828488860E+03  0.00000000000E+00 0. -1.
        -13    1    3    3    0    0 -0.49518064866E+02  0.17298284667E+03  0.40337478865E+01  0.17997604038E+03  0.00000000000E+00 0.  1.
         22    1    1    2    0    0  0.11847767469E+03 -0.36808166177E+03  0.32849470299E+03  0.50737544188E+03  0.00000000000E+00 0. -1.
<mgrwt>
<rscale>  0 0.86659664E+03</rscale>
<asrwt>0</asrwt>
<pdfrwt beam="1">  1        1 0.89897810E-01 0.86659664E+03</pdfrwt>
<pdfrwt beam="2">  1       -1 0.49430862E-01 0.86659664E+03</pdfrwt>
<totfact> 0.14727922E+02</totfact>
</mgrwt>
</event>
<event>
 6    1  0.1603085E-006  0.1532423E+04  0.7818608E-02  0.8863174E-01
         -2   -1    0    0    0  501 -0.00000000000E+00  0.00000000000E+00  0.38622615174E+03  0.38622615174E+03  0.00000000000E+00 0.  1.
          2   -1    0    0  501    0  0.00000000000E+00 -0.00000000000E+00 -0.15200425083E+04  0.15200425083E+04  0.00000000000E+00 0. -1.
         23    2    1    2    0    0 -0.41200407889E+03  0.50007594976E+03 -0.10711832032E+04  0.12553107287E+04  0.92456768782E+02 0.  0.
         11    1    3    3    0    0 -0.23481629033E+03  0.23783665286E+03 -0.61744001325E+03  0.70209481810E+03  0.00000000000E+00 0. -1.
        -11    1    3    3    0    0 -0.17718778856E+03  0.26223929691E+03 -0.45374318999E+03  0.55321591058E+03  0.00000000000E+00 0.  1.
         22    1    1    2    0    0  0.41200407889E+03 -0.50007594976E+03 -0.62633153363E+02  0.65095793140E+03  0.00000000000E+00 0.  1.
<mgrwt>
<rscale>  0 0.15324231E+04</rscale>
<asrwt>0</asrwt>
<pdfrwt beam="1">  1        2 0.23385270E+00 0.15324231E+04</pdfrwt>
<pdfrwt beam="2">  1       -2 0.59419407E-01 0.15324231E+04</pdfrwt>
<totfact> 0.31509724E+01</totfact>
</mgrwt>
</event>
<event>
 6    1  0.1603085E-006  0.1616901E+04  0.7818608E-02  0.8810232E-01
          2   -1    0    0  501    0  0.00000000000E+00  0.00000000000E+00  0.10481997635E+04  0.10481997635E+04  0.00000000000E+00 0. -1.
         -2   -1    0    0    0  501 -0.00000000000E+00 -0.00000000000E+00 -0.62353755754E+03  0.62353755754E+03  0.00000000000E+00 0.  1.
         23    2    1    2    0    0  0.77130102817E+03  0.58369761284E+02  0.44596987210E+03  0.89793739741E+03  0.95342213979E+02 0.  0.
         13    1    3    3    0    0  0.15029299860E+03 -0.25171923799E+02  0.76366459637E+02  0.17045071820E+03  0.00000000000E+00 0. -1.
        -13    1    3    3    0    0  0.62100802957E+03  0.83541685082E+02  0.36960341246E+03  0.72748667922E+03  0.00000000000E+00 0.  1.
         22    1    1    2    0    0 -0.77130102817E+03 -0.58369761284E+02 -0.21307666188E+02  0.77379992358E+03  0.00000000000E+00 0. -1.
<mgrwt>
<rscale>  0 0.16169006E+04</rscale>
<asrwt>0</asrwt>
<pdfrwt beam="1">  1        2 0.16126150E+00 0.16169006E+04</pdfrwt>
<pdfrwt beam="2">  1       -2 0.95928855E-01 0.16169006E+04</pdfrwt>
<totfact> 0.20480586E+01</totfact>
</mgrwt>
</event>
<event>
 6    1  0.1603085E-006  0.4379329E+04  0.7818608E-02  0.7932110E-01
         -1   -1    0    0    0  501 -0.00000000000E+00  0.00000000000E+00  0.15717475870E+04  0.15717475870E+04  0.00000000000E+00 0.  1.
          1   -1    0    0  501    0  0.00000000000E+00 -0.00000000000E+00 -0.30505092916E+04  0.30505092916E+04  0.00000000000E+00 0. -1.
         23    2    1    2    0    0 -0.10913582051E+04 -0.72000488640E+03 -0.25923647368E+04  0.29048223147E+04  0.90376896198E+02 0.  0.
         13    1    3    3    0    0 -0.30213843256E+03 -0.18025540403E+03 -0.78126584782E+03  0.85682901916E+03  0.00000000000E+00 0. -1.
        -13    1    3    3    0    0 -0.78921977253E+03 -0.53974948236E+03 -0.18110988889E+04  0.20479932955E+04  0.00000000000E+00 0.  1.
         22    1    1    2    0    0  0.10913582051E+04  0.72000488640E+03  0.11136030322E+04  0.17174345640E+04  0.00000000000E+00 0.  1.
<mgrwt>
<rscale>  0 0.43793290E+04</rscale>
<asrwt>0</asrwt>
<pdfrwt beam="1">  1        1 0.46930912E+00 0.43793290E+04</pdfrwt>
<pdfrwt beam="2">  1       -1 0.24180732E+00 0.43793290E+04</pdfrwt>
<totfact> 0.32846280E-02</totfact>
</mgrwt>
</event>
<event>
 6    1  0.1603085E-006  0.5440176E+04  0.7818608E-02  0.7763975E-01
         -2   -1    0    0    0  501 -0.00000000000E+00  0.00000000000E+00  0.23289101161E+04  0.23289101161E+04  0.00000000000E+00 0.  1.
          2   -1    0    0  501    0  0.00000000000E+00 -0.00000000000E+00 -0.31769700956E+04  0.31769700956E+04  0.00000000000E+00 0. -1.
         23    2    1    2    0    0 -0.10143317689E+04 -0.20215681488E+04  0.11037327462E+04  0.25183893646E+04  0.91936388099E+02 0.  0.
         13    1    3    3    0    0 -0.42955020317E+03 -0.78573934706E+03  0.40128207049E+03  0.98128843805E+03  0.00000000000E+00 0. -1.
        -13    1    3    3    0    0 -0.58478156570E+03 -0.12358288017E+04  0.70245067570E+03  0.15371009266E+04  0.00000000000E+00 0.  1.
         22    1    1    2    0    0  0.10143317689E+04  0.20215681488E+04 -0.19517927257E+04  0.29874908471E+04  0.00000000000E+00 0. -1.
<mgrwt>
<rscale>  0 0.54401757E+04</rscale>
<asrwt>0</asrwt>
<pdfrwt beam="1">  1        2 0.48876463E+00 0.54401757E+04</pdfrwt>
<pdfrwt beam="2">  1       -2 0.35829386E+00 0.54401757E+04</pdfrwt>
<totfact> 0.13003969E-02</totfact>
</mgrwt>
</event>
<event>
 6    1  0.1603085E-006  0.1941386E+04  0.7818608E-02  0.8634526E-01
         -2   -1    0    0    0  501 -0.00000000000E+00  0.00000000000E+00  0.61670252764E+03  0.61670252764E+03  0.00000000000E+00 0.  1.
          2   -1    0    0  501    0  0.00000000000E+00 -0.00000000000E+00 -0.15278764543E+04  0.15278764543E+04  0.00000000000E+00 0. -1.
         23    2    1    2    0    0  0.61628609175E+03 -0.68514480368E+03 -0.12722681839E+03  0.93470088169E+03  0.90813688519E+02 0.  0.
         13    1    3    3    0    0  0.25666965469E+03 -0.32742943964E+03 -0.21683890439E+02  0.41660477756E+03  0.00000000000E+00 0.  1.
        -13    1    3    3    0    0  0.35961643706E+03 -0.35771536403E+03 -0.10554292796E+03  0.51809610413E+03  0.00000000000E+00 0. -1.
         22    1    1    2    0    0 -0.61628609175E+03  0.68514480368E+03 -0.78394710824E+03  0.12098781002E+04  0.00000000000E+00 0. -1.
<mgrwt>
<rscale>  0 0.19413864E+04</rscale>
<asrwt>0</asrwt>
<pdfrwt beam="1">  1        2 0.23505791E+00 0.19413864E+04</pdfrwt>
<pdfrwt beam="2">  1       -2 0.94877313E-01 0.19413864E+04</pdfrwt>
<totfact> 0.10683629E+01</totfact>
</mgrwt>
</event>
<event>
 6    1  0.1603085E-006  0.3925531E+04  0.7818608E-02  0.8019740E-01
          2   -1    0    0  501    0  0.00000000000E+00  0.00000000000E+00  0.35845265886E+04  0.35845265886E+04  0.00000000000E+00 0. -1.
         -2   -1    0    0    0  501 -0.00000000000E+00 -0.00000000000E+00 -0.10747440827E+04  0.10747440827E+04  0.00000000000E+00 0.  1.
         23    2    1    2    0    0  0.65641799633E+03 -0.43661004662E+03  0.33876508988E+04  0.34793698983E+04  0.91232439688E+02 0.  0.
         11    1    3    3    0    0  0.42002734427E+03 -0.24976258049E+03  0.19304115689E+04  0.19913043820E+04  0.00000000000E+00 0.  1.
        -11    1    3    3    0    0  0.23639065206E+03 -0.18684746613E+03  0.14572393300E+04  0.14880655163E+04  0.00000000000E+00 0. -1.
         22    1    1    2    0    0 -0.65641799633E+03  0.43661004662E+03 -0.87786839291E+03  0.11799007729E+04  0.00000000000E+00 0.  1.
<mgrwt>
<rscale>  0 0.39255312E+04</rscale>
<asrwt>0</asrwt>
<pdfrwt beam="1">  1        2 0.55146562E+00 0.39255312E+04</pdfrwt>
<pdfrwt beam="2">  1       -2 0.16534525E+00 0.39255312E+04</pdfrwt>
<totfact> 0.12912308E-01</totfact>
</mgrwt>
</event>
<event>
 6    1  0.1603085E-006  0.1330446E+04  0.7818608E-02  0.9005764E-01
          2   -1    0    0  501    0  0.00000000000E+00  0.00000000000E+00  0.51883312826E+03  0.51883312826E+03  0.00000000000E+00 0. -1.
         -2   -1    0    0    0  501 -0.00000000000E+00 -0.00000000000E+00 -0.85291706736E+03  0.85291706736E+03  0.00000000000E+00 0.  1.
         23    2    1    2    0    0 -0.52872995460E+03 -0.36723027011E+03 -0.81213087268E+01  0.65017894302E+03  0.90847488256E+02 0.  0.
         11    1    3    3    0    0 -0.93303382242E+02 -0.10969142775E+03 -0.90515887722E+01  0.14429019966E+03  0.00000000000E+00 0.  1.
        -11    1    3    3    0    0 -0.43542657235E+03 -0.25753884236E+03  0.93028004538E+00  0.50588874336E+03  0.00000000000E+00 0. -1.
         22    1    1    2    0    0  0.52872995460E+03  0.36723027011E+03 -0.32596263037E+03  0.72157125259E+03  0.00000000000E+00 0. -1.
<mgrwt>
<rscale>  0 0.13304460E+04</rscale>
<asrwt>0</asrwt>
<pdfrwt beam="1">  1        2 0.79820482E-01 0.13304460E+04</pdfrwt>
<pdfrwt beam="2">  1       -2 0.13121801E+00 0.13304460E+04</pdfrwt>
<totfact> 0.24453405E+01</totfact>
</mgrwt>
</event>
<event>
 6    1  0.1603085E-006  0.4220550E+03  0.7818608E-02  0.1036400E+00
         -1   -1    0    0    0  501 -0.00000000000E+00  0.00000000000E+00  0.39130433108E+03  0.39130433108E+03  0.00000000000E+00 0.  1.
          1   -1    0    0  501    0  0.00000000000E+00 -0.00000000000E+00 -0.11380554703E+03  0.11380554703E+03  0.00000000000E+00 0. -1.
         23    2    1    2    0    0 -0.10463460278E+03  0.42049333957E+02  0.34448655026E+03  0.37394621161E+03  0.91914304018E+02 0.  0.
         13    1    3    3    0    0 -0.64048995805E+02  0.21109027705E+01  0.28291161191E+03  0.29007879951E+03  0.00000000000E+00 0. -1.
        -13    1    3    3    0    0 -0.40585606975E+02  0.39938431187E+02  0.61574938355E+02  0.83867412101E+02  0.00000000000E+00 0.  1.
         22    1    1    2    0    0  0.10463460278E+03 -0.42049333957E+02 -0.66987766210E+02  0.13116366649E+03  0.00000000000E+00 0. -1.
<mgrwt>
<rscale>  0 0.42205499E+03</rscale>
<asrwt>0</asrwt>
<pdfrwt beam="1">  1        1 0.17508546E-01 0.42205499E+03</pdfrwt>
<pdfrwt beam="2">  1       -1 0.60200666E-01 0.42205499E+03</pdfrwt>
<totfact> 0.88054706E+02</totfact>
</mgrwt>
</event>
<event>
 6    1  0.1603085E-006  0.5773809E+03  0.7818608E-02  0.9953478E-01
          1   -1    0    0  501    0  0.00000000000E+00  0.00000000000E+00  0.26855948455E+03  0.26855948455E+03  0.00000000000E+00 0.  1.
         -1   -1    0    0    0  501 -0.00000000000E+00 -0.00000000000E+00 -0.31033038235E+03  0.31033038235E+03  0.00000000000E+00 0. -1.
         23    2    1    2    0    0 -0.77383235795E+02  0.69482291706E+02 -0.28375903358E+03  0.31550001915E+03  0.90582111374E+02 0.  0.
         13    1    3    3    0    0 -0.53064156218E+02  0.80263099141E+02 -0.14370777823E+03  0.17294477524E+03  0.00000000000E+00 0.  1.
        -13    1    3    3    0    0 -0.24319079577E+02 -0.10780807436E+02 -0.14005125535E+03  0.14255524391E+03  0.00000000000E+00 0. -1.
         22    1    1    2    0    0  0.77383235795E+02 -0.69482291706E+02  0.24198813578E+03  0.26338984775E+03  0.00000000000E+00 0.  1.
<mgrwt>
<rscale>  0 0.57738087E+03</rscale>
<asrwt>0</asrwt>
<pdfrwt beam="1">  1        1 0.41316844E-01 0.57738087E+03</pdfrwt>
<pdfrwt beam="2">  1       -1 0.47743136E-01 0.57738087E+03</pdfrwt>
<totfact> 0.44926317E+02</totfact>
</mgrwt>
</event>
<event>
 6    1  0.1603085E-006  0.2567609E+04  0.7818608E-02  0.8379288E-01
          2   -1    0    0  501    0  0.00000000000E+00  0.00000000000E+00  0.14328278910E+04  0.14328278910E+04  0.00000000000E+00 0. -1.
         -2   -1    0    0    0  501 -0.00000000000E+00 -0.00000000000E+00 -0.11502806475E+04  0.11502806475E+04  0.00000000000E+00 0.  1.
         23    2    1    2    0    0 -0.19981416838E+03 -0.46926581130E+03  0.13249429043E+04  0.14226238048E+04  0.90822280401E+02 0.  0.
         13    1    3    3    0    0 -0.79210648834E+02 -0.24862724409E+03  0.56954797385E+03  0.62647803465E+03  0.00000000000E+00 0. -1.
        -13    1    3    3    0    0 -0.12060351954E+03 -0.22063856720E+03  0.75539493050E+03  0.79614577013E+03  0.00000000000E+00 0.  1.
         22    1    1    2    0    0  0.19981416838E+03  0.46926581130E+03 -0.10423956608E+04  0.11604847337E+04  0.00000000000E+00 0.  1.
<mgrwt>
<rscale>  0 0.25676092E+04</rscale>
<asrwt>0</asrwt>
<pdfrwt beam="1">  1        2 0.22043506E+00 0.25676092E+04</pdfrwt>
<pdfrwt beam="2">  1       -2 0.17696625E+00 0.25676092E+04</pdfrwt>
<totfact> 0.23399693E+00</totfact>
</mgrwt>
</event>
<event>
 6    1  0.1603085E-006  0.3332335E+04  0.7818608E-02  0.8154716E-01
          1   -1    0    0  501    0  0.00000000000E+00  0.00000000000E+00  0.15015621697E+04  0.15015621697E+04  0.00000000000E+00 0. -1.
         -1   -1    0    0    0  501 -0.00000000000E+00 -0.00000000000E+00 -0.18488170435E+04  0.18488170435E+04  0.00000000000E+00 0.  1.
         23    2    1    2    0    0  0.60715008871E+03  0.27312199648E+03  0.13607734154E+04  0.15171886907E+04  0.83248902922E+02 0.  0.
         13    1    3    3    0    0  0.14244001380E+03  0.50432527889E+02  0.38737784842E+03  0.41580547717E+03  0.00000000000E+00 0. -1.
        -13    1    3    3    0    0  0.46471007492E+03  0.22268946859E+03  0.97339556702E+03  0.11013832135E+04  0.00000000000E+00 0.  1.
         22    1    1    2    0    0 -0.60715008871E+03 -0.27312199648E+03 -0.17080282892E+04  0.18331905225E+04  0.00000000000E+00 0.  1.
<mgrwt>
<rscale>  0 0.33323348E+04</rscale>
<asrwt>0</asrwt>
<pdfrwt beam="1">  1        1 0.23100957E+00 0.33323348E+04</pdfrwt>
<pdfrwt beam="2">  1       -1 0.28443339E+00 0.33323348E+04</pdfrwt>
<totfact> 0.22490293E-01</totfact>
</mgrwt>
</event>
<event>
 6    1  0.1603085E-006  0.1419411E+04  0.7818608E-02  0.8939886E-01
         -2   -1    0    0    0  501 -0.00000000000E+00  0.00000000000E+00  0.40628709573E+03  0.40628709573E+03  0.00000000000E+00 0.  1.
          2   -1    0    0  501    0  0.00000000000E+00 -0.00000000000E+00 -0.12397198225E+04  0.12397198225E+04  0.00000000000E+00 0. -1.
         23    2    1    2    0    0 -0.38386822250E+03 -0.29361779136E+03 -0.10164626946E+04  0.11292224480E+04  0.91546206495E+02 0.  0.
         13    1    3    3    0    0 -0.19662487325E+03 -0.17719695044E+03 -0.46073783006E+03  0.53135623463E+03  0.00000000000E+00 0. -1.
        -13    1    3    3    0    0 -0.18724334925E+03 -0.11642084092E+03 -0.55572486450E+03  0.59786621335E+03  0.00000000000E+00 0.  1.
         22    1    1    2    0    0  0.38386822250E+03  0.29361779136E+03  0.18302996775E+03  0.51678447030E+03  0.00000000000E+00 0.  1.
<mgrwt>
<rscale>  0 0.14194114E+04</rscale>
<asrwt>0</asrwt>
<pdfrwt beam="1">  1        2 0.19072613E+00 0.14194114E+04</pdfrwt>
<pdfrwt beam="2">  1       -2 0.62505707E-01 0.14194114E+04</pdfrwt>
<totfact> 0.41390909E+01</totfact>
</mgrwt>
</event>
<event>
 6    1  0.1603085E-006  0.2593549E+04  0.7818608E-02  0.8370396E-01
         -1   -1    0    0    0  501 -0.00000000000E+00  0.00000000000E+00  0.59639906343E+03  0.59639906343E+03  0.00000000000E+00 0. -1.
          1   -1    0    0  501    0  0.00000000000E+00 -0.00000000000E+00 -0.28196294208E+04  0.28196294208E+04  0.00000000000E+00 0.  1.
         23    2    1    2    0    0 -0.50040597246E+03 -0.44421897989E+03 -0.25736634504E+04  0.26606875069E+04  0.88191914331E+02 0.  0.
         11    1    3    3    0    0 -0.31922557471E+03 -0.25779451541E+03 -0.17232783742E+04  0.17714545816E+04  0.00000000000E+00 0. -1.
        -11    1    3    3    0    0 -0.18118039775E+03 -0.18642446448E+03 -0.85038507621E+03  0.88923292523E+03  0.00000000000E+00 0.  1.
         22    1    1    2    0    0  0.50040597246E+03  0.44421897989E+03  0.35043309305E+03  0.75534097736E+03  0.00000000000E+00 0. -1.
<mgrwt>
<rscale>  0 0.25935492E+04</rscale>
<asrwt>0</asrwt>
<pdfrwt beam="1">  1        1 0.43378914E+00 0.25935492E+04</pdfrwt>
<pdfrwt beam="2">  1       -1 0.91753702E-01 0.25935492E+04</pdfrwt>
<totfact> 0.82267965E-01</totfact>
</mgrwt>
</event>
<event>
 6    1  0.1603085E-006  0.4114015E+04  0.7818608E-02  0.7981933E-01
         -1   -1    0    0    0  501 -0.00000000000E+00  0.00000000000E+00  0.18948926318E+04  0.18948926318E+04  0.00000000000E+00 0.  1.
          1   -1    0    0  501    0  0.00000000000E+00 -0.00000000000E+00 -0.22329920607E+04  0.22329920607E+04  0.00000000000E+00 0. -1.
         23    2    1    2    0    0 -0.16140307922E+04 -0.93535819852E+03  0.69819393452E+03  0.19938991506E+04  0.90380832490E+02 0.  0.
         13    1    3    3    0    0 -0.73380535547E+03 -0.43144346858E+03  0.36638049911E+03  0.92674076010E+03  0.00000000000E+00 0.  1.
        -13    1    3    3    0    0 -0.88022543677E+03 -0.50391472995E+03  0.33181343542E+03  0.10671583905E+04  0.00000000000E+00 0. -1.
         22    1    1    2    0    0  0.16140307922E+04  0.93535819852E+03 -0.10362933634E+04  0.21339855419E+04  0.00000000000E+00 0. -1.
<mgrwt>
<rscale>  0 0.41140152E+04</rscale>
<asrwt>0</asrwt>
<pdfrwt beam="1">  1        1 0.34353724E+00 0.41140152E+04</pdfrwt>
<pdfrwt beam="2">  1       -1 0.29152194E+00 0.41140152E+04</pdfrwt>
<totfact> 0.60114269E-02</totfact>
</mgrwt>
</event>
<event>
 6    1  0.1603085E-006  0.1190882E+04  0.7818608E-02  0.9120875E-01
          2   -1    0    0  501    0  0.00000000000E+00  0.00000000000E+00  0.62201053804E+03  0.62201053804E+03  0.00000000000E+00 0. -1.
         -2   -1    0    0    0  501 -0.00000000000E+00 -0.00000000000E+00 -0.57000630109E+03  0.57000630109E+03  0.00000000000E+00 0.  1.
         23    2    1    2    0    0  0.23927932747E+03  0.53041982873E+03 -0.82259958676E+02  0.59483456755E+03  0.91987339754E+02 0.  0.
         11    1    3    3    0    0  0.75013504597E+02  0.14782741249E+03  0.17478569340E+02  0.16668974216E+03  0.00000000000E+00 0. -1.
        -11    1    3    3    0    0  0.16426582288E+03  0.38259241624E+03 -0.99738528017E+02  0.42814482538E+03  0.00000000000E+00 0.  1.
         22    1    1    2    0    0 -0.23927932747E+03 -0.53041982873E+03  0.13426419563E+03  0.59718227159E+03  0.00000000000E+00 0. -1.
<mgrwt>
<rscale>  0 0.11908819E+04</rscale>
<asrwt>0</asrwt>
<pdfrwt beam="1">  1        2 0.95693928E-01 0.11908819E+04</pdfrwt>
<pdfrwt beam="2">  1       -2 0.87693278E-01 0.11908819E+04</pdfrwt>
<totfact> 0.52603805E+01</totfact>
</mgrwt>
</event>
<event>
 6    1  0.2668625E-006  0.3337073E+04  0.7818608E-02  0.8153526E-01
         -2   -1    0    0    0  501 -0.00000000000E+00  0.00000000000E+00  0.13990569082E+04  0.13990569082E+04  0.00000000000E+00 0.  1.
          2   -1    0    0  501    0  0.00000000000E+00 -0.00000000000E+00 -0.19899217716E+04  0.19899217716E+04  0.00000000000E+00 0. -1.
         23    2    1    2    0    0 -0.11910780156E+04  0.24926984066E+03 -0.14531655754E+04  0.18975482219E+04  0.90536027072E+02 0.  0.
         11    1    3    3    0    0 -0.62593566558E+03  0.96812236513E+02 -0.70781469529E+03  0.94982614696E+03  0.00000000000E+00 0.  1.
        -11    1    3    3    0    0 -0.56514235006E+03  0.15245760414E+03 -0.74535088006E+03  0.94772207493E+03  0.00000000000E+00 0. -1.
         22    1    1    2    0    0  0.11910780156E+04 -0.24926984066E+03  0.86230071195E+03  0.14914304579E+04  0.00000000000E+00 0.  1.
<mgrwt>
<rscale>  0 0.33370728E+04</rscale>
<asrwt>0</asrwt>
<pdfrwt beam="1">  1        2 0.30614181E+00 0.33370728E+04</pdfrwt>
<pdfrwt beam="2">  1       -2 0.21523953E+00 0.33370728E+04</pdfrwt>
<totfact> 0.59729696E-01</totfact>
</mgrwt>
</event>
<event>
 6    1  0.1603085E-006  0.7402954E+03  0.7818608E-02  0.9650700E-01
         -2   -1    0    0    0  501 -0.00000000000E+00  0.00000000000E+00  0.60438417282E+03  0.60438417282E+03  0.00000000000E+00 0.  1.
          2   -1    0    0  501    0  0.00000000000E+00 -0.00000000000E+00 -0.22669244778E+03  0.22669244778E+03  0.00000000000E+00 0. -1.
         23    2    1    2    0    0 -0.16028654607E+03 -0.30247099688E+03  0.51217538608E+02  0.35803764206E+03  0.91581854441E+02 0.  0.
         11    1    3    3    0    0 -0.13216358477E+03 -0.16019194432E+03  0.13135622701E+02  0.20808944411E+03  0.00000000000E+00 0.  1.
        -11    1    3    3    0    0 -0.28122961301E+02 -0.14227905256E+03  0.38081915908E+02  0.14994819795E+03  0.00000000000E+00 0. -1.
         22    1    1    2    0    0  0.16028654607E+03  0.30247099688E+03  0.32647418643E+03  0.47303897853E+03  0.00000000000E+00 0.  1.
<mgrwt>
<rscale>  0 0.74029542E+03</rscale>
<asrwt>0</asrwt>
<pdfrwt beam="1">  1        2 0.34875761E-01 0.74029542E+03</pdfrwt>
<pdfrwt beam="2">  1       -2 0.92982180E-01 0.74029542E+03</pdfrwt>
<totfact> 0.14850132E+02</totfact>
</mgrwt>
</event>
<event>
 6    1  0.1603085E-006  0.1978314E+04  0.7818608E-02  0.8616827E-01
         -2   -1    0    0    0  501 -0.00000000000E+00  0.00000000000E+00  0.57421759025E+03  0.57421759025E+03  0.00000000000E+00 0.  1.
          2   -1    0    0  501    0  0.00000000000E+00 -0.00000000000E+00 -0.17039385853E+04  0.17039385853E+04  0.00000000000E+00 0. -1.
         23    2    1    2    0    0  0.50417993916E+03  0.19655743670E+03 -0.15162277177E+04  0.16131601728E+04  0.10250372787E+03 0.  0.
         11    1    3    3    0    0  0.39942466042E+03  0.12871712020E+03 -0.12621188902E+04  0.13300572353E+04  0.00000000000E+00 0. -1.
        -11    1    3    3    0    0  0.10475527875E+03  0.67840316492E+02 -0.25410882752E+03  0.28310293745E+03  0.00000000000E+00 0.  1.
         22    1    1    2    0    0 -0.50417993916E+03 -0.19655743670E+03  0.38650672267E+03  0.66499600273E+03  0.00000000000E+00 0.  1.
<mgrwt>
<rscale>  0 0.19783139E+04</rscale>
<asrwt>0</asrwt>
<pdfrwt beam="1">  1        2 0.26214439E+00 0.19783139E+04</pdfrwt>
<pdfrwt beam="2">  1       -2 0.88341169E-01 0.19783139E+04</pdfrwt>
<totfact> 0.10017366E+01</totfact>
</mgrwt>
</event>
<event>
 6    1  0.1603085E-006  0.1001334E+04  0.7818608E-02  0.9307083E-01
         -2   -1    0    0    0  501 -0.00000000000E+00  0.00000000000E+00  0.34756596114E+03  0.34756596114E+03  0.00000000000E+00 0.  1.
          2   -1    0    0  501    0  0.00000000000E+00 -0.00000000000E+00 -0.72120774486E+03  0.72120774486E+03  0.00000000000E+00 0. -1.
         23    2    1    2    0    0 -0.52905126841E+02  0.21949822048E+03 -0.66029878460E+03  0.70387555940E+03  0.92021176619E+02 0.  0.
         13    1    3    3    0    0 -0.67518119406E+02  0.15302150271E+03 -0.37564690989E+03  0.41119931621E+03  0.00000000000E+00 0.  1.
        -13    1    3    3    0    0  0.14612992565E+02  0.66476717765E+02 -0.28465187471E+03  0.29267624319E+03  0.00000000000E+00 0. -1.
         22    1    1    2    0    0  0.52905126841E+02 -0.21949822048E+03  0.28665700088E+03  0.36489814660E+03  0.00000000000E+00 0.  1.
<mgrwt>
<rscale>  0 0.10013336E+04</rscale>
<asrwt>0</asrwt>
<pdfrwt beam="1">  1        2 0.11095504E+00 0.10013336E+04</pdfrwt>
<pdfrwt beam="2">  1       -2 0.53471686E-01 0.10013336E+04</pdfrwt>
<totfact> 0.12983010E+02</totfact>
</mgrwt>
</event>
<event>
 6    1  0.1603085E-006  0.1002140E+04  0.7818608E-02  0.9306201E-01
         -2   -1    0    0    0  501 -0.00000000000E+00  0.00000000000E+00  0.72892744423E+02  0.72892744423E+02  0.00000000000E+00 0.  1.
          2   -1    0    0  501    0  0.00000000000E+00 -0.00000000000E+00 -0.34443901790E+04  0.34443901790E+04  0.00000000000E+00 0. -1.
         23    2    1    2    0    0  0.28006653671E+03 -0.39393982363E+03 -0.12930719701E+04  0.13833948614E+04  0.90113113428E+02 0.  0.
         13    1    3    3    0    0  0.87972977397E+02 -0.64542433972E+02 -0.24845409883E+03  0.27135660994E+03  0.00000000000E+00 0. -1.
        -13    1    3    3    0    0  0.19209355931E+03 -0.32939738966E+03 -0.10446178712E+04  0.11120382515E+04  0.00000000000E+00 0.  1.
         22    1    1    2    0    0 -0.28006653671E+03  0.39393982363E+03 -0.20784254645E+04  0.21338880620E+04  0.00000000000E+00 0. -1.
<mgrwt>
<rscale>  0 0.10021398E+04</rscale>
<asrwt>0</asrwt>
<pdfrwt beam="1">  1        2 0.52990615E+00 0.10021398E+04</pdfrwt>
<pdfrwt beam="2">  1       -2 0.11214269E-01 0.10021398E+04</pdfrwt>
<totfact> 0.52528121E+01</totfact>
</mgrwt>
</event>
<event>
 6    1  0.1603085E-006  0.9316131E+03  0.7818608E-02  0.9386904E-01
          1   -1    0    0  501    0  0.00000000000E+00  0.00000000000E+00  0.29962177027E+03  0.29962177027E+03  0.00000000000E+00 0. -1.
         -1   -1    0    0    0  501 -0.00000000000E+00 -0.00000000000E+00 -0.72416551752E+03  0.72416551752E+03  0.00000000000E+00 0.  1.
         23    2    1    2    0    0 -0.31608787921E+03 -0.28219882119E+03 -0.41482987017E+03  0.59994524001E+03  0.91119414807E+02 0.  0.
         13    1    3    3    0    0 -0.17208186992E+03 -0.21223034680E+03 -0.25582400127E+03  0.37429909122E+03  0.00000000000E+00 0. -1.
        -13    1    3    3    0    0 -0.14400600929E+03 -0.69968474394E+02 -0.15900586890E+03  0.22564614879E+03  0.00000000000E+00 0.  1.
         22    1    1    2    0    0  0.31608787921E+03  0.28219882119E+03 -0.97138770822E+01  0.42384204779E+03  0.00000000000E+00 0. -1.
<mgrwt>
<rscale>  0 0.93161313E+03</rscale>
<asrwt>0</asrwt>
<pdfrwt beam="1">  1        1 0.46095658E-01 0.93161313E+03</pdfrwt>
<pdfrwt beam="2">  1       -1 0.11141008E+00 0.93161313E+03</pdfrwt>
<totfact> 0.65473282E+01</totfact>
</mgrwt>
</event>
<event>
 6    1  0.1603085E-006  0.2546116E+04  0.7818608E-02  0.8386738E-01
         -1   -1    0    0    0  501 -0.00000000000E+00  0.00000000000E+00  0.20590731681E+04  0.20590731681E+04  0.00000000000E+00 0.  1.
          1   -1    0    0  501    0  0.00000000000E+00 -0.00000000000E+00 -0.78709022327E+03  0.78709022327E+03  0.00000000000E+00 0. -1.
         23    2    1    2    0    0 -0.72935228178E+03 -0.17424279072E+03  0.17847089387E+04  0.19377564089E+04  0.86015135574E+02 0.  0.
         11    1    3    3    0    0 -0.12488212864E+03 -0.31558397111E+02  0.23055913691E+03  0.26410034853E+03  0.00000000000E+00 0. -1.
        -11    1    3    3    0    0 -0.60447015314E+03 -0.14268439361E+03  0.15541498017E+04  0.16736560604E+04  0.00000000000E+00 0.  1.
         22    1    1    2    0    0  0.72935228178E+03  0.17424279072E+03 -0.51272599382E+03  0.90840698246E+03  0.00000000000E+00 0. -1.
<mgrwt>
<rscale>  0 0.25461158E+04</rscale>
<asrwt>0</asrwt>
<pdfrwt beam="1">  1        1 0.12109080E+00 0.25461158E+04</pdfrwt>
<pdfrwt beam="2">  1       -1 0.31678049E+00 0.25461158E+04</pdfrwt>
<totfact> 0.51589767E-01</totfact>
</mgrwt>
</event>
<event>
 6    1  0.1603085E-006  0.3504122E+04  0.7818608E-02  0.8112814E-01
         -2   -1    0    0    0  501 -0.00000000000E+00  0.00000000000E+00  0.13266923850E+04  0.13266923850E+04  0.00000000000E+00 0.  1.
          2   -1    0    0  501    0  0.00000000000E+00 -0.00000000000E+00 -0.23138132958E+04  0.23138132958E+04  0.00000000000E+00 0. -1.
         23    2    1    2    0    0 -0.36640047041E+03 -0.73429477939E+03  0.11129752558E+04  0.13857679938E+04  0.90558736276E+02 0.  0.
         13    1    3    3    0    0 -0.16426666389E+03 -0.30604255762E+03  0.39882579601E+03  0.52887389754E+03  0.00000000000E+00 0. -1.
        -13    1    3    3    0    0 -0.20213380652E+03 -0.42825222178E+03  0.71414945983E+03  0.85689409624E+03  0.00000000000E+00 0.  1.
         22    1    1    2    0    0  0.36640047041E+03  0.73429477939E+03 -0.21000961667E+04  0.22547376870E+04  0.00000000000E+00 0. -1.
<mgrwt>
<rscale>  0 0.35041224E+04</rscale>
<asrwt>0</asrwt>
<pdfrwt beam="1">  1        2 0.35597127E+00 0.35041224E+04</pdfrwt>
<pdfrwt beam="2">  1       -2 0.20410652E+00 0.35041224E+04</pdfrwt>
<totfact> 0.45724926E-01</totfact>
</mgrwt>
</event>
<event>
 6    1  0.1603085E-006  0.6704285E+03  0.7818608E-02  0.9769184E-01
         -1   -1    0    0    0  501 -0.00000000000E+00  0.00000000000E+00  0.86626018341E+03  0.86626018341E+03  0.00000000000E+00 0.  1.
          1   -1    0    0  501    0  0.00000000000E+00 -0.00000000000E+00 -0.12971690805E+03  0.12971690805E+03  0.00000000000E+00 0. -1.
         23    2    1    2    0    0  0.14500433435E+03 -0.29330821249E+03  0.32796990453E+03  0.47253830436E+03  0.93124788932E+02 0.  0.
         13    1    3    3    0    0  0.73675241492E+02 -0.17454277002E+03  0.24963494184E+03  0.31338606217E+03  0.00000000000E+00 0.  1.
        -13    1    3    3    0    0  0.71329092858E+02 -0.11876544248E+03  0.78334962688E+02  0.15915224219E+03  0.00000000000E+00 0. -1.
         22    1    1    2    0    0 -0.14500433435E+03  0.29330821249E+03  0.40857337083E+03  0.52343878711E+03  0.00000000000E+00 0. -1.
<mgrwt>
<rscale>  0 0.67042850E+03</rscale>
<asrwt>0</asrwt>
<pdfrwt beam="1">  1        1 0.19956448E-01 0.67042850E+03</pdfrwt>
<pdfrwt beam="2">  1       -1 0.13327079E+00 0.67042850E+03</pdfrwt>
<totfact> 0.12765881E+02</totfact>
</mgrwt>
</event>
<event>
 6    1  0.1603085E-006  0.1890762E+04  0.7818608E-02  0.8659468E-01
         -2   -1    0    0    0  501 -0.00000000000E+00  0.00000000000E+00  0.46013965625E+03  0.46013965625E+03  0.00000000000E+00 0.  1.
          2   -1    0    0  501    0  0.00000000000E+00 -0.00000000000E+00 -0.19423347510E+04  0.19423347510E+04  0.00000000000E+00 0. -1.
         23    2    1    2    0    0 -0.77336740969E+03 -0.10736869667E+03 -0.71695265199E+02  0.79029111850E+03  0.98967941898E+02 0.  0.
         11    1    3    3    0    0 -0.50546809156E+03 -0.11324470655E+03 -0.66752597021E+02  0.52228178635E+03  0.00000000000E+00 0. -1.
        -11    1    3    3    0    0 -0.26789931813E+03  0.58760098741E+01 -0.49426681778E+01  0.26800933215E+03  0.00000000000E+00 0.  1.
         22    1    1    2    0    0  0.77336740969E+03  0.10736869667E+03 -0.14104998296E+04  0.16121832888E+04  0.00000000000E+00 0. -1.
<mgrwt>
<rscale>  0 0.18907620E+04</rscale>
<asrwt>0</asrwt>
<pdfrwt beam="1">  1        2 0.29882073E+00 0.18907620E+04</pdfrwt>
<pdfrwt beam="2">  1       -2 0.70790716E-01 0.18907620E+04</pdfrwt>
<totfact> 0.12227196E+01</totfact>
</mgrwt>
</event>
<event>
 6    1  0.1603085E-006  0.4308271E+04  0.7818608E-02  0.7945090E-01
         -2   -1    0    0    0  501 -0.00000000000E+00  0.00000000000E+00  0.96923174074E+03  0.96923174074E+03  0.00000000000E+00 0.  1.
          2   -1    0    0  501    0  0.00000000000E+00 -0.00000000000E+00 -0.47876065281E+04  0.47876065281E+04  0.00000000000E+00 0. -1.
         23    2    1    2    0    0  0.64140483500E+03 -0.15445020254E+04 -0.97153468742E+02  0.16770864662E+04  0.79331897041E+02 0.  0.
         11    1    3    3    0    0  0.19921828923E+02 -0.21322700532E+02 -0.15439404554E+01  0.29221919474E+02  0.00000000000E+00 0.  1.
        -11    1    3    3    0    0  0.62148300607E+03 -0.15231793249E+04 -0.95609528287E+02  0.16478645468E+04  0.00000000000E+00 0. -1.
         22    1    1    2    0    0 -0.64140483500E+03  0.15445020254E+04 -0.37212213186E+04  0.40797518026E+04  0.00000000000E+00 0. -1.
<mgrwt>
<rscale>  0 0.43082712E+04</rscale>
<asrwt>0</asrwt>
<pdfrwt beam="1">  1        2 0.73655484E+00 0.43082712E+04</pdfrwt>
<pdfrwt beam="2">  1       -2 0.14911258E+00 0.43082712E+04</pdfrwt>
<totfact> 0.14237907E-02</totfact>
</mgrwt>
</event>
<event>
 6    1  0.1603085E-006  0.2519505E+04  0.7818608E-02  0.8396070E-01
         -2   -1    0    0    0  501 -0.00000000000E+00  0.00000000000E+00  0.17599806611E+04  0.17599806611E+04  0.00000000000E+00 0.  1.
          2   -1    0    0  501    0  0.00000000000E+00 -0.00000000000E+00 -0.90170086063E+03  0.90170086063E+03  0.00000000000E+00 0. -1.
         23    2    1    2    0    0 -0.33898579495E+03  0.78083689109E+03  0.14083294315E+04  0.16481864718E+04  0.92245533136E+02 0.  0.
         13    1    3    3    0    0 -0.16342713772E+03  0.26890773163E+03  0.49494285883E+03  0.58650509885E+03  0.00000000000E+00 0.  1.
        -13    1    3    3    0    0 -0.17555865723E+03  0.51192915946E+03  0.91338657267E+03  0.10616813729E+04  0.00000000000E+00 0. -1.
         22    1    1    2    0    0  0.33898579495E+03 -0.78083689109E+03 -0.55004963105E+03  0.10134950500E+04  0.00000000000E+00 0. -1.
<mgrwt>
<rscale>  0 0.25195048E+04</rscale>
<asrwt>0</asrwt>
<pdfrwt beam="1">  1        2 0.13872321E+00 0.25195048E+04</pdfrwt>
<pdfrwt beam="2">  1       -2 0.27076626E+00 0.25195048E+04</pdfrwt>
<totfact> 0.12485150E+00</totfact>
</mgrwt>
</event>
<event>
 6    1  0.2168878E-006  0.5178534E+04  0.7818608E-02  0.7801542E-01
         -2   -1    0    0    0  501 -0.00000000000E+00  0.00000000000E+00  0.30835187933E+04  0.30835187933E+04  0.00000000000E+00 0.  1.
          2   -1    0    0  501    0  0.00000000000E+00 -0.00000000000E+00 -0.21742381763E+04  0.21742381763E+04  0.00000000000E+00 0. -1.
         23    2    1    2    0    0 -0.92220896419E+03 -0.32356061555E+02 -0.20006123213E+04  0.22050543637E+04  0.91097739769E+02 0.  0.
         11    1    3    3    0    0 -0.38313829328E+03  0.19066736945E+02 -0.90398316581E+03  0.98201021191E+03  0.00000000000E+00 0.  1.
        -11    1    3    3    0    0 -0.53907067091E+03 -0.51422798501E+02 -0.10966291555E+04  0.12230441517E+04  0.00000000000E+00 0. -1.
         22    1    1    2    0    0  0.92220896419E+03  0.32356061555E+02  0.29098929383E+04  0.30527026060E+04  0.00000000000E+00 0.  1.
<mgrwt>
<rscale>  0 0.51785343E+04</rscale>
<asrwt>0</asrwt>
<pdfrwt beam="1">  1        2 0.33449818E+00 0.51785343E+04</pdfrwt>
<pdfrwt beam="2">  1       -2 0.47438751E+00 0.51785343E+04</pdfrwt>
<totfact> 0.92486430E-03</totfact>
</mgrwt>
</event>
<event>
 6    1  0.1603085E-006  0.6812949E+04  0.7818608E-02  0.7597040E-01
          1   -1    0    0  501    0  0.00000000000E+00  0.00000000000E+00  0.33479278554E+04  0.33479278554E+04  0.00000000000E+00 0. -1.
         -1   -1    0    0    0  501 -0.00000000000E+00 -0.00000000000E+00 -0.34660451190E+04  0.34660451190E+04  0.00000000000E+00 0.  1.
         23    2    1    2    0    0  0.17154408493E+04  0.20161558407E+04  0.20841948980E+04  0.33704572507E+04  0.92152180194E+02 0.  0.
         11    1    3    3    0    0  0.11065834020E+04  0.12365236483E+04  0.13264334512E+04  0.21243689083E+04  0.00000000000E+00 0.  1.
        -11    1    3    3    0    0  0.60885744730E+03  0.77963219243E+03  0.75776144689E+03  0.12460883424E+04  0.00000000000E+00 0. -1.
         22    1    1    2    0    0 -0.17154408493E+04 -0.20161558407E+04 -0.22023121617E+04  0.34435157236E+04  0.00000000000E+00 0.  1.
<mgrwt>
<rscale>  0 0.68129491E+04</rscale>
<asrwt>0</asrwt>
<pdfrwt beam="1">  1        1 0.51506583E+00 0.68129491E+04</pdfrwt>
<pdfrwt beam="2">  1       -1 0.53323771E+00 0.68129491E+04</pdfrwt>
<totfact> 0.19553371E-04</totfact>
</mgrwt>
</event>
<event>
 6    1  0.1603085E-006  0.1407634E+04  0.7818608E-02  0.8948311E-01
         -1   -1    0    0    0  501 -0.00000000000E+00  0.00000000000E+00  0.20590371979E+03  0.20590371979E+03  0.00000000000E+00 0.  1.
          1   -1    0    0  501    0  0.00000000000E+00 -0.00000000000E+00 -0.24057762248E+04  0.24057762248E+04  0.00000000000E+00 0. -1.
         23    2    1    2    0    0  0.91094849064E+02 -0.67092153911E+03 -0.75887038966E+03  0.10195363959E+04  0.71667364273E+02 0.  0.
         13    1    3    3    0    0  0.69223675642E+02 -0.28405376676E+03 -0.29905683931E+03  0.41822655681E+03  0.00000000000E+00 0.  1.
        -13    1    3    3    0    0  0.21871173422E+02 -0.38686777235E+03 -0.45981355035E+03  0.60130983910E+03  0.00000000000E+00 0. -1.
         22    1    1    2    0    0 -0.91094849064E+02  0.67092153911E+03 -0.14410021153E+04  0.15921435487E+04  0.00000000000E+00 0. -1.
<mgrwt>
<rscale>  0 0.14076339E+04</rscale>
<asrwt>0</asrwt>
<pdfrwt beam="1">  1        1 0.37011942E+00 0.14076339E+04</pdfrwt>
<pdfrwt beam="2">  1       -1 0.31677495E-01 0.14076339E+04</pdfrwt>
<totfact> 0.14260619E+01</totfact>
</mgrwt>
</event>
<event>
 6    1  0.1603085E-006  0.1603267E+04  0.7818608E-02  0.8818543E-01
          2   -1    0    0  501    0  0.00000000000E+00  0.00000000000E+00  0.82115275104E+03  0.82115275104E+03  0.00000000000E+00 0.  1.
         -2   -1    0    0    0  501 -0.00000000000E+00 -0.00000000000E+00 -0.78257821989E+03  0.78257821989E+03  0.00000000000E+00 0. -1.
         23    2    1    2    0    0 -0.29505266586E+03 -0.73439949991E+03  0.12961539792E+03  0.80705842808E+03  0.90246627984E+02 0.  0.
         11    1    3    3    0    0 -0.16254748989E+03 -0.35195421265E+03  0.22269587519E+02  0.38831609392E+03  0.00000000000E+00 0.  1.
        -11    1    3    3    0    0 -0.13250517597E+03 -0.38244528726E+03  0.10734581040E+03  0.41874233416E+03  0.00000000000E+00 0. -1.
         22    1    1    2    0    0  0.29505266586E+03  0.73439949991E+03 -0.91040866768E+02  0.79667254285E+03  0.00000000000E+00 0.  1.
<mgrwt>
<rscale>  0 0.16032670E+04</rscale>
<asrwt>0</asrwt>
<pdfrwt beam="1">  1        2 0.12633119E+00 0.16032670E+04</pdfrwt>
<pdfrwt beam="2">  1       -2 0.12039665E+00 0.16032670E+04</pdfrwt>
<totfact> 0.16793256E+01</totfact>
</mgrwt>
</event>
<event>
 6    1  0.1603085E-006  0.1065189E+04  0.7818608E-02  0.9239801E-01
         -1   -1    0    0    0  501 -0.00000000000E+00  0.00000000000E+00  0.14355481469E+04  0.14355481469E+04  0.00000000000E+00 0.  1.
          1   -1    0    0  501    0  0.00000000000E+00 -0.00000000000E+00 -0.19759494959E+03  0.19759494959E+03  0.00000000000E+00 0. -1.
         23    2    1    2    0    0 -0.44970563538E+03  0.96172534477E+02  0.10236421023E+04  0.11257836969E+04  0.89785654691E+02 0.  0.
         13    1    3    3    0    0 -0.25881676873E+03  0.10000256444E+03  0.62100378654E+03  0.68017081352E+03  0.00000000000E+00 0. -1.
        -13    1    3    3    0    0 -0.19088886665E+03 -0.38300299584E+01  0.40263831578E+03  0.44561288342E+03  0.00000000000E+00 0.  1.
         22    1    1    2    0    0  0.44970563538E+03 -0.96172534477E+02  0.21431109502E+03  0.50735939957E+03  0.00000000000E+00 0. -1.
<mgrwt>
<rscale>  0 0.10651893E+04</rscale>
<asrwt>0</asrwt>
<pdfrwt beam="1">  1        1 0.30399224E-01 0.10651893E+04</pdfrwt>
<pdfrwt beam="2">  1       -1 0.22085355E+00 0.10651893E+04</pdfrwt>
<totfact> 0.16432515E+01</totfact>
</mgrwt>
</event>
<event>
 6    1  0.1603085E-006  0.2252203E+04  0.7818608E-02  0.8497009E-01
         -2   -1    0    0    0  501 -0.00000000000E+00  0.00000000000E+00  0.70723315351E+03  0.70723315351E+03  0.00000000000E+00 0.  1.
          2   -1    0    0  501    0  0.00000000000E+00 -0.00000000000E+00 -0.17930498288E+04  0.17930498288E+04  0.00000000000E+00 0. -1.
         23    2    1    2    0    0 -0.25660771828E+03 -0.82352093670E+03 -0.13441450242E+04  0.15998565334E+04  0.93706067233E+02 0.  0.
         13    1    3    3    0    0 -0.15411582916E+03 -0.37291239047E+03 -0.57224439650E+03  0.70019924956E+03  0.00000000000E+00 0.  1.
        -13    1    3    3    0    0 -0.10249188911E+03 -0.45060854623E+03 -0.77190062767E+03  0.89965728379E+03  0.00000000000E+00 0. -1.
         22    1    1    2    0    0  0.25660771828E+03  0.82352093670E+03  0.25832834884E+03  0.90042644901E+03  0.00000000000E+00 0.  1.
<mgrwt>
<rscale>  0 0.22522027E+04</rscale>
<asrwt>0</asrwt>
<pdfrwt beam="1">  1        2 0.27585382E+00 0.22522027E+04</pdfrwt>
<pdfrwt beam="2">  1       -2 0.10880510E+00 0.22522027E+04</pdfrwt>
<totfact> 0.53456900E+00</totfact>
</mgrwt>
</event>
<event>
 6    1  0.1603085E-006  0.1271527E+04  0.7818608E-02  0.9052454E-01
          1   -1    0    0  501    0  0.00000000000E+00  0.00000000000E+00  0.26555776607E+04  0.26555776607E+04  0.00000000000E+00 0. -1.
         -1   -1    0    0    0  501 -0.00000000000E+00 -0.00000000000E+00 -0.15220609568E+03  0.15220609568E+03  0.00000000000E+00 0.  1.
         23    2    1    2    0    0  0.30052577818E+03 -0.54442566335E+03  0.10019234631E+04  0.11826494699E+04  0.89967197011E+02 0.  0.
         11    1    3    3    0    0  0.99714127038E+02 -0.10837775239E+03  0.26436910408E+03  0.30262132697E+03  0.00000000000E+00 0.  1.
        -11    1    3    3    0    0  0.20081165114E+03 -0.43604791095E+03  0.73755435905E+03  0.88002814298E+03  0.00000000000E+00 0. -1.
         22    1    1    2    0    0 -0.30052577818E+03  0.54442566335E+03  0.15014481019E+04  0.16251342864E+04  0.00000000000E+00 0. -1.
<mgrwt>
<rscale>  0 0.12715268E+04</rscale>
<asrwt>0</asrwt>
<pdfrwt beam="1">  1        1 0.40855038E+00 0.12715268E+04</pdfrwt>
<pdfrwt beam="2">  1       -1 0.23416324E-01 0.12715268E+04</pdfrwt>
<totfact> 0.16378688E+01</totfact>
</mgrwt>
</event>
<event>
 6    1  0.1603085E-006  0.1267424E+04  0.7818608E-02  0.9055805E-01
         -2   -1    0    0    0  501 -0.00000000000E+00  0.00000000000E+00  0.60436499703E+03  0.60436499703E+03  0.00000000000E+00 0.  1.
          2   -1    0    0  501    0  0.00000000000E+00 -0.00000000000E+00 -0.66448428184E+03  0.66448428184E+03  0.00000000000E+00 0. -1.
         23    2    1    2    0    0  0.38459557493E+03 -0.48807468831E+02 -0.52785335945E+03  0.66133706514E+03  0.91878285627E+02 0.  0.
         11    1    3    3    0    0  0.60070180317E+02  0.20734627071E+02 -0.57666109410E+02  0.85812187349E+02  0.00000000000E+00 0. -1.
        -11    1    3    3    0    0  0.32452539461E+03 -0.69542095902E+02 -0.47018725004E+03  0.57552487779E+03  0.00000000000E+00 0.  1.
         22    1    1    2    0    0 -0.38459557493E+03  0.48807468831E+02  0.46773407464E+03  0.60751221374E+03  0.00000000000E+00 0.  1.
<mgrwt>
<rscale>  0 0.12674242E+04</rscale>
<asrwt>0</asrwt>
<pdfrwt beam="1">  1        2 0.10222835E+00 0.12674242E+04</pdfrwt>
<pdfrwt beam="2">  1       -2 0.92979231E-01 0.12674242E+04</pdfrwt>
<totfact> 0.42128676E+01</totfact>
</mgrwt>
</event>
<event>
 6    1  0.1603085E-006  0.1996522E+04  0.7818608E-02  0.8608248E-01
          2   -1    0    0  501    0  0.00000000000E+00  0.00000000000E+00  0.18773027430E+04  0.18773027430E+04  0.00000000000E+00 0. -1.
         -2   -1    0    0    0  501 -0.00000000000E+00 -0.00000000000E+00 -0.53082828243E+03  0.53082828243E+03  0.00000000000E+00 0.  1.
         23    2    1    2    0    0 -0.78790511611E+03  0.56721724078E+03  0.40505993271E+03  0.10558029648E+04  0.90091515619E+02 0.  0.
         11    1    3    3    0    0 -0.35313524477E+03  0.21669101836E+03  0.20785496600E+03  0.46353337035E+03  0.00000000000E+00 0. -1.
        -11    1    3    3    0    0 -0.43476987135E+03  0.35052622242E+03  0.19720496671E+03  0.59226959446E+03  0.00000000000E+00 0.  1.
         22    1    1    2    0    0  0.78790511611E+03 -0.56721724078E+03  0.94141452781E+03  0.13523280606E+04  0.00000000000E+00 0. -1.
<mgrwt>
<rscale>  0 0.19965224E+04</rscale>
<asrwt>0</asrwt>
<pdfrwt beam="1">  1        2 0.28881580E+00 0.19965224E+04</pdfrwt>
<pdfrwt beam="2">  1       -2 0.81665891E-01 0.19965224E+04</pdfrwt>
<totfact> 0.95846895E+00</totfact>
</mgrwt>
</event>
<event>
 6    1  0.1603085E-006  0.3180560E+04  0.7818608E-02  0.8193970E-01
         -2   -1    0    0    0  501 -0.00000000000E+00  0.00000000000E+00  0.82352189558E+03  0.82352189558E+03  0.00000000000E+00 0. -1.
          2   -1    0    0  501    0  0.00000000000E+00 -0.00000000000E+00 -0.30709442327E+04  0.30709442327E+04  0.00000000000E+00 0.  1.
         23    2    1    2    0    0  0.56136699323E+01  0.15855821976E+04 -0.99817819754E+03  0.18758742085E+04  0.91879885582E+02 0.  0.
         11    1    3    3    0    0 -0.28898462651E+02  0.12686497054E+04 -0.77935458115E+03  0.14891946681E+04  0.00000000000E+00 0.  1.
        -11    1    3    3    0    0  0.34512132583E+02  0.31693249215E+03 -0.21882361640E+03  0.38667954041E+03  0.00000000000E+00 0. -1.
         22    1    1    2    0    0 -0.56136699323E+01 -0.15855821976E+04 -0.12492441396E+04  0.20185919198E+04  0.00000000000E+00 0.  1.
<mgrwt>
<rscale>  0 0.31805596E+04</rscale>
<asrwt>0</asrwt>
<pdfrwt beam="1">  1        2 0.47245296E+00 0.31805596E+04</pdfrwt>
<pdfrwt beam="2">  1       -2 0.12669568E+00 0.31805596E+04</pdfrwt>
<totfact> 0.61344110E-01</totfact>
</mgrwt>
</event>
<event>
 6    1  0.1603085E-006  0.2307998E+04  0.7818608E-02  0.8474774E-01
          2   -1    0    0  501    0  0.00000000000E+00  0.00000000000E+00  0.30824200989E+04  0.30824200989E+04  0.00000000000E+00 0. -1.
         -2   -1    0    0    0  501 -0.00000000000E+00 -0.00000000000E+00 -0.43203505210E+03  0.43203505210E+03  0.00000000000E+00 0.  1.
         23    2    1    2    0    0 -0.70420678857E+02 -0.11313445241E+04  0.10120352224E+04  0.15221977250E+04  0.89281120093E+02 0.  0.
         11    1    3    3    0    0  0.18785530262E+02 -0.17579960845E+03  0.17484902555E+03  0.24865755612E+03  0.00000000000E+00 0.  1.
        -11    1    3    3    0    0 -0.89206209119E+02 -0.95554491566E+03  0.83718619687E+03  0.12735401689E+04  0.00000000000E+00 0. -1.
         22    1    1    2    0    0  0.70420678857E+02  0.11313445241E+04  0.16383498244E+04  0.19922574260E+04  0.00000000000E+00 0. -1.
<mgrwt>
<rscale>  0 0.23079979E+04</rscale>
<asrwt>0</asrwt>
<pdfrwt beam="1">  1        2 0.47421846E+00 0.23079979E+04</pdfrwt>
<pdfrwt beam="2">  1       -2 0.66466933E-01 0.23079979E+04</pdfrwt>
<totfact> 0.29138608E+00</totfact>
</mgrwt>
</event>
<event>
 6    1  0.1603085E-006  0.4548527E+04  0.7818608E-02  0.7902196E-01
         -2   -1    0    0    0  501 -0.00000000000E+00  0.00000000000E+00  0.25051061326E+04  0.25051061326E+04  0.00000000000E+00 0.  1.
          2   -1    0    0  501    0  0.00000000000E+00 -0.00000000000E+00 -0.20646929224E+04  0.20646929224E+04  0.00000000000E+00 0. -1.
         23    2    1    2    0    0 -0.12188391746E+03  0.69022188799E+03 -0.19524427197E+04  0.20764034897E+04  0.90315747481E+02 0.  0.
         11    1    3    3    0    0 -0.81489760809E+02  0.24519224647E+03 -0.78062245232E+03  0.82227199387E+03  0.00000000000E+00 0.  1.
        -11    1    3    3    0    0 -0.40394156655E+02  0.44502964152E+03 -0.11718202674E+04  0.12541314958E+04  0.00000000000E+00 0. -1.
         22    1    1    2    0    0  0.12188391746E+03 -0.69022188799E+03  0.23928559298E+04  0.24933955653E+04  0.00000000000E+00 0.  1.
<mgrwt>
<rscale>  0 0.45485272E+04</rscale>
<asrwt>0</asrwt>
<pdfrwt beam="1">  1        2 0.31764506E+00 0.45485272E+04</pdfrwt>
<pdfrwt beam="2">  1       -2 0.38540094E+00 0.45485272E+04</pdfrwt>
<totfact> 0.42877547E-02</totfact>
</mgrwt>
</event>
<event>
 6    1  0.1603085E-006  0.1867886E+04  0.7818608E-02  0.8671009E-01
         -1   -1    0    0    0  501 -0.00000000000E+00  0.00000000000E+00  0.16254564301E+04  0.16254564301E+04  0.00000000000E+00 0.  1.
          1   -1    0    0  501    0  0.00000000000E+00 -0.00000000000E+00 -0.53661843097E+03  0.53661843097E+03  0.00000000000E+00 0. -1.
         23    2    1    2    0    0  0.45410039222E+03 -0.36251799650E+03 -0.29741440835E+03  0.65897067265E+03  0.90335779794E+02 0.  0.
         13    1    3    3    0    0  0.15907712831E+03 -0.16468974967E+03 -0.15377317204E+03  0.27581594377E+03  0.00000000000E+00 0.  1.
        -13    1    3    3    0    0  0.29502326391E+03 -0.19782824683E+03 -0.14364123632E+03  0.38315472888E+03  0.00000000000E+00 0. -1.
         22    1    1    2    0    0 -0.45410039222E+03  0.36251799650E+03  0.13862524074E+04  0.15031041884E+04  0.00000000000E+00 0.  1.
<mgrwt>
<rscale>  0 0.18678864E+04</rscale>
<asrwt>0</asrwt>
<pdfrwt beam="1">  1        1 0.82556682E-01 0.18678864E+04</pdfrwt>
<pdfrwt beam="2">  1       -1 0.25007022E+00 0.18678864E+04</pdfrwt>
<totfact> 0.26243505E+00</totfact>
</mgrwt>
</event>
<event>
 6    1  0.1603085E-006  0.1652292E+04  0.7818608E-02  0.8789052E-01
         -2   -1    0    0    0  501 -0.00000000000E+00  0.00000000000E+00  0.14374471575E+03  0.14374471575E+03  0.00000000000E+00 0.  1.
          2   -1    0    0  501    0  0.00000000000E+00 -0.00000000000E+00 -0.47481187319E+04  0.47481187319E+04  0.00000000000E+00 0. -1.
         23    2    1    2    0    0  0.78058342719E+03  0.45735366474E+02 -0.30759615353E+04  0.31750504344E+04  0.89463312440E+02 0.  0.
         13    1    3    3    0    0  0.23154594314E+03  0.80279477713E+01 -0.10827413978E+04  0.11072519615E+04  0.00000000000E+00 0.  1.
        -13    1    3    3    0    0  0.54903748406E+03  0.37707418702E+02 -0.19932201375E+04  0.20677984730E+04  0.00000000000E+00 0. -1.
         22    1    1    2    0    0 -0.78058342719E+03 -0.45735366474E+02 -0.15284124809E+04  0.17168130132E+04  0.00000000000E+00 0.  1.
<mgrwt>
<rscale>  0 0.16522917E+04</rscale>
<asrwt>0</asrwt>
<pdfrwt beam="1">  1        2 0.73047977E+00 0.16522917E+04</pdfrwt>
<pdfrwt beam="2">  1       -2 0.22114573E-01 0.16522917E+04</pdfrwt>
<totfact> 0.12029407E+00</totfact>
</mgrwt>
</event>
<event>
 6    1  0.1603085E-006  0.4396332E+04  0.7818608E-02  0.7929042E-01
         -1   -1    0    0    0  501 -0.00000000000E+00  0.00000000000E+00  0.14057725910E+04  0.14057725910E+04  0.00000000000E+00 0.  1.
          1   -1    0    0  501    0  0.00000000000E+00 -0.00000000000E+00 -0.34372082803E+04  0.34372082803E+04  0.00000000000E+00 0. -1.
         23    2    1    2    0    0 -0.16119144081E+04 -0.14797849566E+04 -0.12355993203E+04  0.25145936391E+04  0.91890766527E+02 0.  0.
         13    1    3    3    0    0 -0.24319964360E+03 -0.24005613797E+03 -0.22917435870E+03  0.41145340284E+03  0.00000000000E+00 0. -1.
        -13    1    3    3    0    0 -0.13687147645E+04 -0.12397288186E+04 -0.10064249616E+04  0.21031402363E+04  0.00000000000E+00 0.  1.
         22    1    1    2    0    0  0.16119144081E+04  0.14797849566E+04 -0.79583636902E+03  0.23283872322E+04  0.00000000000E+00 0.  1.
<mgrwt>
<rscale>  0 0.43963317E+04</rscale>
<asrwt>0</asrwt>
<pdfrwt beam="1">  1        1 0.52880126E+00 0.43963317E+04</pdfrwt>
<pdfrwt beam="2">  1       -1 0.21627271E+00 0.43963317E+04</pdfrwt>
<totfact> 0.24699119E-02</totfact>
</mgrwt>
</event>
<event>
 6    1  0.1603085E-006  0.2163454E+04  0.7818608E-02  0.8533795E-01
          1   -1    0    0  501    0  0.00000000000E+00  0.00000000000E+00  0.72019906740E+03  0.72019906740E+03  0.00000000000E+00 0. -1.
         -1   -1    0    0    0  501 -0.00000000000E+00 -0.00000000000E+00 -0.16247360175E+04  0.16247360175E+04  0.00000000000E+00 0.  1.
         23    2    1    2    0    0  0.10785104568E+04  0.13203626387E+02 -0.39806883628E+03  0.11533524854E+04  0.91673420248E+02 0.  0.
         11    1    3    3    0    0  0.32897713432E+03  0.17563112030E+02 -0.79405857725E+02  0.33888007916E+03  0.00000000000E+00 0. -1.
        -11    1    3    3    0    0  0.74953332245E+03 -0.43594856430E+01 -0.31866297856E+03  0.81447240621E+03  0.00000000000E+00 0.  1.
         22    1    1    2    0    0 -0.10785104568E+04 -0.13203626387E+02 -0.50646811378E+03  0.11915825995E+04  0.00000000000E+00 0.  1.
<mgrwt>
<rscale>  0 0.21634541E+04</rscale>
<asrwt>0</asrwt>
<pdfrwt beam="1">  1        1 0.11079986E+00 0.21634541E+04</pdfrwt>
<pdfrwt beam="2">  1       -1 0.24995939E+00 0.21634541E+04</pdfrwt>
<totfact> 0.16641633E+00</totfact>
</mgrwt>
</event>
<event>
 6    1  0.1603085E-006  0.8468100E+03  0.7818608E-02  0.9494628E-01
          1   -1    0    0  501    0  0.00000000000E+00  0.00000000000E+00  0.20641011894E+03  0.20641011894E+03  0.00000000000E+00 0. -1.
         -1   -1    0    0    0  501 -0.00000000000E+00 -0.00000000000E+00 -0.86852232969E+03  0.86852232969E+03  0.00000000000E+00 0.  1.
         23    2    1    2    0    0  0.83930177970E+02  0.40737535046E+03 -0.39405142857E+03  0.58010365614E+03  0.90800729986E+02 0.  0.
         13    1    3    3    0    0  0.49865168282E+02  0.76346472256E+02 -0.63976069914E+02  0.11139235322E+03  0.00000000000E+00 0. -1.
        -13    1    3    3    0    0  0.34065009689E+02  0.33102887821E+03 -0.33007535866E+03  0.46871130292E+03  0.00000000000E+00 0.  1.
         22    1    1    2    0    0 -0.83930177970E+02 -0.40737535046E+03 -0.26806078217E+03  0.49482879249E+03  0.00000000000E+00 0.  1.
<mgrwt>
<rscale>  0 0.84681001E+03</rscale>
<asrwt>0</asrwt>
<pdfrwt beam="1">  1        1 0.31755402E-01 0.84681001E+03</pdfrwt>
<pdfrwt beam="2">  1       -1 0.13361882E+00 0.84681001E+03</pdfrwt>
<totfact> 0.68283523E+01</totfact>
</mgrwt>
</event>
<event>
 6    1  0.1603085E-006  0.1780526E+04  0.7818608E-02  0.8716724E-01
         -2   -1    0    0    0  501 -0.00000000000E+00  0.00000000000E+00  0.39615740370E+03  0.39615740370E+03  0.00000000000E+00 0.  1.
          2   -1    0    0  501    0  0.00000000000E+00 -0.00000000000E+00 -0.20006402346E+04  0.20006402346E+04  0.00000000000E+00 0. -1.
         23    2    1    2    0    0  0.15461710660E+03  0.64684754301E+03 -0.15959654926E+04  0.17316730345E+04  0.96267603375E+02 0.  0.
         11    1    3    3    0    0  0.18990863724E+02  0.22655793656E+03 -0.62236207467E+03  0.66258863823E+03  0.00000000000E+00 0.  1.
        -11    1    3    3    0    0  0.13562624288E+03  0.42028960645E+03 -0.97360341790E+03  0.10690843963E+04  0.00000000000E+00 0. -1.
         22    1    1    2    0    0 -0.15461710660E+03 -0.64684754301E+03 -0.85173383671E+01  0.66512460382E+03  0.00000000000E+00 0.  1.
<mgrwt>
<rscale>  0 0.17805263E+04</rscale>
<asrwt>0</asrwt>
<pdfrwt beam="1">  1        2 0.30779081E+00 0.17805263E+04</pdfrwt>
<pdfrwt beam="2">  1       -2 0.60947293E-01 0.17805263E+04</pdfrwt>
<totfact> 0.15814171E+01</totfact>
</mgrwt>
</event>
<event>
 6    1  0.1603085E-006  0.1492296E+04  0.7818608E-02  0.8889592E-01
         -2   -1    0    0    0  501 -0.00000000000E+00  0.00000000000E+00  0.37060602671E+03  0.37060602671E+03  0.00000000000E+00 0.  1.
          2   -1    0    0  501    0  0.00000000000E+00 -0.00000000000E+00 -0.15022340415E+04  0.15022340415E+04  0.00000000000E+00 0. -1.
         23    2    1    2    0    0  0.64009454174E+03  0.19173271856E+03 -0.15910591727E+03  0.69289020152E+03  0.91102583559E+02 0.  0.
         11    1    3    3    0    0  0.85344670712E+02 -0.13344539296E+01 -0.43800525301E+01  0.85467411605E+02  0.00000000000E+00 0. -1.
        -11    1    3    3    0    0  0.55474987102E+03  0.19306717249E+03 -0.15472586474E+03  0.60742278992E+03  0.00000000000E+00 0.  1.
         22    1    1    2    0    0 -0.64009454174E+03 -0.19173271856E+03 -0.97252209754E+03  0.11799498667E+04  0.00000000000E+00 0. -1.
<mgrwt>
<rscale>  0 0.14922962E+04</rscale>
<asrwt>0</asrwt>
<pdfrwt beam="1">  1        2 0.23111293E+00 0.14922962E+04</pdfrwt>
<pdfrwt beam="2">  1       -2 0.57016313E-01 0.14922962E+04</pdfrwt>
<totfact> 0.35279871E+01</totfact>
</mgrwt>
</event>
<event>
 6    1  0.1603085E-006  0.1144663E+04  0.7818608E-02  0.9162721E-01
         -1   -1    0    0    0  501 -0.00000000000E+00  0.00000000000E+00  0.14073828738E+03  0.14073828738E+03  0.00000000000E+00 0.  1.
          1   -1    0    0  501    0  0.00000000000E+00 -0.00000000000E+00 -0.23274639499E+04  0.23274639499E+04  0.00000000000E+00 0. -1.
         23    2    1    2    0    0  0.11808698856E+03  0.55203694726E+03 -0.12432338677E+04  0.13687177695E+04  0.95228959752E+02 0.  0.
         11    1    3    3    0    0  0.25214408820E+02  0.30430578539E+03 -0.60089907540E+03  0.67403076803E+03  0.00000000000E+00 0.  1.
        -11    1    3    3    0    0  0.92872579744E+02  0.24773116186E+03 -0.64233479231E+03  0.69468700149E+03  0.00000000000E+00 0. -1.
         22    1    1    2    0    0 -0.11808698856E+03 -0.55203694726E+03 -0.94349179484E+03  0.10994844678E+04  0.00000000000E+00 0. -1.
<mgrwt>
<rscale>  0 0.11446629E+04</rscale>
<asrwt>0</asrwt>
<pdfrwt beam="1">  1        1 0.35807138E+00 0.11446629E+04</pdfrwt>
<pdfrwt beam="2">  1       -1 0.21652044E-01 0.11446629E+04</pdfrwt>
<totfact> 0.31863741E+01</totfact>
</mgrwt>
</event>
<event>
 6    1  0.1603085E-006  0.1034101E+04  0.7818608E-02  0.9271915E-01
          1   -1    0    0  501    0  0.00000000000E+00  0.00000000000E+00  0.22856531284E+04  0.22856531284E+04  0.00000000000E+00 0. -1.
         -1   -1    0    0    0  501 -0.00000000000E+00 -0.00000000000E+00 -0.11696482018E+03  0.11696482018E+03  0.00000000000E+00 0.  1.
         23    2    1    2    0    0  0.49602811282E+03 -0.11310632262E+03  0.12473126492E+04  0.13501114004E+04  0.90415815400E+02 0.  0.
         11    1    3    3    0    0  0.15582246752E+03 -0.38503117885E+02  0.51028053960E+03  0.53492930427E+03  0.00000000000E+00 0. -1.
        -11    1    3    3    0    0  0.34020564530E+03 -0.74603204737E+02  0.73703210962E+03  0.81518209614E+03  0.00000000000E+00 0.  1.
         22    1    1    2    0    0 -0.49602811282E+03  0.11310632262E+03  0.92137565898E+03  0.10525065481E+04  0.00000000000E+00 0. -1.
<mgrwt>
<rscale>  0 0.10341006E+04</rscale>
<asrwt>0</asrwt>
<pdfrwt beam="1">  1        1 0.35163891E+00 0.10341006E+04</pdfrwt>
<pdfrwt beam="2">  1       -1 0.17994589E-01 0.10341006E+04</pdfrwt>
<totfact> 0.46833110E+01</totfact>
</mgrwt>
</event>
<event>
 6    1  0.1603085E-006  0.3327258E+04  0.7818608E-02  0.8155994E-01
          2   -1    0    0  501    0  0.00000000000E+00  0.00000000000E+00  0.17339268269E+04  0.17339268269E+04  0.00000000000E+00 0.  1.
         -2   -1    0    0    0  501 -0.00000000000E+00 -0.00000000000E+00 -0.15961813394E+04  0.15961813394E+04  0.00000000000E+00 0. -1.
         23    2    1    2    0    0 -0.15133267728E+04 -0.34673036093E+03  0.66364457517E+03  0.16909163792E+04  0.91619948876E+02 0.  0.
         11    1    3    3    0    0 -0.39961566299E+03 -0.13221136190E+03  0.16960088838E+03  0.45380280261E+03  0.00000000000E+00 0.  1.
        -11    1    3    3    0    0 -0.11137111098E+04 -0.21451899903E+03  0.49404368679E+03  0.12371135766E+04  0.00000000000E+00 0. -1.
         22    1    1    2    0    0  0.15133267728E+04  0.34673036093E+03 -0.52589908763E+03  0.16391917871E+04  0.00000000000E+00 0. -1.
<mgrwt>
<rscale>  0 0.33272581E+04</rscale>
<asrwt>0</asrwt>
<pdfrwt beam="1">  1        2 0.26675797E+00 0.33272581E+04</pdfrwt>
<pdfrwt beam="2">  1       -2 0.24556636E+00 0.33272581E+04</pdfrwt>
<totfact> 0.53553020E-01</totfact>
</mgrwt>
</event>
<event>
 6    1  0.1603085E-006  0.2660316E+04  0.7818608E-02  0.8347997E-01
          2   -1    0    0  501    0  0.00000000000E+00  0.00000000000E+00  0.18542821278E+04  0.18542821278E+04  0.00000000000E+00 0. -1.
         -2   -1    0    0    0  501 -0.00000000000E+00 -0.00000000000E+00 -0.95418076112E+03  0.95418076112E+03  0.00000000000E+00 0.  1.
         23    2    1    2    0    0  0.22846762870E+03  0.13064920184E+04  0.53280745211E+03  0.14322275633E+04  0.90956916053E+02 0.  0.
         13    1    3    3    0    0  0.15367000732E+03  0.62489277154E+03  0.24459120306E+03  0.68842596093E+03  0.00000000000E+00 0. -1.
        -13    1    3    3    0    0  0.74797621386E+02  0.68159924689E+03  0.28821624905E+03  0.74380160240E+03  0.00000000000E+00 0.  1.
         22    1    1    2    0    0 -0.22846762870E+03 -0.13064920184E+04  0.36729391453E+03  0.13762353255E+04  0.00000000000E+00 0. -1.
<mgrwt>
<rscale>  0 0.26603160E+04</rscale>
<asrwt>0</asrwt>
<pdfrwt beam="1">  1        2 0.28527417E+00 0.26603160E+04</pdfrwt>
<pdfrwt beam="2">  1       -2 0.14679704E+00 0.26603160E+04</pdfrwt>
<totfact> 0.22480183E+00</totfact>
</mgrwt>
</event>
<event>
 6    1  0.1603085E-006  0.6146365E+04  0.7818608E-02  0.7672515E-01
         -2   -1    0    0    0  501 -0.00000000000E+00  0.00000000000E+00  0.23727927059E+04  0.23727927059E+04  0.00000000000E+00 0.  1.
          2   -1    0    0  501    0  0.00000000000E+00 -0.00000000000E+00 -0.39803099701E+04  0.39803099701E+04  0.00000000000E+00 0. -1.
         23    2    1    2    0    0 -0.21917923300E+04  0.35628446237E+03  0.13910240044E+04  0.26218640111E+04  0.91273631921E+02 0.  0.
         11    1    3    3    0    0 -0.93578631413E+03  0.11814850489E+03  0.62627315969E+03  0.11321983773E+04  0.00000000000E+00 0.  1.
        -11    1    3    3    0    0 -0.12560060158E+04  0.23813595748E+03  0.76475084472E+03  0.14896656338E+04  0.00000000000E+00 0. -1.
         22    1    1    2    0    0  0.21917923300E+04 -0.35628446237E+03 -0.29985412685E+04  0.37312386649E+04  0.00000000000E+00 0. -1.
<mgrwt>
<rscale>  0 0.61463649E+04</rscale>
<asrwt>0</asrwt>
<pdfrwt beam="1">  1        2 0.61235538E+00 0.61463649E+04</pdfrwt>
<pdfrwt beam="2">  1       -2 0.36504503E+00 0.61463649E+04</pdfrwt>
<totfact> 0.29350270E-03</totfact>
</mgrwt>
</event>
<event>
 6    1  0.1603085E-006  0.2127522E+04  0.7818608E-02  0.8549215E-01
         -2   -1    0    0    0  501 -0.00000000000E+00  0.00000000000E+00  0.57960841510E+03  0.57960841510E+03  0.00000000000E+00 0.  1.
          2   -1    0    0  501    0  0.00000000000E+00 -0.00000000000E+00 -0.19523318164E+04  0.19523318164E+04  0.00000000000E+00 0. -1.
         23    2    1    2    0    0  0.15305900359E+03 -0.10364184530E+04 -0.89342718646E+03  0.13798485989E+04  0.90441970821E+02 0.  0.
         11    1    3    3    0    0  0.84818159699E+02 -0.31462503793E+03 -0.25419805553E+03  0.41327918668E+03  0.00000000000E+00 0.  1.
        -11    1    3    3    0    0  0.68240843886E+02 -0.72179341507E+03 -0.63922913093E+03  0.96656941222E+03  0.00000000000E+00 0. -1.
         22    1    1    2    0    0 -0.15305900359E+03  0.10364184530E+04 -0.47929621481E+03  0.11520916326E+04  0.00000000000E+00 0.  1.
<mgrwt>
<rscale>  0 0.21275225E+04</rscale>
<asrwt>0</asrwt>
<pdfrwt beam="1">  1        2 0.30035874E+00 0.21275225E+04</pdfrwt>
<pdfrwt beam="2">  1       -2 0.89170526E-01 0.21275225E+04</pdfrwt>
<totfact> 0.70493987E+00</totfact>
</mgrwt>
</event>
<event>
 6    1  0.1603085E-006  0.6717516E+03  0.7818608E-02  0.9766799E-01
         -4   -1    0    0    0  501 -0.00000000000E+00  0.00000000000E+00  0.51262712546E+02  0.51262712546E+02  0.00000000000E+00 0.  1.
          4   -1    0    0  501    0  0.00000000000E+00 -0.00000000000E+00 -0.22006749695E+04  0.22006749695E+04  0.00000000000E+00 0. -1.
         23    2    1    2    0    0  0.25463412608E+03 -0.20877856371E+03 -0.11342867192E+04  0.11847418780E+04  0.92627907451E+02 0.  0.
         11    1    3    3    0    0  0.74486714933E+02 -0.12388833494E+02 -0.25920325785E+03  0.26997793017E+03  0.00000000000E+00 0. -1.
        -11    1    3    3    0    0  0.18014741115E+03 -0.19638973022E+03 -0.87508346133E+03  0.91476394779E+03  0.00000000000E+00 0.  1.
         22    1    1    2    0    0 -0.25463412608E+03  0.20877856371E+03 -0.10151255378E+04  0.10671958041E+04  0.00000000000E+00 0. -1.
<mgrwt>
<rscale>  0 0.67175165E+03</rscale>
<asrwt>0</asrwt>
<pdfrwt beam="1">  1        4 0.33856542E+00 0.67175165E+03</pdfrwt>
<pdfrwt beam="2">  1       -4 0.78865702E-02 0.67175165E+03</pdfrwt>
<totfact> 0.43804756E+00</totfact>
</mgrwt>
</event>
<event>
 6    1  0.1603085E-006  0.9415220E+03  0.7818608E-02  0.9375115E-01
         -2   -1    0    0    0  501 -0.00000000000E+00  0.00000000000E+00  0.20855517376E+03  0.20855517376E+03  0.00000000000E+00 0. -1.
          2   -1    0    0  501    0  0.00000000000E+00 -0.00000000000E+00 -0.10626247846E+04  0.10626247846E+04  0.00000000000E+00 0.  1.
         23    2    1    2    0    0  0.35923185082E+03 -0.21420200100E+03 -0.15271874195E+03  0.45458761137E+03  0.91634395214E+02 0.  0.
         11    1    3    3    0    0  0.27214438726E+03 -0.20474811261E+03 -0.12078378139E+03  0.36134897120E+03  0.00000000000E+00 0.  1.
        -11    1    3    3    0    0  0.87087463558E+02 -0.94538883895E+01 -0.31934960568E+02  0.93238640172E+02  0.00000000000E+00 0. -1.
         22    1    1    2    0    0 -0.35923185082E+03  0.21420200100E+03 -0.70135086885E+03  0.81659234696E+03  0.00000000000E+00 0. -1.
<mgrwt>
<rscale>  0 0.94152195E+03</rscale>
<asrwt>0</asrwt>
<pdfrwt beam="1">  1        2 0.16348074E+00 0.94152195E+03</pdfrwt>
<pdfrwt beam="2">  1       -2 0.32085411E-01 0.94152195E+03</pdfrwt>
<totfact> 0.20766214E+02</totfact>
</mgrwt>
</event>
<event>
 6    1  0.1603085E-006  0.3209247E+04  0.7818608E-02  0.8186379E-01
          1   -1    0    0  501    0  0.00000000000E+00  0.00000000000E+00  0.13769309619E+04  0.13769309619E+04  0.00000000000E+00 0. -1.
         -1   -1    0    0    0  501 -0.00000000000E+00 -0.00000000000E+00 -0.18699672788E+04  0.18699672788E+04  0.00000000000E+00 0.  1.
         23    2    1    2    0    0  0.14061578906E+03  0.60442963471E+03 -0.17424735562E+04  0.18518350169E+04  0.89279630339E+02 0.  0.
         11    1    3    3    0    0  0.12733540607E+03  0.36808841376E+03 -0.10392333642E+04  0.11098240272E+04  0.00000000000E+00 0.  1.
        -11    1    3    3    0    0  0.13280382995E+02  0.23634122096E+03 -0.70324019195E+03  0.74201098972E+03  0.00000000000E+00 0. -1.
         22    1    1    2    0    0 -0.14061578906E+03 -0.60442963471E+03  0.12494372393E+04  0.13950632238E+04  0.00000000000E+00 0. -1.
<mgrwt>
<rscale>  0 0.32092465E+04</rscale>
<asrwt>0</asrwt>
<pdfrwt beam="1">  1        1 0.21183553E+00 0.32092465E+04</pdfrwt>
<pdfrwt beam="2">  1       -1 0.28768727E+00 0.32092465E+04</pdfrwt>
<totfact> 0.26459017E-01</totfact>
</mgrwt>
</event>
<event>
 6    1  0.1603085E-006  0.2391766E+04  0.7818608E-02  0.8442593E-01
         -1   -1    0    0    0  501 -0.00000000000E+00  0.00000000000E+00  0.53724589166E+03  0.53724589166E+03  0.00000000000E+00 0.  1.
          1   -1    0    0  501    0  0.00000000000E+00 -0.00000000000E+00 -0.26619779052E+04  0.26619779052E+04  0.00000000000E+00 0. -1.
         23    2    1    2    0    0  0.86022165102E+03  0.74654720365E+03 -0.58448959413E+03  0.12835879425E+04  0.93037111951E+02 0.  0.
         13    1    3    3    0    0  0.22366498186E+03  0.21921852541E+03 -0.20281898193E+03  0.37311971996E+03  0.00000000000E+00 0.  1.
        -13    1    3    3    0    0  0.63655666916E+03  0.52732867823E+03 -0.38167061220E+03  0.91046822249E+03  0.00000000000E+00 0. -1.
         22    1    1    2    0    0 -0.86022165102E+03 -0.74654720365E+03 -0.15402424194E+04  0.19156358544E+04  0.00000000000E+00 0. -1.
<mgrwt>
<rscale>  0 0.23917665E+04</rscale>
<asrwt>0</asrwt>
<pdfrwt beam="1">  1        1 0.40953507E+00 0.23917665E+04</pdfrwt>
<pdfrwt beam="2">  1       -1 0.82653213E-01 0.23917665E+04</pdfrwt>
<totfact> 0.13614364E+00</totfact>
</mgrwt>
</event>
<event>
 6    1  0.1603085E-006  0.1536692E+04  0.7818608E-02  0.8860413E-01
          3   -1    0    0  501    0  0.00000000000E+00  0.00000000000E+00  0.10118421594E+04  0.10118421594E+04  0.00000000000E+00 0. -1.
         -3   -1    0    0    0  501 -0.00000000000E+00 -0.00000000000E+00 -0.58344604166E+03  0.58344604166E+03  0.00000000000E+00 0.  1.
         23    2    1    2    0    0 -0.22374675990E+02 -0.32907107431E+03 -0.50238153263E+03  0.60779874162E+03  0.90794867178E+02 0.  0.
         11    1    3    3    0    0  0.13639358365E+02 -0.24766299511E+03 -0.32020229711E+03  0.40503395206E+03  0.00000000000E+00 0.  1.
        -11    1    3    3    0    0 -0.36014034355E+02 -0.81408079201E+02 -0.18217923552E+03  0.20276478956E+03  0.00000000000E+00 0. -1.
         22    1    1    2    0    0  0.22374675990E+02  0.32907107431E+03  0.93077765035E+03  0.98748945942E+03  0.00000000000E+00 0. -1.
<mgrwt>
<rscale>  0 0.15366916E+04</rscale>
<asrwt>0</asrwt>
<pdfrwt beam="1">  1        3 0.15566802E+00 0.15366916E+04</pdfrwt>
<pdfrwt beam="2">  1       -3 0.89760930E-01 0.15366916E+04</pdfrwt>
<totfact> 0.83137614E-01</totfact>
</mgrwt>
</event>
<event>
 6    1  0.1603085E-006  0.2186969E+04  0.7818608E-02  0.8523871E-01
         -2   -1    0    0    0  501 -0.00000000000E+00  0.00000000000E+00  0.13823380964E+04  0.13823380964E+04  0.00000000000E+00 0.  1.
          2   -1    0    0  501    0  0.00000000000E+00 -0.00000000000E+00 -0.86499017749E+03  0.86499017749E+03  0.00000000000E+00 0. -1.
         23    2    1    2    0    0 -0.24317881234E+03 -0.10370408919E+04  0.50629708777E+03  0.11820997223E+04  0.80207643789E+02 0.  0.
         11    1    3    3    0    0 -0.21343727452E+02 -0.22010140522E+03  0.12010530774E+03  0.25164552098E+03  0.00000000000E+00 0. -1.
        -11    1    3    3    0    0 -0.22183508489E+03 -0.81693948666E+03  0.38619178003E+03  0.93045420130E+03  0.00000000000E+00 0.  1.
         22    1    1    2    0    0  0.24317881234E+03  0.10370408919E+04  0.11050831096E+02  0.10652285516E+04  0.00000000000E+00 0. -1.
<mgrwt>
<rscale>  0 0.21869695E+04</rscale>
<asrwt>0</asrwt>
<pdfrwt beam="1">  1        2 0.13307541E+00 0.21869695E+04</pdfrwt>
<pdfrwt beam="2">  1       -2 0.21266740E+00 0.21869695E+04</pdfrwt>
<totfact> 0.31197146E+00</totfact>
</mgrwt>
</event>
<event>
 6    1  0.1603085E-006  0.7540921E+03  0.7818608E-02  0.9628952E-01
          2   -1    0    0  501    0  0.00000000000E+00  0.00000000000E+00  0.88850066441E+03  0.88850066441E+03  0.00000000000E+00 0. -1.
         -2   -1    0    0    0  501 -0.00000000000E+00 -0.00000000000E+00 -0.16000406279E+03  0.16000406279E+03  0.00000000000E+00 0.  1.
         23    2    1    2    0    0 -0.55841627580E+02  0.17399423172E+03 -0.81589908171E+02  0.21806361949E+03  0.86617255713E+02 0.  0.
         11    1    3    3    0    0 -0.29450846382E+02  0.16854488202E+03 -0.53809159793E+02  0.17936040613E+03  0.00000000000E+00 0. -1.
        -11    1    3    3    0    0 -0.26390781198E+02  0.54493497005E+01 -0.27780748378E+02  0.38703213366E+02  0.00000000000E+00 0.  1.
         22    1    1    2    0    0  0.55841627580E+02 -0.17399423172E+03  0.81008650978E+03  0.83044110771E+03  0.00000000000E+00 0. -1.
<mgrwt>
<rscale>  0 0.75409208E+03</rscale>
<asrwt>0</asrwt>
<pdfrwt beam="1">  1        2 0.13669241E+00 0.75409208E+03</pdfrwt>
<pdfrwt beam="2">  1       -2 0.24616010E-01 0.75409208E+03</pdfrwt>
<totfact> 0.44247674E+02</totfact>
</mgrwt>
</event>
<event>
 6    1  0.1603085E-006  0.9385013E+03  0.7818608E-02  0.9378693E-01
          2   -1    0    0  501    0  0.00000000000E+00  0.00000000000E+00  0.19846819889E+04  0.19846819889E+04  0.00000000000E+00 0. -1.
         -2   -1    0    0    0  501 -0.00000000000E+00 -0.00000000000E+00 -0.11094782763E+03  0.11094782763E+03  0.00000000000E+00 0.  1.
         23    2    1    2    0    0 -0.28631641097E+03 -0.28057613416E+03  0.42117887520E+03  0.58877318322E+03  0.92531951808E+02 0.  0.
         13    1    3    3    0    0 -0.12561242311E+03 -0.94143942825E+02  0.22331915798E+03  0.27297071112E+03  0.00000000000E+00 0.  1.
        -13    1    3    3    0    0 -0.16070398787E+03 -0.18643219134E+03  0.19785971723E+03  0.31580247210E+03  0.00000000000E+00 0. -1.
         22    1    1    2    0    0  0.28631641097E+03  0.28057613416E+03  0.14525552861E+04  0.15068566333E+04  0.00000000000E+00 0. -1.
<mgrwt>
<rscale>  0 0.93850126E+03</rscale>
<asrwt>0</asrwt>
<pdfrwt beam="1">  1        2 0.30533566E+00 0.93850126E+03</pdfrwt>
<pdfrwt beam="2">  1       -2 0.17068898E-01 0.93850126E+03</pdfrwt>
<totfact> 0.19310093E+02</totfact>
</mgrwt>
</event>
<event>
 6    1  0.1603085E-006  0.3442296E+04  0.7818608E-02  0.8127603E-01
          2   -1    0    0  501    0  0.00000000000E+00  0.00000000000E+00  0.38832296840E+04  0.38832296840E+04  0.00000000000E+00 0. -1.
         -2   -1    0    0    0  501 -0.00000000000E+00 -0.00000000000E+00 -0.76285744224E+03  0.76285744224E+03  0.00000000000E+00 0.  1.
         23    2    1    2    0    0 -0.95747855116E+03  0.80280816464E+03  0.31564664541E+04  0.33960595596E+04  0.93133943430E+02 0.  0.
         11    1    3    3    0    0 -0.95920407544E+02  0.46763964666E+02  0.27291282384E+03  0.29303413178E+03  0.00000000000E+00 0.  1.
        -11    1    3    3    0    0 -0.86155814361E+03  0.75604419998E+03  0.28835536303E+04  0.31030254279E+04  0.00000000000E+00 0. -1.
         22    1    1    2    0    0  0.95747855116E+03 -0.80280816464E+03 -0.36094212361E+02  0.12500275666E+04  0.00000000000E+00 0.  1.
<mgrwt>
<rscale>  0 0.34422961E+04</rscale>
<asrwt>0</asrwt>
<pdfrwt beam="1">  1        2 0.59741994E+00 0.34422961E+04</pdfrwt>
<pdfrwt beam="2">  1       -2 0.11736268E+00 0.34422961E+04</pdfrwt>
<totfact> 0.19578730E-01</totfact>
</mgrwt>
</event>
<event>
 6    1  0.1603085E-006  0.1735587E+04  0.7818608E-02  0.8741324E-01
          1   -1    0    0  501    0  0.00000000000E+00  0.00000000000E+00  0.13871325413E+04  0.13871325413E+04  0.00000000000E+00 0. -1.
         -1   -1    0    0    0  501 -0.00000000000E+00 -0.00000000000E+00 -0.54289347453E+03  0.54289347453E+03  0.00000000000E+00 0.  1.
         23    2    1    2    0    0 -0.67965719238E+01  0.16396108785E+03  0.13682143971E+04  0.13809544553E+04  0.89972993539E+02 0.  0.
         11    1    3    3    0    0  0.67712493453E+01  0.13791000683E+03  0.78862514781E+03  0.80062141088E+03  0.00000000000E+00 0.  1.
        -11    1    3    3    0    0 -0.13567821269E+02  0.26051081019E+02  0.57958924930E+03  0.58033304447E+03  0.00000000000E+00 0. -1.
         22    1    1    2    0    0  0.67965719238E+01 -0.16396108785E+03 -0.52397533034E+03  0.54907156047E+03  0.00000000000E+00 0.  1.
<mgrwt>
<rscale>  0 0.17355866E+04</rscale>
<asrwt>0</asrwt>
<pdfrwt beam="1">  1        1 0.21340501E+00 0.17355866E+04</pdfrwt>
<pdfrwt beam="2">  1       -1 0.83522074E-01 0.17355866E+04</pdfrwt>
<totfact> 0.10584637E+01</totfact>
</mgrwt>
</event>
<event>
 6    1  0.1603085E-006  0.4804189E+04  0.7818608E-02  0.7859444E-01
          2   -1    0    0  501    0  0.00000000000E+00  0.00000000000E+00  0.43785147638E+04  0.43785147638E+04  0.00000000000E+00 0. -1.
         -2   -1    0    0    0  501 -0.00000000000E+00 -0.00000000000E+00 -0.13178116778E+04  0.13178116778E+04  0.00000000000E+00 0.  1.
         23    2    1    2    0    0 -0.18762124119E+04 -0.88430868201E+03  0.29654048033E+04  0.36199698676E+04  0.91549632673E+02 0.  0.
         13    1    3    3    0    0 -0.12448547321E+04 -0.58499162262E+03  0.20409272644E+04  0.24611506660E+04  0.00000000000E+00 0. -1.
        -13    1    3    3    0    0 -0.63135767981E+03 -0.29931705939E+03  0.92447753896E+03  0.11588192016E+04  0.00000000000E+00 0.  1.
         22    1    1    2    0    0  0.18762124119E+04  0.88430868201E+03  0.95298282634E+02  0.20763565740E+04  0.00000000000E+00 0.  1.
<mgrwt>
<rscale>  0 0.48041890E+04</rscale>
<asrwt>0</asrwt>
<pdfrwt beam="1">  1        2 0.67361765E+00 0.48041890E+04</pdfrwt>
<pdfrwt beam="2">  1       -2 0.20274026E+00 0.48041890E+04</pdfrwt>
<totfact> 0.15047384E-02</totfact>
</mgrwt>
</event>
<event>
 6    1  0.1854421E-006  0.2212666E+04  0.7818608E-02  0.8513175E-01
         -1   -1    0    0    0  501 -0.00000000000E+00  0.00000000000E+00  0.79503280760E+03  0.79503280760E+03  0.00000000000E+00 0. -1.
          1   -1    0    0  501    0  0.00000000000E+00 -0.00000000000E+00 -0.15395250080E+04  0.15395250080E+04  0.00000000000E+00 0.  1.
         23    2    1    2    0    0 -0.28371338049E+03 -0.10004865285E+04  0.19414109131E+02  0.10442014983E+04  0.92267466435E+02 0.  0.
         13    1    3    3    0    0 -0.19499594390E+03 -0.52490897480E+03  0.22502874182E+02  0.56040987617E+03  0.00000000000E+00 0. -1.
        -13    1    3    3    0    0 -0.88717436595E+02 -0.47557755369E+03 -0.30887650506E+01  0.48379162208E+03  0.00000000000E+00 0.  1.
         22    1    1    2    0    0  0.28371338049E+03  0.10004865285E+04 -0.76390630951E+03  0.12903563173E+04  0.00000000000E+00 0.  1.
<mgrwt>
<rscale>  0 0.22126662E+04</rscale>
<asrwt>0</asrwt>
<pdfrwt beam="1">  1        1 0.23685000E+00 0.22126662E+04</pdfrwt>
<pdfrwt beam="2">  1       -1 0.12231274E+00 0.22126662E+04</pdfrwt>
<totfact> 0.33038742E+00</totfact>
</mgrwt>
</event>
<event>
 6    1  0.1603085E-006  0.1599601E+04  0.7818608E-02  0.8820793E-01
         -2   -1    0    0    0  501 -0.00000000000E+00  0.00000000000E+00  0.53488117467E+03  0.53488117467E+03  0.00000000000E+00 0.  1.
          2   -1    0    0  501    0  0.00000000000E+00 -0.00000000000E+00 -0.11959314074E+04  0.11959314074E+04  0.00000000000E+00 0. -1.
         23    2    1    2    0    0  0.63375365377E+03 -0.88095157277E+02  0.18302940267E+03  0.67162662989E+03  0.90432943869E+02 0.  0.
         13    1    3    3    0    0  0.96191009217E+02 -0.21818993440E+02  0.62424521474E+02  0.11672874372E+03  0.00000000000E+00 0.  1.
        -13    1    3    3    0    0  0.53756264455E+03 -0.66276163837E+02  0.12060488119E+03  0.55489788617E+03  0.00000000000E+00 0. -1.
         22    1    1    2    0    0 -0.63375365377E+03  0.88095157277E+02 -0.84407963540E+03  0.10591859522E+04  0.00000000000E+00 0. -1.
<mgrwt>
<rscale>  0 0.15996014E+04</rscale>
<asrwt>0</asrwt>
<pdfrwt beam="1">  1        2 0.18398945E+00 0.15996014E+04</pdfrwt>
<pdfrwt beam="2">  1       -2 0.82289412E-01 0.15996014E+04</pdfrwt>
<totfact> 0.23693455E+01</totfact>
</mgrwt>
</event>
<event>
 6    1  0.1603085E-006  0.1592651E+04  0.7818608E-02  0.8825075E-01
         -2   -1    0    0    0  501 -0.00000000000E+00  0.00000000000E+00  0.67882119636E+03  0.67882119636E+03  0.00000000000E+00 0.  1.
          2   -1    0    0  501    0  0.00000000000E+00 -0.00000000000E+00 -0.93417036659E+03  0.93417036659E+03  0.00000000000E+00 0. -1.
         23    2    1    2    0    0 -0.16778360558E+03  0.20779461446E+03  0.62888776181E+03  0.68930065574E+03  0.91135267339E+02 0.  0.
         13    1    3    3    0    0 -0.98073199061E+02  0.18272164230E+03  0.44063288454E+03  0.48699372673E+03  0.00000000000E+00 0. -1.
        -13    1    3    3    0    0 -0.69710406514E+02  0.25072972161E+02  0.18825487727E+03  0.20230692901E+03  0.00000000000E+00 0.  1.
         22    1    1    2    0    0  0.16778360558E+03 -0.20779461446E+03 -0.88423693204E+03  0.92369090722E+03  0.00000000000E+00 0. -1.
<mgrwt>
<rscale>  0 0.15926514E+04</rscale>
<asrwt>0</asrwt>
<pdfrwt beam="1">  1        2 0.14371852E+00 0.15926514E+04</pdfrwt>
<pdfrwt beam="2">  1       -2 0.10443403E+00 0.15926514E+04</pdfrwt>
<totfact> 0.19875939E+01</totfact>
</mgrwt>
</event>
<event>
 6    1  0.1603085E-006  0.3598213E+04  0.7818608E-02  0.8090901E-01
          1   -1    0    0  501    0  0.00000000000E+00  0.00000000000E+00  0.30026652162E+04  0.30026652162E+04  0.00000000000E+00 0.  1.
         -1   -1    0    0    0  501 -0.00000000000E+00 -0.00000000000E+00 -0.10779702114E+04  0.10779702114E+04  0.00000000000E+00 0. -1.
         23    2    1    2    0    0 -0.37839010338E+03 -0.13121066267E+04  0.22892911946E+04  0.26672235090E+04  0.91783455699E+02 0.  0.
         13    1    3    3    0    0 -0.25891002171E+03 -0.73689659438E+03  0.13235078070E+04  0.15367901305E+04  0.00000000000E+00 0. -1.
        -13    1    3    3    0    0 -0.11948008167E+03 -0.57521003236E+03  0.96578338763E+03  0.11304333784E+04  0.00000000000E+00 0.  1.
         22    1    1    2    0    0  0.37839010338E+03  0.13121066267E+04 -0.36459618976E+03  0.14134119187E+04  0.00000000000E+00 0. -1.
<mgrwt>
<rscale>  0 0.35982127E+04</rscale>
<asrwt>0</asrwt>
<pdfrwt beam="1">  1        1 0.46194849E+00 0.35982127E+04</pdfrwt>
<pdfrwt beam="2">  1       -1 0.16584157E+00 0.35982127E+04</pdfrwt>
<totfact> 0.12709545E-01</totfact>
</mgrwt>
</event>
<event>
 6    1  0.1603085E-006  0.5887350E+04  0.7818608E-02  0.7704528E-01
          2   -1    0    0  501    0  0.00000000000E+00  0.00000000000E+00  0.42311492009E+04  0.42311492009E+04  0.00000000000E+00 0. -1.
         -2   -1    0    0    0  501 -0.00000000000E+00 -0.00000000000E+00 -0.20479595275E+04  0.20479595275E+04  0.00000000000E+00 0.  1.
         23    2    1    2    0    0  0.16463167816E+04  0.23185235518E+04  0.19007221664E+04  0.34215401293E+04  0.91003829914E+02 0.  0.
         13    1    3    3    0    0  0.11593670034E+04  0.15790033165E+04  0.13430365584E+04  0.23751064227E+04  0.00000000000E+00 0. -1.
        -13    1    3    3    0    0  0.48694977820E+03  0.73952023536E+03  0.55768560795E+03  0.10464337066E+04  0.00000000000E+00 0.  1.
         22    1    1    2    0    0 -0.16463167816E+04 -0.23185235518E+04  0.28246750699E+03  0.28575685990E+04  0.00000000000E+00 0. -1.
<mgrwt>
<rscale>  0 0.58873499E+04</rscale>
<asrwt>0</asrwt>
<pdfrwt beam="1">  1        2 0.65094603E+00 0.58873499E+04</pdfrwt>
<pdfrwt beam="2">  1       -2 0.31507070E+00 0.58873499E+04</pdfrwt>
<totfact> 0.37788307E-03</totfact>
</mgrwt>
</event>
<event>
 6    1  0.1603085E-006  0.1493107E+04  0.7818608E-02  0.8889049E-01
         -2   -1    0    0    0  501 -0.00000000000E+00  0.00000000000E+00  0.50452437948E+03  0.50452437948E+03  0.00000000000E+00 0. -1.
          2   -1    0    0  501    0  0.00000000000E+00 -0.00000000000E+00 -0.11046888479E+04  0.11046888479E+04  0.00000000000E+00 0.  1.
         23    2    1    2    0    0  0.22102356411E+03 -0.19898403762E+03 -0.10360021953E+04  0.10815764326E+04  0.89782892142E+02 0.  0.
         13    1    3    3    0    0  0.17636384413E+03 -0.11906021138E+03 -0.81589837462E+03  0.84319019038E+03  0.00000000000E+00 0.  1.
        -13    1    3    3    0    0  0.44659719981E+02 -0.79923826241E+02 -0.22010382067E+03  0.23838624218E+03  0.00000000000E+00 0. -1.
         22    1    1    2    0    0 -0.22102356411E+03  0.19898403762E+03  0.43583772685E+03  0.52763679484E+03  0.00000000000E+00 0. -1.
<mgrwt>
<rscale>  0 0.14931074E+04</rscale>
<asrwt>0</asrwt>
<pdfrwt beam="1">  1        2 0.16995213E+00 0.14931074E+04</pdfrwt>
<pdfrwt beam="2">  1       -2 0.77619137E-01 0.14931074E+04</pdfrwt>
<totfact> 0.30952351E+01</totfact>
</mgrwt>
</event>
<event>
 6    1  0.1603085E-006  0.3018116E+04  0.7818608E-02  0.8238577E-01
         -2   -1    0    0    0  501 -0.00000000000E+00  0.00000000000E+00  0.21066330346E+04  0.21066330346E+04  0.00000000000E+00 0.  1.
          2   -1    0    0  501    0  0.00000000000E+00 -0.00000000000E+00 -0.10809931511E+04  0.10809931511E+04  0.00000000000E+00 0. -1.
         23    2    1    2    0    0  0.14630704419E+04 -0.18304409522E+03  0.84590530614E+03  0.17022357396E+04  0.89277474595E+02 0.  0.
         13    1    3    3    0    0  0.10541032626E+04 -0.15003808840E+03  0.56888744756E+03  0.12071777185E+04  0.00000000000E+00 0.  1.
        -13    1    3    3    0    0  0.40896717938E+03 -0.33006006818E+02  0.27701785858E+03  0.49505802112E+03  0.00000000000E+00 0. -1.
         22    1    1    2    0    0 -0.14630704419E+04  0.18304409522E+03  0.17973457738E+03  0.14853904460E+04  0.00000000000E+00 0. -1.
<mgrwt>
<rscale>  0 0.30181159E+04</rscale>
<asrwt>0</asrwt>
<pdfrwt beam="1">  1        2 0.16630664E+00 0.30181159E+04</pdfrwt>
<pdfrwt beam="2">  1       -2 0.32409739E+00 0.30181159E+04</pdfrwt>
<totfact> 0.43209550E-01</totfact>
</mgrwt>
</event>
<event>
 6    1  0.1603085E-006  0.3215749E+04  0.7818608E-02  0.8184670E-01
          2   -1    0    0  501    0  0.00000000000E+00  0.00000000000E+00  0.30683170491E+04  0.30683170491E+04  0.00000000000E+00 0. -1.
         -2   -1    0    0    0  501 -0.00000000000E+00 -0.00000000000E+00 -0.84256622123E+03  0.84256622123E+03  0.00000000000E+00 0.  1.
         23    2    1    2    0    0 -0.31815868379E+03  0.48039320332E+03 -0.71006808201E+03  0.91905519213E+03  0.91995582651E+02 0.  0.
         11    1    3    3    0    0 -0.10996822973E+03  0.16711412045E+03 -0.18015938939E+03  0.26921654182E+03  0.00000000000E+00 0. -1.
        -11    1    3    3    0    0 -0.20819045406E+03  0.31327908287E+03 -0.52990869262E+03  0.64983865032E+03  0.00000000000E+00 0.  1.
         22    1    1    2    0    0  0.31815868379E+03 -0.48039320332E+03  0.29358189099E+04  0.29918280782E+04  0.00000000000E+00 0. -1.
<mgrwt>
<rscale>  0 0.32157489E+04</rscale>
<asrwt>0</asrwt>
<pdfrwt beam="1">  1        2 0.47204877E+00 0.32157489E+04</pdfrwt>
<pdfrwt beam="2">  1       -2 0.12962557E+00 0.32157489E+04</pdfrwt>
<totfact> 0.57955366E-01</totfact>
</mgrwt>
</event>
<event>
 6    1  0.1603085E-006  0.1908486E+04  0.7818608E-02  0.8650644E-01
         -1   -1    0    0    0  501 -0.00000000000E+00  0.00000000000E+00  0.84052349226E+03  0.84052349226E+03  0.00000000000E+00 0.  1.
          1   -1    0    0  501    0  0.00000000000E+00 -0.00000000000E+00 -0.10833482214E+04  0.10833482214E+04  0.00000000000E+00 0. -1.
         23    2    1    2    0    0  0.33202918756E+03 -0.42120273674E+03  0.67109350833E+03  0.86420116505E+03  0.93925661702E+02 0.  0.
         13    1    3    3    0    0  0.18632728590E+03 -0.30735599698E+03  0.43290879737E+03  0.56266827989E+03  0.00000000000E+00 0. -1.
        -13    1    3    3    0    0  0.14570190165E+03 -0.11384673976E+03  0.23818471095E+03  0.30153288516E+03  0.00000000000E+00 0.  1.
         22    1    1    2    0    0 -0.33202918756E+03  0.42120273674E+03 -0.91391823743E+03  0.10596705486E+04  0.00000000000E+00 0. -1.
<mgrwt>
<rscale>  0 0.19084859E+04</rscale>
<asrwt>0</asrwt>
<pdfrwt beam="1">  1        1 0.16666896E+00 0.19084859E+04</pdfrwt>
<pdfrwt beam="2">  1       -1 0.12931131E+00 0.19084859E+04</pdfrwt>
<totfact> 0.62728972E+00</totfact>
</mgrwt>
</event>
<event>
 6    1  0.1603085E-006  0.2244035E+04  0.7818608E-02  0.8500320E-01
          2   -1    0    0  501    0  0.00000000000E+00  0.00000000000E+00  0.18682336016E+04  0.18682336016E+04  0.00000000000E+00 0. -1.
         -2   -1    0    0    0  501 -0.00000000000E+00 -0.00000000000E+00 -0.67385757934E+03  0.67385757934E+03  0.00000000000E+00 0.  1.
         23    2    1    2    0    0 -0.37250474959E+03 -0.43165398243E+03  0.16903655428E+04  0.17863858458E+04  0.93561597767E+02 0.  0.
         11    1    3    3    0    0 -0.11258997610E+03 -0.14781345592E+03  0.68875677132E+03  0.71338013044E+03  0.00000000000E+00 0.  1.
        -11    1    3    3    0    0 -0.25991477350E+03 -0.28384052651E+03  0.10016087715E+04  0.10730057153E+04  0.00000000000E+00 0. -1.
         22    1    1    2    0    0  0.37250474959E+03  0.43165398243E+03 -0.49598952059E+03  0.75570533514E+03  0.00000000000E+00 0.  1.
<mgrwt>
<rscale>  0 0.22440351E+04</rscale>
<asrwt>0</asrwt>
<pdfrwt beam="1">  1        2 0.28742055E+00 0.22440351E+04</pdfrwt>
<pdfrwt beam="2">  1       -2 0.10367040E+00 0.22440351E+04</pdfrwt>
<totfact> 0.54587137E+00</totfact>
</mgrwt>
</event>
<event>
 6    1  0.1603085E-006  0.2018798E+04  0.7818608E-02  0.8597882E-01
          2   -1    0    0  501    0  0.00000000000E+00  0.00000000000E+00  0.16081836066E+04  0.16081836066E+04  0.00000000000E+00 0.  1.
         -2   -1    0    0    0  501 -0.00000000000E+00 -0.00000000000E+00 -0.63356315108E+03  0.63356315108E+03  0.00000000000E+00 0. -1.
         23    2    1    2    0    0  0.99988873101E+03 -0.11308263026E+03  0.44007083472E+03  0.11023133666E+04  0.94166145446E+02 0.  0.
         11    1    3    3    0    0  0.76179840235E+03 -0.58021471857E+02  0.30117272612E+03  0.82122366501E+03  0.00000000000E+00 0. -1.
        -11    1    3    3    0    0  0.23809032866E+03 -0.55061158403E+02  0.13889810859E+03  0.28108970158E+03  0.00000000000E+00 0.  1.
         22    1    1    2    0    0 -0.99988873101E+03  0.11308263026E+03  0.53454962082E+03  0.11394333911E+04  0.00000000000E+00 0.  1.
<mgrwt>
<rscale>  0 0.20187975E+04</rscale>
<asrwt>0</asrwt>
<pdfrwt beam="1">  1        2 0.24741286E+00 0.20187975E+04</pdfrwt>
<pdfrwt beam="2">  1       -2 0.97471255E-01 0.20187975E+04</pdfrwt>
<totfact> 0.89831641E+00</totfact>
</mgrwt>
</event>
<event>
 6    1  0.1603085E-006  0.5220646E+04  0.7818608E-02  0.7795343E-01
         -2   -1    0    0    0  501 -0.00000000000E+00  0.00000000000E+00  0.23128041274E+04  0.23128041274E+04  0.00000000000E+00 0.  1.
          2   -1    0    0  501    0  0.00000000000E+00 -0.00000000000E+00 -0.29461151574E+04  0.29461151574E+04  0.00000000000E+00 0. -1.
         23    2    1    2    0    0 -0.74733911865E+03 -0.75538166846E+03 -0.27175919331E+04  0.29194013631E+04  0.92093327305E+02 0.  0.
         13    1    3    3    0    0 -0.43250377357E+03 -0.49775626932E+03 -0.17176369324E+04  0.18398634322E+04  0.00000000000E+00 0. -1.
        -13    1    3    3    0    0 -0.31483534508E+03 -0.25762539914E+03 -0.99995500071E+03  0.10795379309E+04  0.00000000000E+00 0.  1.
         22    1    1    2    0    0  0.74733911865E+03  0.75538166846E+03  0.20842809030E+04  0.23395179217E+04  0.00000000000E+00 0.  1.
<mgrwt>
<rscale>  0 0.52206464E+04</rscale>
<asrwt>0</asrwt>
<pdfrwt beam="1">  1        2 0.45324849E+00 0.52206464E+04</pdfrwt>
<pdfrwt beam="2">  1       -2 0.35581602E+00 0.52206464E+04</pdfrwt>
<totfact> 0.19236588E-02</totfact>
</mgrwt>
</event>
<event>
 6    1  0.1603085E-006  0.2059386E+04  0.7818608E-02  0.8579348E-01
         -1   -1    0    0    0  501 -0.00000000000E+00  0.00000000000E+00  0.16537716111E+04  0.16537716111E+04  0.00000000000E+00 0.  1.
          1   -1    0    0  501    0  0.00000000000E+00 -0.00000000000E+00 -0.64112094962E+03  0.64112094962E+03  0.00000000000E+00 0. -1.
         23    2    1    2    0    0 -0.45249651942E+03  0.71451843424E+03 -0.14331436688E+03  0.86257107454E+03  0.90554723384E+02 0.  0.
         11    1    3    3    0    0 -0.16613744767E+03  0.21632500554E+03 -0.11417046934E+02  0.27299909982E+03  0.00000000000E+00 0.  1.
        -11    1    3    3    0    0 -0.28635907175E+03  0.49819342869E+03 -0.13189731995E+03  0.58957197472E+03  0.00000000000E+00 0. -1.
         22    1    1    2    0    0  0.45249651942E+03 -0.71451843424E+03  0.11559650283E+04  0.14323214862E+04  0.00000000000E+00 0. -1.
<mgrwt>
<rscale>  0 0.20593860E+04</rscale>
<asrwt>0</asrwt>
<pdfrwt beam="1">  1        1 0.98633993E-01 0.20593860E+04</pdfrwt>
<pdfrwt beam="2">  1       -1 0.25442640E+00 0.20593860E+04</pdfrwt>
<totfact> 0.18713188E+00</totfact>
</mgrwt>
</event>
<event>
 6    1  0.2364105E-006  0.4184816E+04  0.7818608E-02  0.7968267E-01
         -2   -1    0    0    0  501 -0.00000000000E+00  0.00000000000E+00  0.13879272751E+04  0.13879272751E+04  0.00000000000E+00 0.  1.
          2   -1    0    0  501    0  0.00000000000E+00 -0.00000000000E+00 -0.31544671306E+04  0.31544671306E+04  0.00000000000E+00 0. -1.
         23    2    1    2    0    0  0.13153547995E+04 -0.13615491516E+04 -0.18484289424E+04  0.26474853939E+04  0.92276839835E+02 0.  0.
         13    1    3    3    0    0  0.42662030241E+03 -0.42170034211E+03 -0.52956464118E+03  0.80017171292E+03  0.00000000000E+00 0.  1.
        -13    1    3    3    0    0  0.88873449705E+03 -0.93984880946E+03 -0.13188643012E+04  0.18473136810E+04  0.00000000000E+00 0. -1.
         22    1    1    2    0    0 -0.13153547995E+04  0.13615491516E+04  0.81889086860E+02  0.18949090118E+04  0.00000000000E+00 0.  1.
<mgrwt>
<rscale>  0 0.41848159E+04</rscale>
<asrwt>0</asrwt>
<pdfrwt beam="1">  1        2 0.48530263E+00 0.41848159E+04</pdfrwt>
<pdfrwt beam="2">  1       -2 0.21352728E+00 0.41848159E+04</pdfrwt>
<totfact> 0.11716031E-01</totfact>
</mgrwt>
</event>
<event>
 6    1  0.1603085E-006  0.1820466E+04  0.7818608E-02  0.8695491E-01
         -1   -1    0    0    0  501 -0.00000000000E+00  0.00000000000E+00  0.69858482170E+03  0.69858482170E+03  0.00000000000E+00 0.  1.
          1   -1    0    0  501    0  0.00000000000E+00 -0.00000000000E+00 -0.11860031198E+04  0.11860031198E+04  0.00000000000E+00 0. -1.
         23    2    1    2    0    0  0.89923609805E+03  0.12609516319E+03 -0.27501552579E+03  0.95204277479E+03  0.78907258218E+02 0.  0.
         11    1    3    3    0    0  0.42053281078E+03  0.26073317970E+02 -0.15034949590E+03  0.44736185999E+03  0.00000000000E+00 0. -1.
        -11    1    3    3    0    0  0.47870328727E+03  0.10002184522E+03 -0.12466602988E+03  0.50468091480E+03  0.00000000000E+00 0.  1.
         22    1    1    2    0    0 -0.89923609805E+03 -0.12609516319E+03 -0.21240277229E+03  0.93254516668E+03  0.00000000000E+00 0.  1.
<mgrwt>
<rscale>  0 0.18204656E+04</rscale>
<asrwt>0</asrwt>
<pdfrwt beam="1">  1        1 0.18246202E+00 0.18204656E+04</pdfrwt>
<pdfrwt beam="2">  1       -1 0.10747459E+00 0.18204656E+04</pdfrwt>
<totfact> 0.83095613E+00</totfact>
</mgrwt>
</event>
<event>
 6    1  0.1603085E-006  0.5170004E+04  0.7818608E-02  0.7802805E-01
         -2   -1    0    0    0  501 -0.00000000000E+00  0.00000000000E+00  0.56605459609E+04  0.56605459609E+04  0.00000000000E+00 0.  1.
          2   -1    0    0  501    0  0.00000000000E+00 -0.00000000000E+00 -0.11804928642E+04  0.11804928642E+04  0.00000000000E+00 0. -1.
         23    2    1    2    0    0 -0.23521729154E+04 -0.41751181839E+03  0.93675778304E+03  0.25676355886E+04  0.90574992797E+02 0.  0.
         13    1    3    3    0    0 -0.93756340748E+03 -0.12144430051E+03  0.37104598595E+03  0.10156027692E+04  0.00000000000E+00 0.  1.
        -13    1    3    3    0    0 -0.14146095079E+04 -0.29606751789E+03  0.56571179709E+03  0.15520328193E+04  0.00000000000E+00 0. -1.
         22    1    1    2    0    0  0.23521729154E+04  0.41751181839E+03  0.35432953137E+04  0.42734032366E+04  0.00000000000E+00 0.  1.
<mgrwt>
<rscale>  0 0.51700035E+04</rscale>
<asrwt>0</asrwt>
<pdfrwt beam="1">  1        2 0.18161429E+00 0.51700035E+04</pdfrwt>
<pdfrwt beam="2">  1       -2 0.87085321E+00 0.51700035E+04</pdfrwt>
<totfact> 0.28210231E-04</totfact>
</mgrwt>
</event>
<event>
 6    1  0.1603085E-006  0.4258188E+04  0.7818608E-02  0.7954395E-01
         -1   -1    0    0    0  501 -0.00000000000E+00  0.00000000000E+00  0.26811110439E+04  0.26811110439E+04  0.00000000000E+00 0.  1.
          1   -1    0    0  501    0  0.00000000000E+00 -0.00000000000E+00 -0.16907319971E+04  0.16907319971E+04  0.00000000000E+00 0. -1.
         23    2    1    2    0    0 -0.50080966877E+03  0.15550153939E+04  0.18955971059E+04  0.25041431362E+04  0.92527072458E+02 0.  0.
         13    1    3    3    0    0 -0.17807287075E+03  0.43655320090E+03  0.58043416040E+03  0.74779172172E+03  0.00000000000E+00 0. -1.
        -13    1    3    3    0    0 -0.32273679802E+03  0.11184621931E+04  0.13151629455E+04  0.17563514145E+04  0.00000000000E+00 0.  1.
         22    1    1    2    0    0  0.50080966877E+03 -0.15550153939E+04 -0.90521805912E+03  0.18676999048E+04  0.00000000000E+00 0. -1.
<mgrwt>
<rscale>  0 0.42581875E+04</rscale>
<asrwt>0</asrwt>
<pdfrwt beam="1">  1        1 0.26011261E+00 0.42581875E+04</pdfrwt>
<pdfrwt beam="2">  1       -1 0.41247862E+00 0.42581875E+04</pdfrwt>
<totfact> 0.21762776E-02</totfact>
</mgrwt>
</event>
<event>
 6    1  0.1603085E-006  0.3349324E+04  0.7818608E-02  0.8150457E-01
         -1   -1    0    0    0  501 -0.00000000000E+00  0.00000000000E+00  0.98766426873E+03  0.98766426873E+03  0.00000000000E+00 0.  1.
          1   -1    0    0  501    0  0.00000000000E+00 -0.00000000000E+00 -0.28395199391E+04  0.28395199391E+04  0.00000000000E+00 0. -1.
         23    2    1    2    0    0  0.10191675067E+04  0.12147725881E+04 -0.31580140183E+03  0.16195072470E+04  0.93264946989E+02 0.  0.
         13    1    3    3    0    0  0.77677514530E+03  0.93416315978E+03 -0.20176441046E+03  0.12315637672E+04  0.00000000000E+00 0.  1.
        -13    1    3    3    0    0  0.24239236139E+03  0.28060942830E+03 -0.11403699137E+03  0.38794347979E+03  0.00000000000E+00 0. -1.
         22    1    1    2    0    0 -0.10191675067E+04 -0.12147725881E+04 -0.15360542686E+04  0.22076769608E+04  0.00000000000E+00 0. -1.
<mgrwt>
<rscale>  0 0.33493237E+04</rscale>
<asrwt>0</asrwt>
<pdfrwt beam="1">  1        1 0.43684922E+00 0.33493237E+04</pdfrwt>
<pdfrwt beam="2">  1       -1 0.15194835E+00 0.33493237E+04</pdfrwt>
<totfact> 0.21723518E-01</totfact>
</mgrwt>
</event>
<event>
 6    1  0.1603085E-006  0.2838608E+04  0.7818608E-02  0.8291381E-01
          2   -1    0    0  501    0  0.00000000000E+00  0.00000000000E+00  0.29047067450E+04  0.29047067450E+04  0.00000000000E+00 0. -1.
         -2   -1    0    0    0  501 -0.00000000000E+00 -0.00000000000E+00 -0.69350321239E+03  0.69350321239E+03  0.00000000000E+00 0.  1.
         23    2    1    2    0    0  0.95677956288E+03  0.27653077343E+02 -0.21894980905E+03  0.98634528085E+03  0.93520957703E+02 0.  0.
         13    1    3    3    0    0  0.76261670372E+03 -0.12080238877E+02 -0.15701567692E+03  0.77870667890E+03  0.00000000000E+00 0. -1.
        -13    1    3    3    0    0  0.19416285916E+03  0.39733316219E+02 -0.61934132130E+02  0.20763860195E+03  0.00000000000E+00 0.  1.
         22    1    1    2    0    0 -0.95677956288E+03 -0.27653077343E+02  0.24301533417E+04  0.26118646766E+04  0.00000000000E+00 0. -1.
<mgrwt>
<rscale>  0 0.28386077E+04</rscale>
<asrwt>0</asrwt>
<pdfrwt beam="1">  1        2 0.44687795E+00 0.28386077E+04</pdfrwt>
<pdfrwt beam="2">  1       -2 0.10669280E+00 0.28386077E+04</pdfrwt>
<totfact> 0.12239127E+00</totfact>
</mgrwt>
</event>
<event>
 6    1  0.1603085E-006  0.2074729E+04  0.7818608E-02  0.8572458E-01
          1   -1    0    0  501    0  0.00000000000E+00  0.00000000000E+00  0.98725936915E+03  0.98725936915E+03  0.00000000000E+00 0. -1.
         -1   -1    0    0    0  501 -0.00000000000E+00 -0.00000000000E+00 -0.10900124043E+04  0.10900124043E+04  0.00000000000E+00 0.  1.
         23    2    1    2    0    0 -0.25712588662E+03 -0.80652117757E+02 -0.10523129387E+04  0.10902142797E+04  0.92661583116E+02 0.  0.
         13    1    3    3    0    0 -0.15853645034E+03 -0.48349558856E+02 -0.46148268391E+03  0.49034452528E+03  0.00000000000E+00 0. -1.
        -13    1    3    3    0    0 -0.98589436282E+02 -0.32302558901E+02 -0.59083025482E+03  0.59986975442E+03  0.00000000000E+00 0.  1.
         22    1    1    2    0    0  0.25712588662E+03  0.80652117757E+02  0.94955990352E+03  0.98705749379E+03  0.00000000000E+00 0. -1.
<mgrwt>
<rscale>  0 0.20747289E+04</rscale>
<asrwt>0</asrwt>
<pdfrwt beam="1">  1        1 0.15188606E+00 0.20747289E+04</pdfrwt>
<pdfrwt beam="2">  1       -1 0.16769422E+00 0.20747289E+04</pdfrwt>
<totfact> 0.36520973E+00</totfact>
</mgrwt>
</event>
<event>
 6    1  0.1603085E-006  0.3048463E+04  0.7818608E-02  0.8230026E-01
         -1   -1    0    0    0  501 -0.00000000000E+00  0.00000000000E+00  0.11258920238E+04  0.11258920238E+04  0.00000000000E+00 0.  1.
          1   -1    0    0  501    0  0.00000000000E+00 -0.00000000000E+00 -0.20635027129E+04  0.20635027129E+04  0.00000000000E+00 0. -1.
         23    2    1    2    0    0 -0.11711362374E+04 -0.66082813587E+03  0.27820466112E+03  0.13765348751E+04  0.95898473304E+02 0.  0.
         13    1    3    3    0    0 -0.94564398789E+03 -0.49769617506E+03  0.19708786054E+03  0.10866405382E+04  0.00000000000E+00 0.  1.
        -13    1    3    3    0    0 -0.22549224956E+03 -0.16313196082E+03  0.81116800583E+02  0.28989433694E+03  0.00000000000E+00 0. -1.
         22    1    1    2    0    0  0.11711362374E+04  0.66082813587E+03 -0.12158153502E+04  0.18128598615E+04  0.00000000000E+00 0. -1.
<mgrwt>
<rscale>  0 0.30484627E+04</rscale>
<asrwt>0</asrwt>
<pdfrwt beam="1">  1        1 0.31746196E+00 0.30484627E+04</pdfrwt>
<pdfrwt beam="2">  1       -1 0.17321416E+00 0.30484627E+04</pdfrwt>
<totfact> 0.53300349E-01</totfact>
</mgrwt>
</event>
<event>
 6    1  0.1603085E-006  0.2846263E+04  0.7818608E-02  0.8289048E-01
         -2   -1    0    0    0  501 -0.00000000000E+00  0.00000000000E+00  0.85937141855E+03  0.85937141855E+03  0.00000000000E+00 0.  1.
          2   -1    0    0  501    0  0.00000000000E+00 -0.00000000000E+00 -0.23567271046E+04  0.23567271046E+04  0.00000000000E+00 0. -1.
         23    2    1    2    0    0 -0.55400199006E+03  0.97592807852E+03  0.23682665368E+03  0.11504891199E+04  0.90468401390E+02 0.  0.
         11    1    3    3    0    0 -0.42952572230E+03  0.67360281800E+03  0.16617412079E+03  0.81599444909E+03  0.00000000000E+00 0.  1.
        -11    1    3    3    0    0 -0.12447626776E+03  0.30232526052E+03  0.70652532889E+02  0.33449467079E+03  0.00000000000E+00 0. -1.
         22    1    1    2    0    0  0.55400199006E+03 -0.97592807852E+03 -0.17341823397E+04  0.20656094032E+04  0.00000000000E+00 0. -1.
<mgrwt>
<rscale>  0 0.28462635E+04</rscale>
<asrwt>0</asrwt>
<pdfrwt beam="1">  1        2 0.36257339E+00 0.28462635E+04</pdfrwt>
<pdfrwt beam="2">  1       -2 0.13221099E+00 0.28462635E+04</pdfrwt>
<totfact> 0.15178699E+00</totfact>
</mgrwt>
</event>
<event>
 6    1  0.1603085E-006  0.2594158E+04  0.7818608E-02  0.8370188E-01
         -2   -1    0    0    0  501 -0.00000000000E+00  0.00000000000E+00  0.12131789494E+04  0.12131789494E+04  0.00000000000E+00 0.  1.
          2   -1    0    0  501    0  0.00000000000E+00 -0.00000000000E+00 -0.13867809867E+04  0.13867809867E+04  0.00000000000E+00 0. -1.
         23    2    1    2    0    0 -0.33066784526E+01 -0.29687719953E+03  0.11768422157E+04  0.12172644939E+04  0.92888328604E+02 0.  0.
         13    1    3    3    0    0  0.80829215338E+01 -0.79989463785E+02  0.50022174341E+03  0.50664133321E+03  0.00000000000E+00 0.  1.
        -13    1    3    3    0    0 -0.11389599986E+02 -0.21688773574E+03  0.67662047231E+03  0.71062316065E+03  0.00000000000E+00 0. -1.
         22    1    1    2    0    0  0.33066784526E+01  0.29687719953E+03 -0.13504442530E+04  0.13826954423E+04  0.00000000000E+00 0. -1.
<mgrwt>
<rscale>  0 0.25941577E+04</rscale>
<asrwt>0</asrwt>
<pdfrwt beam="1">  1        2 0.21335092E+00 0.25941577E+04</pdfrwt>
<pdfrwt beam="2">  1       -2 0.18664292E+00 0.25941577E+04</pdfrwt>
<totfact> 0.21283161E+00</totfact>
</mgrwt>
</event>
<event>
 6    1  0.1603085E-006  0.1817633E+04  0.7818608E-02  0.8696979E-01
         -1   -1    0    0    0  501 -0.00000000000E+00  0.00000000000E+00  0.57730674978E+03  0.57730674978E+03  0.00000000000E+00 0.  1.
          1   -1    0    0  501    0  0.00000000000E+00 -0.00000000000E+00 -0.14306900061E+04  0.14306900061E+04  0.00000000000E+00 0. -1.
         23    2    1    2    0    0 -0.66208436785E+02  0.65278649705E+03 -0.11187990065E+04  0.13002119806E+04  0.91248066694E+02 0.  0.
         13    1    3    3    0    0 -0.40837376102E+02  0.10391770840E+03 -0.22148302186E+03  0.24803489751E+03  0.00000000000E+00 0. -1.
        -13    1    3    3    0    0 -0.25371060683E+02  0.54886878864E+03 -0.89731598461E+03  0.10521770831E+04  0.00000000000E+00 0.  1.
         22    1    1    2    0    0  0.66208436785E+02 -0.65278649705E+03  0.26541575011E+03  0.70778477536E+03  0.00000000000E+00 0.  1.
<mgrwt>
<rscale>  0 0.18176325E+04</rscale>
<asrwt>0</asrwt>
<pdfrwt beam="1">  1        1 0.22010615E+00 0.18176325E+04</pdfrwt>
<pdfrwt beam="2">  1       -1 0.88816424E-01 0.18176325E+04</pdfrwt>
<totfact> 0.85674267E+00</totfact>
</mgrwt>
</event>
<event>
 6    1  0.1603085E-006  0.5501551E+03  0.7818608E-02  0.1001458E+00
          2   -1    0    0  501    0  0.00000000000E+00  0.00000000000E+00  0.11306829836E+03  0.11306829836E+03  0.00000000000E+00 0. -1.
         -2   -1    0    0    0  501 -0.00000000000E+00 -0.00000000000E+00 -0.66922092320E+03  0.66922092320E+03  0.00000000000E+00 0.  1.
         23    2    1    2    0    0 -0.31240669696E+02 -0.24550421782E+03 -0.14094142584E+03  0.29891706661E+03  0.90766881504E+02 0.  0.
         11    1    3    3    0    0 -0.49257989352E+02 -0.22654185069E+03 -0.14347083523E+03  0.27263792874E+03  0.00000000000E+00 0. -1.
        -11    1    3    3    0    0  0.18017319656E+02 -0.18962367137E+02  0.25294093880E+01  0.26279137864E+02  0.00000000000E+00 0.  1.
         22    1    1    2    0    0  0.31240669696E+02  0.24550421782E+03 -0.41521119899E+03  0.48337215495E+03  0.00000000000E+00 0.  1.
<mgrwt>
<rscale>  0 0.55015515E+03</rscale>
<asrwt>0</asrwt>
<pdfrwt beam="1">  1        2 0.17395123E-01 0.55015515E+03</pdfrwt>
<pdfrwt beam="2">  1       -2 0.10295707E+00 0.55015515E+03</pdfrwt>
<totfact> 0.26162442E+02</totfact>
</mgrwt>
</event>
<event>
 6    1  0.1603085E-006  0.1597534E+04  0.7818608E-02  0.8822064E-01
         -2   -1    0    0    0  501 -0.00000000000E+00  0.00000000000E+00  0.49238771868E+03  0.49238771868E+03  0.00000000000E+00 0. -1.
          2   -1    0    0  501    0  0.00000000000E+00 -0.00000000000E+00 -0.12957857876E+04  0.12957857876E+04  0.00000000000E+00 0.  1.
         23    2    1    2    0    0 -0.60967698981E+03 -0.15883754929E+03 -0.94780525286E+03  0.11418076395E+04  0.91948296519E+02 0.  0.
         13    1    3    3    0    0 -0.16016432008E+03 -0.81317048723E+02 -0.29616130055E+03  0.34637636724E+03  0.00000000000E+00 0.  1.
        -13    1    3    3    0    0 -0.44951266973E+03 -0.77520500569E+02 -0.65164395231E+03  0.79543127223E+03  0.00000000000E+00 0. -1.
         22    1    1    2    0    0  0.60967698981E+03  0.15883754929E+03  0.14440718397E+03  0.64636586679E+03  0.00000000000E+00 0. -1.
<mgrwt>
<rscale>  0 0.15975344E+04</rscale>
<asrwt>0</asrwt>
<pdfrwt beam="1">  1        2 0.19935166E+00 0.15975344E+04</pdfrwt>
<pdfrwt beam="2">  1       -2 0.75751957E-01 0.15975344E+04</pdfrwt>
<totfact> 0.24905399E+01</totfact>
</mgrwt>
</event>
<event>
 6    1  0.1603085E-006  0.1131704E+04  0.7818608E-02  0.9174830E-01
         -1   -1    0    0    0  501 -0.00000000000E+00  0.00000000000E+00  0.72518882877E+02  0.72518882877E+02  0.00000000000E+00 0. -1.
          1   -1    0    0  501    0  0.00000000000E+00 -0.00000000000E+00 -0.44152431957E+04  0.44152431957E+04  0.00000000000E+00 0.  1.
         23    2    1    2    0    0  0.54573574472E+03 -0.76243710757E+02 -0.17438845348E+04  0.18311460359E+04  0.91224599183E+02 0.  0.
         13    1    3    3    0    0  0.32552956926E+03 -0.85511047885E+02 -0.11197145571E+04  0.11692058541E+04  0.00000000000E+00 0.  1.
        -13    1    3    3    0    0  0.22020617546E+03  0.92673371275E+01 -0.62416997767E+03  0.66194018180E+03  0.00000000000E+00 0. -1.
         22    1    1    2    0    0 -0.54573574472E+03  0.76243710757E+02 -0.25988397781E+04  0.26566160428E+04  0.00000000000E+00 0.  1.
<mgrwt>
<rscale>  0 0.11317040E+04</rscale>
<asrwt>0</asrwt>
<pdfrwt beam="1">  1        1 0.67926823E+00 0.11317040E+04</pdfrwt>
<pdfrwt beam="2">  1       -1 0.11156751E-01 0.11317040E+04</pdfrwt>
<totfact> 0.21815794E+00</totfact>
</mgrwt>
</event>
<event>
 6    1  0.1603085E-006  0.1507403E+04  0.7818608E-02  0.8879545E-01
         -1   -1    0    0    0  501 -0.00000000000E+00  0.00000000000E+00  0.26403244547E+03  0.26403244547E+03  0.00000000000E+00 0.  1.
          1   -1    0    0  501    0  0.00000000000E+00 -0.00000000000E+00 -0.21515015108E+04  0.21515015108E+04  0.00000000000E+00 0. -1.
         23    2    1    2    0    0  0.32755622958E+03  0.53372944872E+03 -0.16112701476E+04  0.17311027690E+04  0.91460923189E+02 0.  0.
         11    1    3    3    0    0  0.18580311294E+03  0.32781406433E+03 -0.84834192636E+03  0.92826121409E+03  0.00000000000E+00 0.  1.
        -11    1    3    3    0    0  0.14175311663E+03  0.20591538439E+03 -0.76292822120E+03  0.80284155492E+03  0.00000000000E+00 0. -1.
         22    1    1    2    0    0 -0.32755622958E+03 -0.53372944872E+03 -0.27619891781E+03  0.68443118731E+03  0.00000000000E+00 0.  1.
<mgrwt>
<rscale>  0 0.15074033E+04</rscale>
<asrwt>0</asrwt>
<pdfrwt beam="1">  1        1 0.33100023E+00 0.15074033E+04</pdfrwt>
<pdfrwt beam="2">  1       -1 0.40620376E-01 0.15074033E+04</pdfrwt>
<totfact> 0.13471747E+01</totfact>
</mgrwt>
</event>
<event>
 6    1  0.1603085E-006  0.3769559E+04  0.7818608E-02  0.8052719E-01
          2   -1    0    0  501    0  0.00000000000E+00  0.00000000000E+00  0.27822016918E+04  0.27822016918E+04  0.00000000000E+00 0. -1.
         -2   -1    0    0    0  501 -0.00000000000E+00 -0.00000000000E+00 -0.12768285954E+04  0.12768285954E+04  0.00000000000E+00 0.  1.
         23    2    1    2    0    0  0.14430890415E+04 -0.21571825021E+03  0.20358091995E+04  0.25064830883E+04  0.94329367752E+02 0.  0.
         11    1    3    3    0    0  0.28651615978E+03 -0.60734393152E+02  0.35317972683E+03  0.45882033060E+03  0.00000000000E+00 0. -1.
        -11    1    3    3    0    0  0.11565728818E+04 -0.15498385706E+03  0.16826294727E+04  0.20476627577E+04  0.00000000000E+00 0.  1.
         22    1    1    2    0    0 -0.14430890415E+04  0.21571825021E+03 -0.53043610311E+03  0.15525471989E+04  0.00000000000E+00 0.  1.
<mgrwt>
<rscale>  0 0.37695595E+04</rscale>
<asrwt>0</asrwt>
<pdfrwt beam="1">  1        2 0.42803103E+00 0.37695595E+04</pdfrwt>
<pdfrwt beam="2">  1       -2 0.19643517E+00 0.37695595E+04</pdfrwt>
<totfact> 0.26743819E-01</totfact>
</mgrwt>
</event>
<event>
 6    1  0.1603085E-006  0.2773241E+04  0.7818608E-02  0.8311624E-01
          2   -1    0    0  501    0  0.00000000000E+00  0.00000000000E+00  0.17613847550E+04  0.17613847550E+04  0.00000000000E+00 0. -1.
         -2   -1    0    0    0  501 -0.00000000000E+00 -0.00000000000E+00 -0.10915937414E+04  0.10915937414E+04  0.00000000000E+00 0.  1.
         23    2    1    2    0    0  0.98390856859E+03  0.28034426015E+02  0.13377666331E+04  0.16634183136E+04  0.92081057107E+02 0.  0.
         13    1    3    3    0    0  0.78008205625E+03  0.29632091761E+02  0.11191840128E+04  0.13645434877E+04  0.00000000000E+00 0.  1.
        -13    1    3    3    0    0  0.20382651233E+03 -0.15976657456E+01  0.21858262030E+03  0.29887482591E+03  0.00000000000E+00 0. -1.
         22    1    1    2    0    0 -0.98390856859E+03 -0.28034426015E+02 -0.66797561945E+03  0.11895601828E+04  0.00000000000E+00 0.  1.
<mgrwt>
<rscale>  0 0.27732411E+04</rscale>
<asrwt>0</asrwt>
<pdfrwt beam="1">  1        2 0.27098227E+00 0.27732411E+04</pdfrwt>
<pdfrwt beam="2">  1       -2 0.16793750E+00 0.27732411E+04</pdfrwt>
<totfact> 0.17434216E+00</totfact>
</mgrwt>
</event>
<event>
 6    1  0.1603085E-006  0.6837646E+03  0.7818608E-02  0.9745407E-01
          1   -1    0    0  501    0  0.00000000000E+00  0.00000000000E+00  0.18913946859E+04  0.18913946859E+04  0.00000000000E+00 0. -1.
         -1   -1    0    0    0  501 -0.00000000000E+00 -0.00000000000E+00 -0.61797523831E+02  0.61797523831E+02  0.00000000000E+00 0.  1.
         23    2    1    2    0    0  0.16089658957E+03 -0.93748947896E+02  0.17292719887E+04  0.17416698276E+04  0.91408967671E+02 0.  0.
         13    1    3    3    0    0  0.60382675240E+02 -0.80074304101E+02  0.10629314723E+04  0.10676522263E+04  0.00000000000E+00 0. -1.
        -13    1    3    3    0    0  0.10051391433E+03 -0.13674643795E+02  0.66634051647E+03  0.67401760121E+03  0.00000000000E+00 0.  1.
         22    1    1    2    0    0 -0.16089658957E+03  0.93748947896E+02  0.10032517334E+03  0.21152238220E+03  0.00000000000E+00 0.  1.
<mgrwt>
<rscale>  0 0.68376460E+03</rscale>
<asrwt>0</asrwt>
<pdfrwt beam="1">  1        1 0.29098375E+00 0.68376460E+03</pdfrwt>
<pdfrwt beam="2">  1       -1 0.95073128E-02 0.68376460E+03</pdfrwt>
<totfact> 0.24910419E+02</totfact>
</mgrwt>
</event>
<event>
 6    1  0.1603085E-006  0.5255090E+04  0.7818608E-02  0.7790318E-01
          1   -1    0    0  501    0  0.00000000000E+00  0.00000000000E+00  0.37264954660E+04  0.37264954660E+04  0.00000000000E+00 0. -1.
         -1   -1    0    0    0  501 -0.00000000000E+00 -0.00000000000E+00 -0.18526767585E+04  0.18526767585E+04  0.00000000000E+00 0.  1.
         23    2    1    2    0    0  0.77002653163E+03 -0.71101700389E+03  0.34943963256E+04  0.36492090499E+04  0.86226272558E+02 0.  0.
         13    1    3    3    0    0  0.54782995801E+03 -0.45574092830E+03  0.23118393136E+04  0.24191772297E+04  0.00000000000E+00 0. -1.
        -13    1    3    3    0    0  0.22219657362E+03 -0.25527607560E+03  0.11825570120E+04  0.12300318202E+04  0.00000000000E+00 0.  1.
         22    1    1    2    0    0 -0.77002653163E+03  0.71101700389E+03 -0.16205776181E+04  0.19299631747E+04  0.00000000000E+00 0.  1.
<mgrwt>
<rscale>  0 0.52550895E+04</rscale>
<asrwt>0</asrwt>
<pdfrwt beam="1">  1        1 0.57330699E+00 0.52550895E+04</pdfrwt>
<pdfrwt beam="2">  1       -1 0.28502719E+00 0.52550895E+04</pdfrwt>
<totfact> 0.47847680E-03</totfact>
</mgrwt>
</event>
<event>
 6    1  0.1603085E-006  0.1318575E+04  0.7818608E-02  0.9014963E-01
          1   -1    0    0  501    0  0.00000000000E+00  0.00000000000E+00  0.13743201654E+04  0.13743201654E+04  0.00000000000E+00 0. -1.
         -1   -1    0    0    0  501 -0.00000000000E+00 -0.00000000000E+00 -0.31627270990E+03  0.31627270990E+03  0.00000000000E+00 0.  1.
         23    2    1    2    0    0 -0.17337584044E+03 -0.29783134470E+03 -0.18425449945E+03  0.40137728463E+03  0.91604105340E+02 0.  0.
         13    1    3    3    0    0 -0.71999119365E+02 -0.46839212065E+02 -0.44151337025E+02  0.96577044567E+02  0.00000000000E+00 0. -1.
        -13    1    3    3    0    0 -0.10137672107E+03 -0.25099213264E+03 -0.14010316243E+03  0.30480024007E+03  0.00000000000E+00 0.  1.
         22    1    1    2    0    0  0.17337584044E+03  0.29783134470E+03  0.12423019549E+04  0.12892155907E+04  0.00000000000E+00 0. -1.
<mgrwt>
<rscale>  0 0.13185749E+04</rscale>
<asrwt>0</asrwt>
<pdfrwt beam="1">  1        1 0.21143387E+00 0.13185749E+04</pdfrwt>
<pdfrwt beam="2">  1       -1 0.48657341E-01 0.13185749E+04</pdfrwt>
<totfact> 0.33214234E+01</totfact>
</mgrwt>
</event>
<event>
 6    1  0.1603085E-006  0.2678044E+04  0.7818608E-02  0.8342164E-01
          1   -1    0    0  501    0  0.00000000000E+00  0.00000000000E+00  0.11352584947E+04  0.11352584947E+04  0.00000000000E+00 0. -1.
         -1   -1    0    0    0  501 -0.00000000000E+00 -0.00000000000E+00 -0.15793581022E+04  0.15793581022E+04  0.00000000000E+00 0.  1.
         23    2    1    2    0    0  0.11455373977E+03 -0.13297541055E+04 -0.13603821794E+03  0.13448464117E+04  0.93471567973E+02 0.  0.
         13    1    3    3    0    0  0.56277431003E+02 -0.54214280135E+03 -0.10078566489E+03  0.55429569414E+03  0.00000000000E+00 0. -1.
        -13    1    3    3    0    0  0.58276308763E+02 -0.78761130415E+03 -0.35252553056E+02  0.79055071759E+03  0.00000000000E+00 0.  1.
         22    1    1    2    0    0 -0.11455373977E+03  0.13297541055E+04 -0.30806138965E+03  0.13697701852E+04  0.00000000000E+00 0.  1.
<mgrwt>
<rscale>  0 0.26780438E+04</rscale>
<asrwt>0</asrwt>
<pdfrwt beam="1">  1        1 0.17465515E+00 0.26780438E+04</pdfrwt>
<pdfrwt beam="2">  1       -1 0.24297817E+00 0.26780438E+04</pdfrwt>
<totfact> 0.80882096E-01</totfact>
</mgrwt>
</event>
<event>
 6    1  0.1603085E-006  0.1284935E+04  0.7818608E-02  0.9041598E-01
         -1   -1    0    0    0  501 -0.00000000000E+00  0.00000000000E+00  0.32361059686E+03  0.32361059686E+03  0.00000000000E+00 0.  1.
          1   -1    0    0  501    0  0.00000000000E+00 -0.00000000000E+00 -0.12754966881E+04  0.12754966881E+04  0.00000000000E+00 0. -1.
         23    2    1    2    0    0 -0.59119232324E+03 -0.13919762142E+03 -0.23042109169E+03  0.65602929963E+03  0.91630898771E+02 0.  0.
         13    1    3    3    0    0 -0.20752637308E+03 -0.10296944307E+02 -0.55206579570E+02  0.21499067192E+03  0.00000000000E+00 0.  1.
        -13    1    3    3    0    0 -0.38366595016E+03 -0.12890067711E+03 -0.17521451212E+03  0.44103862771E+03  0.00000000000E+00 0. -1.
         22    1    1    2    0    0  0.59119232324E+03  0.13919762142E+03 -0.72146499958E+03  0.94307798537E+03  0.00000000000E+00 0. -1.
<mgrwt>
<rscale>  0 0.12849346E+04</rscale>
<asrwt>0</asrwt>
<pdfrwt beam="1">  1        1 0.19623026E+00 0.12849346E+04</pdfrwt>
<pdfrwt beam="2">  1       -1 0.49786247E-01 0.12849346E+04</pdfrwt>
<totfact> 0.37485439E+01</totfact>
</mgrwt>
</event>
<event>
 6    1  0.1603085E-006  0.3231752E+04  0.7818608E-02  0.8180482E-01
          1   -1    0    0  501    0  0.00000000000E+00  0.00000000000E+00  0.14073849094E+04  0.14073849094E+04  0.00000000000E+00 0. -1.
         -1   -1    0    0    0  501 -0.00000000000E+00 -0.00000000000E+00 -0.18552525856E+04  0.18552525856E+04  0.00000000000E+00 0.  1.
         23    2    1    2    0    0  0.10806853120E+04  0.80751881040E+03 -0.11196252079E+04  0.17555789181E+04  0.92354527282E+02 0.  0.
         11    1    3    3    0    0  0.11803472953E+03  0.12612873700E+03 -0.13699704737E+03  0.22047414057E+03  0.00000000000E+00 0. -1.
        -11    1    3    3    0    0  0.96265058245E+03  0.68139007341E+03 -0.98262816058E+03  0.15351047775E+04  0.00000000000E+00 0.  1.
         22    1    1    2    0    0 -0.10806853120E+04 -0.80751881040E+03  0.67175753172E+03  0.15070585769E+04  0.00000000000E+00 0. -1.
<mgrwt>
<rscale>  0 0.32317515E+04</rscale>
<asrwt>0</asrwt>
<pdfrwt beam="1">  1        1 0.21652076E+00 0.32317515E+04</pdfrwt>
<pdfrwt beam="2">  1       -1 0.28542347E+00 0.32317515E+04</pdfrwt>
<totfact> 0.25999771E-01</totfact>
</mgrwt>
</event>
<event>
 6    1  0.1603085E-006  0.3018398E+04  0.7818608E-02  0.8238497E-01
         -1   -1    0    0    0  501 -0.00000000000E+00  0.00000000000E+00  0.24293806044E+04  0.24293806044E+04  0.00000000000E+00 0.  1.
          1   -1    0    0  501    0  0.00000000000E+00 -0.00000000000E+00 -0.93755678725E+03  0.93755678725E+03  0.00000000000E+00 0. -1.
         23    2    1    2    0    0  0.11542591135E+04 -0.15991268729E+03 -0.32090381267E+03  0.12119739051E+04  0.89528325263E+02 0.  0.
         13    1    3    3    0    0  0.34675312975E+03 -0.80957256179E+02 -0.71874548969E+02  0.36325990848E+03  0.00000000000E+00 0.  1.
        -13    1    3    3    0    0  0.80750598371E+03 -0.78955431109E+02 -0.24902926370E+03  0.84871399659E+03  0.00000000000E+00 0. -1.
         22    1    1    2    0    0 -0.11542591135E+04  0.15991268729E+03  0.18127276298E+04  0.21549634866E+04  0.00000000000E+00 0.  1.
<mgrwt>
<rscale>  0 0.30183984E+04</rscale>
<asrwt>0</asrwt>
<pdfrwt beam="1">  1        1 0.14423951E+00 0.30183984E+04</pdfrwt>
<pdfrwt beam="2">  1       -1 0.37375086E+00 0.30183984E+04</pdfrwt>
<totfact> 0.15531010E-01</totfact>
</mgrwt>
</event>
<event>
 6    1  0.1603085E-006  0.1472337E+04  0.7818608E-02  0.8903059E-01
          1   -1    0    0  501    0  0.00000000000E+00  0.00000000000E+00  0.88575436864E+03  0.88575436864E+03  0.00000000000E+00 0. -1.
         -1   -1    0    0    0  501 -0.00000000000E+00 -0.00000000000E+00 -0.61184496698E+03  0.61184496698E+03  0.00000000000E+00 0.  1.
         23    2    1    2    0    0 -0.58086162910E+03  0.21929559667E+02 -0.31732975955E+03  0.66847637520E+03  0.91001923897E+02 0.  0.
         13    1    3    3    0    0 -0.55800188111E+03  0.38449996927E+02 -0.30931181541E+03  0.63915436377E+03  0.00000000000E+00 0. -1.
        -13    1    3    3    0    0 -0.22859747991E+02 -0.16520437260E+02 -0.80179441455E+01  0.29322011421E+02  0.00000000000E+00 0.  1.
         22    1    1    2    0    0  0.58086162910E+03 -0.21929559667E+02  0.59123916122E+03  0.82912296042E+03  0.00000000000E+00 0. -1.
<mgrwt>
<rscale>  0 0.14723374E+04</rscale>
<asrwt>0</asrwt>
<pdfrwt beam="1">  1        1 0.13626990E+00 0.14723374E+04</pdfrwt>
<pdfrwt beam="2">  1       -1 0.94129995E-01 0.14723374E+04</pdfrwt>
<totfact> 0.19819791E+01</totfact>
</mgrwt>
</event>
<event>
 6    1  0.1603085E-006  0.3030641E+04  0.7818608E-02  0.8235035E-01
          2   -1    0    0  501    0  0.00000000000E+00  0.00000000000E+00  0.27681793139E+04  0.27681793139E+04  0.00000000000E+00 0. -1.
         -2   -1    0    0    0  501 -0.00000000000E+00 -0.00000000000E+00 -0.82949712072E+03  0.82949712072E+03  0.00000000000E+00 0.  1.
         23    2    1    2    0    0  0.14277231426E+04 -0.50297365743E+03  0.10011736353E+04  0.18171433212E+04  0.91023787381E+02 0.  0.
         11    1    3    3    0    0  0.89554192957E+03 -0.26858503706E+03  0.61853765746E+03  0.11210361740E+04  0.00000000000E+00 0. -1.
        -11    1    3    3    0    0  0.53218121301E+03 -0.23438862037E+03  0.38263597780E+03  0.69610714717E+03  0.00000000000E+00 0.  1.
         22    1    1    2    0    0 -0.14277231426E+04  0.50297365743E+03  0.93750855795E+03  0.17805331135E+04  0.00000000000E+00 0. -1.
<mgrwt>
<rscale>  0 0.30306414E+04</rscale>
<asrwt>0</asrwt>
<pdfrwt beam="1">  1        2 0.42587374E+00 0.30306414E+04</pdfrwt>
<pdfrwt beam="2">  1       -2 0.12761494E+00 0.30306414E+04</pdfrwt>
<totfact> 0.93890316E-01</totfact>
</mgrwt>
</event>
<event>
 6    1  0.1603085E-006  0.2112323E+04  0.7818608E-02  0.8555835E-01
          2   -1    0    0  501    0  0.00000000000E+00  0.00000000000E+00  0.24613083691E+04  0.24613083691E+04  0.00000000000E+00 0.  1.
         -2   -1    0    0    0  501 -0.00000000000E+00 -0.00000000000E+00 -0.45320473656E+03  0.45320473656E+03  0.00000000000E+00 0. -1.
         23    2    1    2    0    0  0.71042797999E+03 -0.59977399785E+03  0.32024728401E+03  0.98752171582E+03  0.90576227876E+02 0.  0.
         13    1    3    3    0    0  0.51742124552E+03 -0.47156824741E+03  0.20977285700E+03  0.73082556662E+03  0.00000000000E+00 0. -1.
        -13    1    3    3    0    0  0.19300673446E+03 -0.12820575044E+03  0.11047442701E+03  0.25669614921E+03  0.00000000000E+00 0.  1.
         22    1    1    2    0    0 -0.71042797999E+03  0.59977399785E+03  0.16878563485E+04  0.19269913898E+04  0.00000000000E+00 0.  1.
<mgrwt>
<rscale>  0 0.21123225E+04</rscale>
<asrwt>0</asrwt>
<pdfrwt beam="1">  1        2 0.37866282E+00 0.21123225E+04</pdfrwt>
<pdfrwt beam="2">  1       -2 0.69723807E-01 0.21123225E+04</pdfrwt>
<totfact> 0.63284913E+00</totfact>
</mgrwt>
</event>
<event>
 6    1  0.1603085E-006  0.2837315E+04  0.7818608E-02  0.8291776E-01
          1   -1    0    0  501    0  0.00000000000E+00  0.00000000000E+00  0.22799914541E+04  0.22799914541E+04  0.00000000000E+00 0. -1.
         -1   -1    0    0    0  501 -0.00000000000E+00 -0.00000000000E+00 -0.88271755774E+03  0.88271755774E+03  0.00000000000E+00 0.  1.
         23    2    1    2    0    0  0.22135022828E+03 -0.10207074412E+04  0.17671115386E+04  0.20547290997E+04  0.91590823907E+02 0.  0.
         13    1    3    3    0    0 -0.64185091553E+01 -0.16595656128E+02  0.43596973625E+02  0.47088312471E+02  0.00000000000E+00 0.  1.
        -13    1    3    3    0    0  0.22776873744E+03 -0.10041117851E+04  0.17235145650E+04  0.20076407872E+04  0.00000000000E+00 0. -1.
         22    1    1    2    0    0 -0.22135022828E+03  0.10207074412E+04 -0.36983764225E+03  0.11079799122E+04  0.00000000000E+00 0.  1.
<mgrwt>
<rscale>  0 0.28373146E+04</rscale>
<asrwt>0</asrwt>
<pdfrwt beam="1">  1        1 0.35076791E+00 0.28373146E+04</pdfrwt>
<pdfrwt beam="2">  1       -1 0.13580270E+00 0.28373146E+04</pdfrwt>
<totfact> 0.75181906E-01</totfact>
</mgrwt>
</event>
<event>
 6    1  0.1603085E-006  0.4186153E+03  0.7818608E-02  0.1037518E+00
         -1   -1    0    0    0  501 -0.00000000000E+00  0.00000000000E+00  0.11127577352E+03  0.11127577352E+03  0.00000000000E+00 0.  1.
          1   -1    0    0  501    0  0.00000000000E+00 -0.00000000000E+00 -0.39370377599E+03  0.39370377599E+03  0.00000000000E+00 0. -1.
         23    2    1    2    0    0  0.17666391577E+03 -0.41843161502E+02 -0.24734446039E+03  0.32006918142E+03  0.91126338165E+02 0.  0.
         13    1    3    3    0    0  0.10273736340E+03  0.22447985824E+02 -0.12915016785E+03  0.16654922324E+03  0.00000000000E+00 0.  1.
        -13    1    3    3    0    0  0.73926552374E+02 -0.64291147326E+02 -0.11819429254E+03  0.15351995818E+03  0.00000000000E+00 0. -1.
         22    1    1    2    0    0 -0.17666391577E+03  0.41843161502E+02 -0.35083542080E+02  0.18491036808E+03  0.00000000000E+00 0.  1.
<mgrwt>
<rscale>  0 0.41861530E+03</rscale>
<asrwt>0</asrwt>
<pdfrwt beam="1">  1        1 0.60569811E-01 0.41861530E+03</pdfrwt>
<pdfrwt beam="2">  1       -1 0.17119350E-01 0.41861530E+03</pdfrwt>
<totfact> 0.16142182E+03</totfact>
</mgrwt>
</event>
<event>
 6    1  0.1603085E-006  0.7020799E+03  0.7818608E-02  0.9713682E-01
         -2   -1    0    0    0  501 -0.00000000000E+00  0.00000000000E+00  0.11548947790E+03  0.11548947790E+03  0.00000000000E+00 0. -1.
          2   -1    0    0  501    0  0.00000000000E+00 -0.00000000000E+00 -0.10670153102E+04  0.10670153102E+04  0.00000000000E+00 0.  1.
         23    2    1    2    0    0  0.21783778751E+02 -0.26051893945E+03 -0.10399479341E+03  0.29556989044E+03  0.90564851061E+02 0.  0.
         13    1    3    3    0    0  0.32520253991E+02 -0.17780296702E+03 -0.11058950043E+03  0.21189973951E+03  0.00000000000E+00 0.  1.
        -13    1    3    3    0    0 -0.10736475240E+02 -0.82715972429E+02  0.65947070105E+01  0.83670150926E+02  0.00000000000E+00 0. -1.
         22    1    1    2    0    0 -0.21783778751E+02  0.26051893945E+03 -0.84753103889E+03  0.88693489768E+03  0.00000000000E+00 0.  1.
<mgrwt>
<rscale>  0 0.70207988E+03</rscale>
<asrwt>0</asrwt>
<pdfrwt beam="1">  1        2 0.16415620E+00 0.70207988E+03</pdfrwt>
<pdfrwt beam="2">  1       -2 0.17767612E-01 0.70207988E+03</pdfrwt>
<totfact> 0.60356602E+02</totfact>
</mgrwt>
</event>
<event>
 6    1  0.1603085E-006  0.1475933E+04  0.7818608E-02  0.8900617E-01
          1   -1    0    0  501    0  0.00000000000E+00  0.00000000000E+00  0.15326918594E+04  0.15326918594E+04  0.00000000000E+00 0. -1.
         -1   -1    0    0    0  501 -0.00000000000E+00 -0.00000000000E+00 -0.35531896818E+03  0.35531896818E+03  0.00000000000E+00 0.  1.
         23    2    1    2    0    0 -0.23380906822E+03  0.60089659075E+03  0.13959964661E+03  0.66624296896E+03  0.92995909595E+02 0.  0.
         11    1    3    3    0    0 -0.12723571401E+03  0.26471054637E+03  0.22189079775E+02  0.29453854679E+03  0.00000000000E+00 0.  1.
        -11    1    3    3    0    0 -0.10657335421E+03  0.33618604437E+03  0.11741056684E+03  0.37170442217E+03  0.00000000000E+00 0. -1.
         22    1    1    2    0    0  0.23380906822E+03 -0.60089659075E+03  0.10377732446E+04  0.12217678586E+04  0.00000000000E+00 0. -1.
<mgrwt>
<rscale>  0 0.14759329E+04</rscale>
<asrwt>0</asrwt>
<pdfrwt beam="1">  1        1 0.23579874E+00 0.14759329E+04</pdfrwt>
<pdfrwt beam="2">  1       -1 0.54664458E-01 0.14759329E+04</pdfrwt>
<totfact> 0.20346697E+01</totfact>
</mgrwt>
</event>
<event>
 6    1  0.1603085E-006  0.6002403E+03  0.7818608E-02  0.9904908E-01
          2   -1    0    0  501    0  0.00000000000E+00  0.00000000000E+00  0.80935703175E+03  0.80935703175E+03  0.00000000000E+00 0. -1.
         -2   -1    0    0    0  501 -0.00000000000E+00 -0.00000000000E+00 -0.11128847284E+03  0.11128847284E+03  0.00000000000E+00 0.  1.
         23    2    1    2    0    0 -0.15344764729E+03 -0.21884159608E+03  0.54620134611E+03  0.61323458260E+03  0.79264860907E+02 0.  0.
         11    1    3    3    0    0 -0.11612633235E+03 -0.98204976034E+02  0.31514702747E+03  0.34992455088E+03  0.00000000000E+00 0.  1.
        -11    1    3    3    0    0 -0.37321314932E+02 -0.12063662005E+03  0.23105431864E+03  0.26331003172E+03  0.00000000000E+00 0. -1.
         22    1    1    2    0    0  0.15344764729E+03  0.21884159608E+03  0.15186721281E+03  0.30741092199E+03  0.00000000000E+00 0.  1.
<mgrwt>
<rscale>  0 0.60024031E+03</rscale>
<asrwt>0</asrwt>
<pdfrwt beam="1">  1        2 0.12451646E+00 0.60024031E+03</pdfrwt>
<pdfrwt beam="2">  1       -2 0.17121304E-01 0.60024031E+03</pdfrwt>
<totfact> 0.95335332E+02</totfact>
</mgrwt>
</event>
<event>
 6    1  0.1603085E-006  0.2596740E+04  0.7818608E-02  0.8369309E-01
          2   -1    0    0  501    0  0.00000000000E+00  0.00000000000E+00  0.10104985394E+04  0.10104985394E+04  0.00000000000E+00 0.  1.
         -2   -1    0    0    0  501 -0.00000000000E+00 -0.00000000000E+00 -0.16682510751E+04  0.16682510751E+04  0.00000000000E+00 0. -1.
         23    2    1    2    0    0 -0.11391257170E+04  0.61829740669E+03 -0.37204002635E+03  0.13515229118E+04  0.91111567209E+02 0.  0.
         13    1    3    3    0    0 -0.93229741283E+03  0.47168933742E+03 -0.31981514261E+03  0.10926806589E+04  0.00000000000E+00 0. -1.
        -13    1    3    3    0    0 -0.20682830417E+03  0.14660806927E+03 -0.52224883747E+02  0.25884225285E+03  0.00000000000E+00 0.  1.
         22    1    1    2    0    0  0.11391257170E+04 -0.61829740669E+03 -0.28571250932E+03  0.13272267026E+04  0.00000000000E+00 0. -1.
<mgrwt>
<rscale>  0 0.25967405E+04</rscale>
<asrwt>0</asrwt>
<pdfrwt beam="1">  1        2 0.15546131E+00 0.25967405E+04</pdfrwt>
<pdfrwt beam="2">  1       -2 0.25665401E+00 0.25967405E+04</pdfrwt>
<totfact> 0.12833559E+00</totfact>
</mgrwt>
</event>
<event>
 6    1  0.1603085E-006  0.1062814E+04  0.7818608E-02  0.9242213E-01
          1   -1    0    0  501    0  0.00000000000E+00  0.00000000000E+00  0.57124362481E+03  0.57124362481E+03  0.00000000000E+00 0. -1.
         -1   -1    0    0    0  501 -0.00000000000E+00 -0.00000000000E+00 -0.49434887700E+03  0.49434887700E+03  0.00000000000E+00 0.  1.
         23    2    1    2    0    0 -0.42958517568E+03 -0.15225517452E+03  0.30313667650E+03  0.55676004252E+03  0.10180785320E+03 0.  0.
         11    1    3    3    0    0 -0.18490662176E+03 -0.14444407163E+02  0.13571035346E+03  0.22981818837E+03  0.00000000000E+00 0.  1.
        -11    1    3    3    0    0 -0.24467855392E+03 -0.13781076736E+03  0.16742632304E+03  0.32694185415E+03  0.00000000000E+00 0. -1.
         22    1    1    2    0    0  0.42958517568E+03  0.15225517452E+03 -0.22624192869E+03  0.50883245929E+03  0.00000000000E+00 0.  1.
<mgrwt>
<rscale>  0 0.10628145E+04</rscale>
<asrwt>0</asrwt>
<pdfrwt beam="1">  1        1 0.87883635E-01 0.10628145E+04</pdfrwt>
<pdfrwt beam="2">  1       -1 0.76053673E-01 0.10628145E+04</pdfrwt>
<totfact> 0.63779025E+01</totfact>
</mgrwt>
</event>
<event>
 6    1  0.1603085E-006  0.1254992E+04  0.7818608E-02  0.9066039E-01
          2   -1    0    0  501    0  0.00000000000E+00  0.00000000000E+00  0.86837521496E+03  0.86837521496E+03  0.00000000000E+00 0. -1.
         -2   -1    0    0    0  501 -0.00000000000E+00 -0.00000000000E+00 -0.45343415022E+03  0.45343415022E+03  0.00000000000E+00 0.  1.
         23    2    1    2    0    0  0.41244453311E+03  0.16505218688E+03 -0.25331279451E+03  0.51936563651E+03  0.90667387975E+02 0.  0.
         13    1    3    3    0    0  0.36687629948E+02  0.41500118329E+02 -0.50019229200E+02  0.74633540062E+02  0.00000000000E+00 0.  1.
        -13    1    3    3    0    0  0.37575690316E+03  0.12355206855E+03 -0.20329356531E+03  0.44473209645E+03  0.00000000000E+00 0. -1.
         22    1    1    2    0    0 -0.41244453311E+03 -0.16505218688E+03  0.66825385924E+03  0.80244372867E+03  0.00000000000E+00 0. -1.
<mgrwt>
<rscale>  0 0.12549916E+04</rscale>
<asrwt>0</asrwt>
<pdfrwt beam="1">  1        2 0.13359619E+00 0.12549916E+04</pdfrwt>
<pdfrwt beam="2">  1       -2 0.69759100E-01 0.12549916E+04</pdfrwt>
<totfact> 0.56773272E+01</totfact>
</mgrwt>
</event>
<event>
 6    1  0.1603085E-006  0.3053553E+04  0.7818608E-02  0.8228602E-01
         -1   -1    0    0    0  501 -0.00000000000E+00  0.00000000000E+00  0.55031322537E+03  0.55031322537E+03  0.00000000000E+00 0.  1.
          1   -1    0    0  501    0  0.00000000000E+00 -0.00000000000E+00 -0.42358537590E+04  0.42358537590E+04  0.00000000000E+00 0. -1.
         23    2    1    2    0    0 -0.84773929249E+03  0.91407002454E+03 -0.32221014538E+04  0.34561437896E+04  0.93841347648E+02 0.  0.
         11    1    3    3    0    0 -0.44945358985E+03  0.48403635011E+03 -0.18361182773E+04  0.19513149531E+04  0.00000000000E+00 0. -1.
        -11    1    3    3    0    0 -0.39828570264E+03  0.43003367442E+03 -0.13859831764E+04  0.15048288366E+04  0.00000000000E+00 0.  1.
         22    1    1    2    0    0  0.84773929249E+03 -0.91407002454E+03 -0.46343907987E+03  0.13300231947E+04  0.00000000000E+00 0.  1.
<mgrwt>
<rscale>  0 0.30535529E+04</rscale>
<asrwt>0</asrwt>
<pdfrwt beam="1">  1        1 0.65166982E+00 0.30535529E+04</pdfrwt>
<pdfrwt beam="2">  1       -1 0.84663571E-01 0.30535529E+04</pdfrwt>
<totfact> 0.68426782E-02</totfact>
</mgrwt>
</event>
<event>
 6    1  0.1603085E-006  0.3318229E+04  0.7818608E-02  0.8158272E-01
         -2   -1    0    0    0  501 -0.00000000000E+00  0.00000000000E+00  0.14239506957E+04  0.14239506957E+04  0.00000000000E+00 0.  1.
          2   -1    0    0  501    0  0.00000000000E+00 -0.00000000000E+00 -0.19331152743E+04  0.19331152743E+04  0.00000000000E+00 0. -1.
         23    2    1    2    0    0  0.12092219738E+04 -0.11165105313E+04 -0.54873741092E+02  0.16496721333E+04  0.97946268700E+02 0.  0.
         13    1    3    3    0    0  0.30728144897E+03 -0.32756767048E+03  0.14438707159E+02  0.44936727060E+03  0.00000000000E+00 0. -1.
        -13    1    3    3    0    0  0.90194052485E+03 -0.78894286084E+03 -0.69312448251E+02  0.12003048627E+04  0.00000000000E+00 0.  1.
         22    1    1    2    0    0 -0.12092219738E+04  0.11165105313E+04 -0.45429083755E+03  0.17073938367E+04  0.00000000000E+00 0. -1.
<mgrwt>
<rscale>  0 0.33182289E+04</rscale>
<asrwt>0</asrwt>
<pdfrwt beam="1">  1        2 0.29740235E+00 0.33182289E+04</pdfrwt>
<pdfrwt beam="2">  1       -2 0.21906934E+00 0.33182289E+04</pdfrwt>
<totfact> 0.60820128E-01</totfact>
</mgrwt>
</event>
<event>
 6    1  0.1603085E-006  0.1776383E+04  0.7818608E-02  0.8718960E-01
         -1   -1    0    0    0  501 -0.00000000000E+00  0.00000000000E+00  0.25056368293E+03  0.25056368293E+03  0.00000000000E+00 0.  1.
          1   -1    0    0  501    0  0.00000000000E+00 -0.00000000000E+00 -0.31484390340E+04  0.31484390340E+04  0.00000000000E+00 0. -1.
         23    2    1    2    0    0 -0.32657269991E+03 -0.59631056710E+03 -0.25396792848E+04  0.26305364245E+04  0.86689042084E+02 0.  0.
         11    1    3    3    0    0 -0.20689844912E+03 -0.43729360283E+03 -0.16913766744E+04  0.17592008748E+04  0.00000000000E+00 0. -1.
        -11    1    3    3    0    0 -0.11967425079E+03 -0.15901696427E+03 -0.84830261041E+03  0.87133554963E+03  0.00000000000E+00 0.  1.
         22    1    1    2    0    0  0.32657269991E+03  0.59631056710E+03 -0.35819606626E+03  0.76846629246E+03  0.00000000000E+00 0.  1.
<mgrwt>
<rscale>  0 0.17763834E+04</rscale>
<asrwt>0</asrwt>
<pdfrwt beam="1">  1        1 0.48437524E+00 0.17763834E+04</pdfrwt>
<pdfrwt beam="2">  1       -1 0.38548258E-01 0.17763834E+04</pdfrwt>
<totfact> 0.28744611E+00</totfact>
</mgrwt>
</event>
<event>
 6    1  0.1603085E-006  0.2503032E+04  0.7818608E-02  0.8401906E-01
         -2   -1    0    0    0  501 -0.00000000000E+00  0.00000000000E+00  0.13128008128E+04  0.13128008128E+04  0.00000000000E+00 0. -1.
          2   -1    0    0  501    0  0.00000000000E+00 -0.00000000000E+00 -0.11930924826E+04  0.11930924826E+04  0.00000000000E+00 0.  1.
         23    2    1    2    0    0 -0.44066021768E+03  0.26987425098E+03 -0.10792995425E+04  0.12002771890E+04  0.93617781894E+02 0.  0.
         11    1    3    3    0    0 -0.20434235394E+03  0.11147621232E+03 -0.38422026191E+03  0.44923040101E+03  0.00000000000E+00 0. -1.
        -11    1    3    3    0    0 -0.23631786374E+03  0.15839803866E+03 -0.69507928060E+03  0.75104678795E+03  0.00000000000E+00 0.  1.
         22    1    1    2    0    0  0.44066021768E+03 -0.26987425098E+03  0.11990078727E+04  0.13056161065E+04  0.00000000000E+00 0. -1.
<mgrwt>
<rscale>  0 0.25030324E+04</rscale>
<asrwt>0</asrwt>
<pdfrwt beam="1">  1        2 0.18355269E+00 0.25030324E+04</pdfrwt>
<pdfrwt beam="2">  1       -2 0.20196936E+00 0.25030324E+04</pdfrwt>
<totfact> 0.22011872E+00</totfact>
</mgrwt>
</event>
<event>
 6    1  0.1603085E-006  0.1933019E+04  0.7818608E-02  0.8638593E-01
         -2   -1    0    0    0  501 -0.00000000000E+00  0.00000000000E+00  0.97192586322E+03  0.97192586322E+03  0.00000000000E+00 0.  1.
          2   -1    0    0  501    0  0.00000000000E+00 -0.00000000000E+00 -0.96112295403E+03  0.96112295403E+03  0.00000000000E+00 0. -1.
         23    2    1    2    0    0  0.29261882524E+03 -0.83567601955E+03 -0.37660920983E+03  0.96657670875E+03  0.91955698271E+02 0.  0.
         13    1    3    3    0    0  0.28593208763E+03 -0.72743340623E+03 -0.33604968257E+03  0.85079134246E+03  0.00000000000E+00 0. -1.
        -13    1    3    3    0    0  0.66867376041E+01 -0.10824261332E+03 -0.40559527258E+02  0.11578536630E+03  0.00000000000E+00 0.  1.
         22    1    1    2    0    0 -0.29261882524E+03  0.83567601955E+03  0.38741211902E+03  0.96647210849E+03  0.00000000000E+00 0.  1.
<mgrwt>
<rscale>  0 0.19330186E+04</rscale>
<asrwt>0</asrwt>
<pdfrwt beam="1">  1        2 0.14786507E+00 0.19330186E+04</pdfrwt>
<pdfrwt beam="2">  1       -2 0.14952706E+00 0.19330186E+04</pdfrwt>
<totfact> 0.75332521E+00</totfact>
</mgrwt>
</event>
<event>
 6    1  0.1603085E-006  0.2731014E+04  0.7818608E-02  0.8325012E-01
         -1   -1    0    0    0  501 -0.00000000000E+00  0.00000000000E+00  0.12669931897E+04  0.12669931897E+04  0.00000000000E+00 0.  1.
          1   -1    0    0  501    0  0.00000000000E+00 -0.00000000000E+00 -0.14716807744E+04  0.14716807744E+04  0.00000000000E+00 0. -1.
         23    2    1    2    0    0 -0.12926868521E+04 -0.33785399415E+03 -0.37698900755E+03  0.13915019635E+04  0.94722666437E+02 0.  0.
         11    1    3    3    0    0 -0.51595261937E+03 -0.17851345638E+03 -0.13345931734E+03  0.56203696403E+03  0.00000000000E+00 0. -1.
        -11    1    3    3    0    0 -0.77673423276E+03 -0.15934053777E+03 -0.24352969021E+03  0.82946499946E+03  0.00000000000E+00 0.  1.
         22    1    1    2    0    0  0.12926868521E+04  0.33785399415E+03  0.17230142287E+03  0.13471720007E+04  0.00000000000E+00 0.  1.
<mgrwt>
<rscale>  0 0.27310141E+04</rscale>
<asrwt>0</asrwt>
<pdfrwt beam="1">  1        1 0.22641243E+00 0.27310141E+04</pdfrwt>
<pdfrwt beam="2">  1       -1 0.19492203E+00 0.27310141E+04</pdfrwt>
<totfact> 0.97300501E-01</totfact>
</mgrwt>
</event>
<event>
 6    1  0.1603085E-006  0.3518052E+04  0.7818608E-02  0.8109525E-01
         -2   -1    0    0    0  501 -0.00000000000E+00  0.00000000000E+00  0.96420211758E+03  0.96420211758E+03  0.00000000000E+00 0.  1.
          2   -1    0    0  501    0  0.00000000000E+00 -0.00000000000E+00 -0.32090493017E+04  0.32090493017E+04  0.00000000000E+00 0. -1.
         23    2    1    2    0    0  0.62252167716E+03 -0.10394990706E+03 -0.30692377828E+04  0.31350035293E+04  0.98426315553E+02 0.  0.
         11    1    3    3    0    0  0.25292018288E+03 -0.89171577852E+01 -0.10547327558E+04  0.10846701437E+04  0.00000000000E+00 0.  1.
        -11    1    3    3    0    0  0.36960149428E+03 -0.95032749279E+02 -0.20145050270E+04  0.20503333856E+04  0.00000000000E+00 0. -1.
         22    1    1    2    0    0 -0.62252167716E+03  0.10394990706E+03  0.82439059872E+03  0.10382478899E+04  0.00000000000E+00 0.  1.
<mgrwt>
<rscale>  0 0.35180518E+04</rscale>
<asrwt>0</asrwt>
<pdfrwt beam="1">  1        2 0.49369989E+00 0.35180518E+04</pdfrwt>
<pdfrwt beam="2">  1       -2 0.14833879E+00 0.35180518E+04</pdfrwt>
<totfact> 0.32355312E-01</totfact>
</mgrwt>
</event>
<event>
 6    1  0.1603085E-006  0.2002087E+04  0.7818608E-02  0.8605645E-01
          2   -1    0    0  501    0  0.00000000000E+00  0.00000000000E+00  0.11683802681E+04  0.11683802681E+04  0.00000000000E+00 0. -1.
         -2   -1    0    0    0  501 -0.00000000000E+00 -0.00000000000E+00 -0.85767300952E+03  0.85767300952E+03  0.00000000000E+00 0.  1.
         23    2    1    2    0    0  0.76803341059E+03 -0.26491028274E+02  0.80160316792E+03  0.11141564149E+04  0.90552656668E+02 0.  0.
         11    1    3    3    0    0  0.42761336550E+03 -0.47860690495E+02  0.40300626114E+03  0.58954039943E+03  0.00000000000E+00 0. -1.
        -11    1    3    3    0    0  0.34042004509E+03  0.21369662220E+02  0.39859690678E+03  0.52461601544E+03  0.00000000000E+00 0.  1.
         22    1    1    2    0    0 -0.76803341059E+03  0.26491028274E+02 -0.49089590939E+03  0.91189686270E+03  0.00000000000E+00 0.  1.
<mgrwt>
<rscale>  0 0.20020871E+04</rscale>
<asrwt>0</asrwt>
<pdfrwt beam="1">  1        2 0.17975081E+00 0.20020871E+04</pdfrwt>
<pdfrwt beam="2">  1       -2 0.13194969E+00 0.20020871E+04</pdfrwt>
<totfact> 0.76879508E+00</totfact>
</mgrwt>
</event>
<event>
 6    1  0.1603085E-006  0.2252620E+04  0.7818608E-02  0.8496840E-01
         -2   -1    0    0    0  501 -0.00000000000E+00  0.00000000000E+00  0.20795091204E+04  0.20795091204E+04  0.00000000000E+00 0.  1.
          2   -1    0    0  501    0  0.00000000000E+00 -0.00000000000E+00 -0.61003519904E+03  0.61003519904E+03  0.00000000000E+00 0. -1.
         23    2    1    2    0    0  0.69263797345E+03  0.60121779558E+03 -0.40614284330E+02  0.92274591867E+03  0.92737858249E+02 0.  0.
         11    1    3    3    0    0  0.27604642281E+03  0.22017211338E+03  0.27048278544E+02  0.35413132653E+03  0.00000000000E+00 0.  1.
        -11    1    3    3    0    0  0.41659155064E+03  0.38104568219E+03 -0.67662562873E+02  0.56861459214E+03  0.00000000000E+00 0. -1.
         22    1    1    2    0    0 -0.69263797345E+03 -0.60121779558E+03  0.15100882057E+04  0.17667984008E+04  0.00000000000E+00 0.  1.
<mgrwt>
<rscale>  0 0.22526196E+04</rscale>
<asrwt>0</asrwt>
<pdfrwt beam="1">  1        2 0.93851570E-01 0.22526196E+04</pdfrwt>
<pdfrwt beam="2">  1       -2 0.31992448E+00 0.22526196E+04</pdfrwt>
<totfact> 0.10612233E+00</totfact>
</mgrwt>
</event>
<event>
 6    1  0.1603085E-006  0.3934023E+04  0.7818608E-02  0.8017990E-01
         -2   -1    0    0    0  501 -0.00000000000E+00  0.00000000000E+00  0.97165347721E+03  0.97165347721E+03  0.00000000000E+00 0.  1.
          2   -1    0    0  501    0  0.00000000000E+00 -0.00000000000E+00 -0.39820102788E+04  0.39820102788E+04  0.00000000000E+00 0. -1.
         23    2    1    2    0    0 -0.76567084937E+03 -0.15298723598E+04 -0.27256093498E+04  0.32193505207E+04  0.92250531813E+02 0.  0.
         13    1    3    3    0    0 -0.31097840340E+03 -0.59021116448E+03 -0.11438921454E+04  0.13242152492E+04  0.00000000000E+00 0.  1.
        -13    1    3    3    0    0 -0.45469244597E+03 -0.93966119529E+03 -0.15817172044E+04  0.18951352715E+04  0.00000000000E+00 0. -1.
         22    1    1    2    0    0  0.76567084937E+03  0.15298723598E+04 -0.28474745173E+03  0.17343132353E+04  0.00000000000E+00 0.  1.
<mgrwt>
<rscale>  0 0.39340229E+04</rscale>
<asrwt>0</asrwt>
<pdfrwt beam="1">  1        2 0.61261698E+00 0.39340229E+04</pdfrwt>
<pdfrwt beam="2">  1       -2 0.14948515E+00 0.39340229E+04</pdfrwt>
<totfact> 0.84535255E-02</totfact>
</mgrwt>
</event>
<event>
 6    1  0.1603085E-006  0.3656135E+04  0.7818608E-02  0.8077753E-01
         -2   -1    0    0    0  501 -0.00000000000E+00  0.00000000000E+00  0.26363229476E+04  0.26363229476E+04  0.00000000000E+00 0.  1.
          2   -1    0    0  501    0  0.00000000000E+00 -0.00000000000E+00 -0.12676108097E+04  0.12676108097E+04  0.00000000000E+00 0. -1.
         23    2    1    2    0    0  0.10450050066E+04 -0.35640360363E+03 -0.86942076418E+03  0.14082779557E+04  0.91078773313E+02 0.  0.
         13    1    3    3    0    0  0.77708902200E+03 -0.30354955837E+03 -0.67320823309E+03  0.10720163280E+04  0.00000000000E+00 0.  1.
        -13    1    3    3    0    0  0.26791598460E+03 -0.52854045258E+02 -0.19621253109E+03  0.33626162770E+03  0.00000000000E+00 0. -1.
         22    1    1    2    0    0 -0.10450050066E+04  0.35640360363E+03  0.22381329021E+04  0.24956558016E+04  0.00000000000E+00 0.  1.
<mgrwt>
<rscale>  0 0.36561354E+04</rscale>
<asrwt>0</asrwt>
<pdfrwt beam="1">  1        2 0.19501705E+00 0.36561354E+04</pdfrwt>
<pdfrwt beam="2">  1       -2 0.40558815E+00 0.36561354E+04</pdfrwt>
<totfact> 0.95510336E-02</totfact>
</mgrwt>
</event>
<event>
 6    1  0.1603085E-006  0.4385119E+04  0.7818608E-02  0.7931064E-01
          4   -1    0    0  501    0  0.00000000000E+00  0.00000000000E+00  0.31929984466E+04  0.31929984466E+04  0.00000000000E+00 0. -1.
         -4   -1    0    0    0  501 -0.00000000000E+00 -0.00000000000E+00 -0.15055808943E+04  0.15055808943E+04  0.00000000000E+00 0.  1.
         23    2    1    2    0    0  0.16465653861E+04  0.76294540749E+03  0.21608050758E+04  0.28231169944E+04  0.87451260663E+02 0.  0.
         13    1    3    3    0    0  0.11530654625E+04  0.52536331442E+03  0.15688345450E+04  0.20166329370E+04  0.00000000000E+00 0. -1.
        -13    1    3    3    0    0  0.49349992360E+03  0.23758209307E+03  0.59197053081E+03  0.80648405743E+03  0.00000000000E+00 0.  1.
         22    1    1    2    0    0 -0.16465653861E+04 -0.76294540749E+03 -0.47338752356E+03  0.18754623465E+04  0.00000000000E+00 0.  1.
<mgrwt>
<rscale>  0 0.43851191E+04</rscale>
<asrwt>0</asrwt>
<pdfrwt beam="1">  1        4 0.49123053E+00 0.43851191E+04</pdfrwt>
<pdfrwt beam="2">  1       -4 0.23162783E+00 0.43851191E+04</pdfrwt>
<totfact> 0.17364618E-04</totfact>
</mgrwt>
</event>
<event>
 6    1  0.1603085E-006  0.4779099E+04  0.7818608E-02  0.7863517E-01
          2   -1    0    0  501    0  0.00000000000E+00  0.00000000000E+00  0.23976357149E+04  0.23976357149E+04  0.00000000000E+00 0.  1.
         -2   -1    0    0    0  501 -0.00000000000E+00 -0.00000000000E+00 -0.23814907144E+04  0.23814907144E+04  0.00000000000E+00 0. -1.
         23    2    1    2    0    0  0.14958616011E+04  0.85539346309E+03  0.16623039886E+04  0.23960319452E+04  0.91731268019E+02 0.  0.
         11    1    3    3    0    0  0.85143729946E+03  0.47783034410E+03  0.87935763834E+03  0.13139776135E+04  0.00000000000E+00 0. -1.
        -11    1    3    3    0    0  0.64442430161E+03  0.37756311899E+03  0.78294635026E+03  0.10820543317E+04  0.00000000000E+00 0.  1.
         22    1    1    2    0    0 -0.14958616011E+04 -0.85539346309E+03 -0.16461589881E+04  0.23830944841E+04  0.00000000000E+00 0. -1.
<mgrwt>
<rscale>  0 0.47790992E+04</rscale>
<asrwt>0</asrwt>
<pdfrwt beam="1">  1        2 0.36886703E+00 0.47790992E+04</pdfrwt>
<pdfrwt beam="2">  1       -2 0.36638319E+00 0.47790992E+04</pdfrwt>
<totfact> 0.36184570E-02</totfact>
</mgrwt>
</event>
<event>
 6    1  0.1603085E-006  0.1862912E+04  0.7818608E-02  0.8673541E-01
          2   -1    0    0  501    0  0.00000000000E+00  0.00000000000E+00  0.27687079020E+04  0.27687079020E+04  0.00000000000E+00 0. -1.
         -2   -1    0    0    0  501 -0.00000000000E+00 -0.00000000000E+00 -0.31336284711E+03  0.31336284711E+03  0.00000000000E+00 0.  1.
         23    2    1    2    0    0  0.86880365192E+03 -0.32581506349E+03  0.13079340392E+04  0.16064260493E+04  0.94540783634E+02 0.  0.
         11    1    3    3    0    0  0.45468460012E+03 -0.14796654038E+03  0.60033666991E+03  0.76748700308E+03  0.00000000000E+00 0.  1.
        -11    1    3    3    0    0  0.41411905180E+03 -0.17784852311E+03  0.70759736933E+03  0.83893904624E+03  0.00000000000E+00 0. -1.
         22    1    1    2    0    0 -0.86880365192E+03  0.32581506349E+03  0.11474110157E+04  0.14756446998E+04  0.00000000000E+00 0.  1.
<mgrwt>
<rscale>  0 0.18629119E+04</rscale>
<asrwt>0</asrwt>
<pdfrwt beam="1">  1        2 0.42595505E+00 0.18629119E+04</pdfrwt>
<pdfrwt beam="2">  1       -2 0.48209670E-01 0.18629119E+04</pdfrwt>
<totfact> 0.92661953E+00</totfact>
</mgrwt>
</event>
<event>
 6    1  0.1603085E-006  0.2224009E+04  0.7818608E-02  0.8508501E-01
          2   -1    0    0  501    0  0.00000000000E+00  0.00000000000E+00  0.81455608259E+03  0.81455608259E+03  0.00000000000E+00 0. -1.
         -2   -1    0    0    0  501 -0.00000000000E+00 -0.00000000000E+00 -0.15180707189E+04  0.15180707189E+04  0.00000000000E+00 0.  1.
         23    2    1    2    0    0 -0.21134176886E+03  0.75481391760E+03  0.47206385610E+03  0.91968866227E+03  0.92593508433E+02 0.  0.
         13    1    3    3    0    0 -0.18277036550E+02  0.21891502242E+03  0.13083576617E+03  0.25568698601E+03  0.00000000000E+00 0. -1.
        -13    1    3    3    0    0 -0.19306473231E+03  0.53589889518E+03  0.34122808993E+03  0.66400167626E+03  0.00000000000E+00 0.  1.
         22    1    1    2    0    0  0.21134176886E+03 -0.75481391760E+03 -0.11755784924E+04  0.14129381392E+04  0.00000000000E+00 0.  1.
<mgrwt>
<rscale>  0 0.22240088E+04</rscale>
<asrwt>0</asrwt>
<pdfrwt beam="1">  1        2 0.12531632E+00 0.22240088E+04</pdfrwt>
<pdfrwt beam="2">  1       -2 0.23354934E+00 0.22240088E+04</pdfrwt>
<totfact> 0.24912176E+00</totfact>
</mgrwt>
</event>
<event>
 6    1  0.1603085E-006  0.1890228E+04  0.7818608E-02  0.8659736E-01
         -1   -1    0    0    0  501 -0.00000000000E+00  0.00000000000E+00  0.99928786717E+03  0.99928786717E+03  0.00000000000E+00 0.  1.
          1   -1    0    0  501    0  0.00000000000E+00 -0.00000000000E+00 -0.89387695167E+03  0.89387695167E+03  0.00000000000E+00 0. -1.
         23    2    1    2    0    0  0.96457694394E+02 -0.71867645811E+03 -0.54855341629E+03  0.91670730030E+03  0.11679677075E+03 0.  0.
         11    1    3    3    0    0  0.27188512688E+02 -0.16252222824E+03 -0.18941925438E+03  0.25106243013E+03  0.00000000000E+00 0. -1.
        -11    1    3    3    0    0  0.69269181706E+02 -0.55615422986E+03 -0.35913416192E+03  0.66564487017E+03  0.00000000000E+00 0.  1.
         22    1    1    2    0    0 -0.96457694394E+02  0.71867645811E+03  0.65396433179E+03  0.97645751854E+03  0.00000000000E+00 0.  1.
<mgrwt>
<rscale>  0 0.18902279E+04</rscale>
<asrwt>0</asrwt>
<pdfrwt beam="1">  1        1 0.13751953E+00 0.18902279E+04</pdfrwt>
<pdfrwt beam="2">  1       -1 0.15373659E+00 0.18902279E+04</pdfrwt>
<totfact> 0.56260522E+00</totfact>
</mgrwt>
</event>
<event>
 6    1  0.1603085E-006  0.1796780E+04  0.7818608E-02  0.8708014E-01
          2   -1    0    0  501    0  0.00000000000E+00  0.00000000000E+00  0.73347789499E+03  0.73347789499E+03  0.00000000000E+00 0. -1.
         -2   -1    0    0    0  501 -0.00000000000E+00 -0.00000000000E+00 -0.11003798930E+04  0.11003798930E+04  0.00000000000E+00 0.  1.
         23    2    1    2    0    0  0.20767782164E+02  0.86889815901E+03  0.38469449040E+02  0.87482633824E+03  0.91792766923E+02 0.  0.
         13    1    3    3    0    0  0.54881184950E+02  0.47626684577E+03  0.71253062387E+01  0.47947139939E+03  0.00000000000E+00 0.  1.
        -13    1    3    3    0    0 -0.34113402787E+02  0.39263131324E+03  0.31344142801E+02  0.39535493886E+03  0.00000000000E+00 0. -1.
         22    1    1    2    0    0 -0.20767782164E+02 -0.86889815901E+03 -0.40537144703E+03  0.95903144973E+03  0.00000000000E+00 0.  1.
<mgrwt>
<rscale>  0 0.17967797E+04</rscale>
<asrwt>0</asrwt>
<pdfrwt beam="1">  1        2 0.11284275E+00 0.17967797E+04</pdfrwt>
<pdfrwt beam="2">  1       -2 0.16928921E+00 0.17967797E+04</pdfrwt>
<totfact> 0.78544469E+00</totfact>
</mgrwt>
</event>
<event>
 6    1  0.1603085E-006  0.4057191E+04  0.7818608E-02  0.7993108E-01
         -2   -1    0    0    0  501 -0.00000000000E+00  0.00000000000E+00  0.21088719756E+04  0.21088719756E+04  0.00000000000E+00 0.  1.
          2   -1    0    0  501    0  0.00000000000E+00 -0.00000000000E+00 -0.19513751264E+04  0.19513751264E+04  0.00000000000E+00 0. -1.
         23    2    1    2    0    0 -0.18931941610E+04 -0.27121204296E+03  0.75216568973E+03  0.20574063361E+04  0.97095330961E+02 0.  0.
         13    1    3    3    0    0 -0.15429996018E+04 -0.25465847368E+03  0.59563327086E+03  0.16734627879E+04  0.00000000000E+00 0.  1.
        -13    1    3    3    0    0 -0.35019455924E+03 -0.16553569284E+02  0.15653241887E+03  0.38394354811E+03  0.00000000000E+00 0. -1.
         22    1    1    2    0    0  0.18931941610E+04  0.27121204296E+03 -0.59466884054E+03  0.20028407659E+04  0.00000000000E+00 0. -1.
<mgrwt>
<rscale>  0 0.40571913E+04</rscale>
<asrwt>0</asrwt>
<pdfrwt beam="1">  1        2 0.30021156E+00 0.40571913E+04</pdfrwt>
<pdfrwt beam="2">  1       -2 0.32444184E+00 0.40571913E+04</pdfrwt>
<totfact> 0.12548273E-01</totfact>
</mgrwt>
</event>
<event>
 6    1  0.1603085E-006  0.5684620E+03  0.7818608E-02  0.9973088E-01
          1   -1    0    0  501    0  0.00000000000E+00  0.00000000000E+00  0.41157895110E+03  0.41157895110E+03  0.00000000000E+00 0. -1.
         -1   -1    0    0    0  501 -0.00000000000E+00 -0.00000000000E+00 -0.19628619805E+03  0.19628619805E+03  0.00000000000E+00 0.  1.
         23    2    1    2    0    0 -0.85113273546E+02  0.17546882754E+03 -0.94461083632E+02  0.24183097300E+03  0.10735801977E+03 0.  0.
         11    1    3    3    0    0 -0.53604258178E+02  0.10262192946E+03  0.34017123162E+01  0.11582853080E+03  0.00000000000E+00 0. -1.
        -11    1    3    3    0    0 -0.31509015368E+02  0.72846898079E+02 -0.97862795948E+02  0.12600244220E+03  0.00000000000E+00 0.  1.
         22    1    1    2    0    0  0.85113273546E+02 -0.17546882754E+03  0.30975383669E+03  0.36603417615E+03  0.00000000000E+00 0. -1.
<mgrwt>
<rscale>  0 0.56846202E+03</rscale>
<asrwt>0</asrwt>
<pdfrwt beam="1">  1        1 0.63319838E-01 0.56846202E+03</pdfrwt>
<pdfrwt beam="2">  1       -1 0.30197877E-01 0.56846202E+03</pdfrwt>
<totfact> 0.58793263E+02</totfact>
</mgrwt>
</event>
<event>
 6    1  0.1603085E-006  0.2610352E+04  0.7818608E-02  0.8364693E-01
         -1   -1    0    0    0  501 -0.00000000000E+00  0.00000000000E+00  0.87727375492E+03  0.87727375492E+03  0.00000000000E+00 0.  1.
          1   -1    0    0  501    0  0.00000000000E+00 -0.00000000000E+00 -0.19417938561E+04  0.19417938561E+04  0.00000000000E+00 0. -1.
         23    2    1    2    0    0 -0.39235382542E+03  0.10696046679E+04 -0.12171443788E+04  0.16695938879E+04  0.90042444382E+02 0.  0.
         11    1    3    3    0    0 -0.25711434263E+03  0.79093156087E+03 -0.84914005864E+03  0.11885787136E+04  0.00000000000E+00 0.  1.
        -11    1    3    3    0    0 -0.13523948278E+03  0.27867310701E+03 -0.36800432020E+03  0.48101517436E+03  0.00000000000E+00 0. -1.
         22    1    1    2    0    0  0.39235382542E+03 -0.10696046679E+04  0.15262427768E+03  0.11494737231E+04  0.00000000000E+00 0.  1.
<mgrwt>
<rscale>  0 0.26103523E+04</rscale>
<asrwt>0</asrwt>
<pdfrwt beam="1">  1        1 0.29873751E+00 0.26103523E+04</pdfrwt>
<pdfrwt beam="2">  1       -1 0.13496519E+00 0.26103523E+04</pdfrwt>
<totfact> 0.13236732E+00</totfact>
</mgrwt>
</event>
<event>
 6    1  0.1603085E-006  0.3868212E+04  0.7818608E-02  0.8031673E-01
         -1   -1    0    0    0  501 -0.00000000000E+00  0.00000000000E+00  0.18983296244E+04  0.18983296244E+04  0.00000000000E+00 0.  1.
          1   -1    0    0  501    0  0.00000000000E+00 -0.00000000000E+00 -0.19705567547E+04  0.19705567547E+04  0.00000000000E+00 0. -1.
         23    2    1    2    0    0 -0.15579020904E+04  0.31992992037E+03  0.10627585111E+04  0.19150167613E+04  0.91757647131E+02 0.  0.
         11    1    3    3    0    0 -0.18656875988E+03  0.67706253077E+02  0.14371270346E+03  0.24504158831E+03  0.00000000000E+00 0. -1.
        -11    1    3    3    0    0 -0.13713333305E+04  0.25222366729E+03  0.91904580762E+03  0.16699751730E+04  0.00000000000E+00 0.  1.
         22    1    1    2    0    0  0.15579020904E+04 -0.31992992037E+03 -0.11349856414E+04  0.19538696178E+04  0.00000000000E+00 0. -1.
<mgrwt>
<rscale>  0 0.38682121E+04</rscale>
<asrwt>0</asrwt>
<pdfrwt beam="1">  1        1 0.30316258E+00 0.38682121E+04</pdfrwt>
<pdfrwt beam="2">  1       -1 0.29205071E+00 0.38682121E+04</pdfrwt>
<totfact> 0.91798314E-02</totfact>
</mgrwt>
</event>
<event>
 6    1  0.1603085E-006  0.1510487E+04  0.7818608E-02  0.8877509E-01
         -2   -1    0    0    0  501 -0.00000000000E+00  0.00000000000E+00  0.97883859571E+03  0.97883859571E+03  0.00000000000E+00 0.  1.
          2   -1    0    0  501    0  0.00000000000E+00 -0.00000000000E+00 -0.58272437738E+03  0.58272437738E+03  0.00000000000E+00 0. -1.
         23    2    1    2    0    0  0.33432563905E+03  0.28919973919E+03 -0.42950054168E+03  0.62505357430E+03  0.10397660012E+03 0.  0.
         11    1    3    3    0    0  0.17829641856E+03  0.10287930435E+03 -0.24457031308E+03  0.31966920743E+03  0.00000000000E+00 0. -1.
        -11    1    3    3    0    0  0.15602922049E+03  0.18632043483E+03 -0.18493022860E+03  0.30538436688E+03  0.00000000000E+00 0.  1.
         22    1    1    2    0    0 -0.33432563905E+03 -0.28919973919E+03  0.82561476001E+03  0.93650939879E+03  0.00000000000E+00 0.  1.
<mgrwt>
<rscale>  0 0.15104875E+04</rscale>
<asrwt>0</asrwt>
<pdfrwt beam="1">  1        2 0.89649905E-01 0.15104875E+04</pdfrwt>
<pdfrwt beam="2">  1       -2 0.15059055E+00 0.15104875E+04</pdfrwt>
<totfact> 0.14696069E+01</totfact>
</mgrwt>
</event>
<event>
 6    1  0.1603085E-006  0.4637309E+04  0.7818608E-02  0.7887029E-01
         -2   -1    0    0    0  501 -0.00000000000E+00  0.00000000000E+00  0.20946403238E+04  0.20946403238E+04  0.00000000000E+00 0.  1.
          2   -1    0    0  501    0  0.00000000000E+00 -0.00000000000E+00 -0.25666264166E+04  0.25666264166E+04  0.00000000000E+00 0. -1.
         23    2    1    2    0    0 -0.16121137338E+04 -0.16189775387E+04  0.15422438846E+03  0.22922714832E+04  0.10355882023E+03 0.  0.
         13    1    3    3    0    0 -0.75669241622E+03 -0.83188585741E+03  0.65741788980E+02  0.11264721370E+04  0.00000000000E+00 0.  1.
        -13    1    3    3    0    0 -0.85542131757E+03 -0.78709168130E+03  0.88482599478E+02  0.11657993463E+04  0.00000000000E+00 0. -1.
         22    1    1    2    0    0  0.16121137338E+04  0.16189775387E+04 -0.62621048128E+03  0.23689952571E+04  0.00000000000E+00 0. -1.
<mgrwt>
<rscale>  0 0.46373092E+04</rscale>
<asrwt>0</asrwt>
<pdfrwt beam="1">  1        2 0.39486560E+00 0.46373092E+04</pdfrwt>
<pdfrwt beam="2">  1       -2 0.32225236E+00 0.46373092E+04</pdfrwt>
<totfact> 0.55316327E-02</totfact>
</mgrwt>
</event>
<event>
 6    1  0.1603085E-006  0.1813957E+04  0.7818608E-02  0.8698913E-01
          2   -1    0    0  501    0  0.00000000000E+00  0.00000000000E+00  0.46021037446E+03  0.46021037446E+03  0.00000000000E+00 0. -1.
         -2   -1    0    0    0  501 -0.00000000000E+00 -0.00000000000E+00 -0.17874642251E+04  0.17874642251E+04  0.00000000000E+00 0.  1.
         23    2    1    2    0    0 -0.33002468473E+03 -0.55744352508E+03 -0.14476976573E+04  0.15887616412E+04  0.93142199862E+02 0.  0.
         11    1    3    3    0    0 -0.16258517244E+03 -0.36089721792E+03 -0.90461432273E+03  0.98742483921E+03  0.00000000000E+00 0. -1.
        -11    1    3    3    0    0 -0.16743951229E+03 -0.19654630716E+03 -0.54308333455E+03  0.60133680197E+03  0.00000000000E+00 0.  1.
         22    1    1    2    0    0  0.33002468473E+03  0.55744352508E+03  0.12044380664E+03  0.65891295839E+03  0.00000000000E+00 0. -1.
<mgrwt>
<rscale>  0 0.18139565E+04</rscale>
<asrwt>0</asrwt>
<pdfrwt beam="1">  1        2 0.70801597E-01 0.18139565E+04</pdfrwt>
<pdfrwt beam="2">  1       -2 0.27499449E+00 0.18139565E+04</pdfrwt>
<totfact> 0.28898643E+00</totfact>
</mgrwt>
</event>
<event>
 6    1  0.1603085E-006  0.8753331E+03  0.7818608E-02  0.9456953E-01
          2   -1    0    0  501    0  0.00000000000E+00  0.00000000000E+00  0.12788386852E+04  0.12788386852E+04  0.00000000000E+00 0. -1.
         -2   -1    0    0    0  501 -0.00000000000E+00 -0.00000000000E+00 -0.14978591166E+03  0.14978591166E+03  0.00000000000E+00 0.  1.
         23    2    1    2    0    0  0.10776908223E+03 -0.91635968324E+02  0.12383990264E+04  0.12498288228E+04  0.91807472136E+02 0.  0.
         11    1    3    3    0    0  0.49434965464E+02 -0.58926635250E+02  0.32471698331E+03  0.33370238747E+03  0.00000000000E+00 0.  1.
        -11    1    3    3    0    0  0.58334116765E+02 -0.32709333074E+02  0.91368204312E+03  0.91612643536E+03  0.00000000000E+00 0. -1.
         22    1    1    2    0    0 -0.10776908223E+03  0.91635968324E+02 -0.10934625292E+03  0.17879577401E+03  0.00000000000E+00 0.  1.
<mgrwt>
<rscale>  0 0.87533312E+03</rscale>
<asrwt>0</asrwt>
<pdfrwt beam="1">  1        2 0.19674441E+00 0.87533312E+03</pdfrwt>
<pdfrwt beam="2">  1       -2 0.23043987E-01 0.87533312E+03</pdfrwt>
<totfact> 0.28331385E+02</totfact>
</mgrwt>
</event>
<event>
 6    1  0.1603085E-006  0.2960673E+04  0.7818608E-02  0.8255051E-01
          1   -1    0    0  501    0  0.00000000000E+00  0.00000000000E+00  0.13610409648E+04  0.13610409648E+04  0.00000000000E+00 0. -1.
         -1   -1    0    0    0  501 -0.00000000000E+00 -0.00000000000E+00 -0.16100886244E+04  0.16100886244E+04  0.00000000000E+00 0.  1.
         23    2    1    2    0    0 -0.31240281595E+03 -0.14068824829E+04  0.20865675449E+03  0.14590425643E+04  0.91398705167E+02 0.  0.
         13    1    3    3    0    0 -0.15825105123E+03 -0.80539403236E+03  0.15971720209E+03  0.83618928911E+03  0.00000000000E+00 0. -1.
        -13    1    3    3    0    0 -0.15415176472E+03 -0.60148845053E+03  0.48939552406E+02  0.62285327524E+03  0.00000000000E+00 0.  1.
         22    1    1    2    0    0  0.31240281595E+03  0.14068824829E+04 -0.45770441415E+03  0.15120870249E+04  0.00000000000E+00 0.  1.
<mgrwt>
<rscale>  0 0.29606733E+04</rscale>
<asrwt>0</asrwt>
<pdfrwt beam="1">  1        1 0.20939092E+00 0.29606733E+04</pdfrwt>
<pdfrwt beam="2">  1       -1 0.24770594E+00 0.29606733E+04</pdfrwt>
<totfact> 0.50439959E-01</totfact>
</mgrwt>
</event>
<event>
 6    1  0.1603085E-006  0.3256185E+04  0.7818608E-02  0.8174135E-01
          2   -1    0    0  501    0  0.00000000000E+00  0.00000000000E+00  0.19953961582E+04  0.19953961582E+04  0.00000000000E+00 0. -1.
         -2   -1    0    0    0  501 -0.00000000000E+00 -0.00000000000E+00 -0.13284002955E+04  0.13284002955E+04  0.00000000000E+00 0.  1.
         23    2    1    2    0    0 -0.76015363570E+03  0.50354477813E+03  0.17090623717E+04  0.19391327751E+04  0.89167457479E+02 0.  0.
         13    1    3    3    0    0 -0.54860188860E+03  0.39617524828E+03  0.13226237609E+04  0.14856824938E+04  0.00000000000E+00 0. -1.
        -13    1    3    3    0    0 -0.21155174710E+03  0.10736952985E+03  0.38643861087E+03  0.45345028130E+03  0.00000000000E+00 0.  1.
         22    1    1    2    0    0  0.76015363570E+03 -0.50354477813E+03 -0.10420665090E+04  0.13846636786E+04  0.00000000000E+00 0.  1.
<mgrwt>
<rscale>  0 0.32561848E+04</rscale>
<asrwt>0</asrwt>
<pdfrwt beam="1">  1        2 0.30698403E+00 0.32561848E+04</pdfrwt>
<pdfrwt beam="2">  1       -2 0.20436928E+00 0.32561848E+04</pdfrwt>
<totfact> 0.70156767E-01</totfact>
</mgrwt>
</event>
<event>
 6    1  0.1603085E-006  0.3161772E+04  0.7818608E-02  0.8198987E-01
         -1   -1    0    0    0  501 -0.00000000000E+00  0.00000000000E+00  0.12685866742E+04  0.12685866742E+04  0.00000000000E+00 0.  1.
          1   -1    0    0  501    0  0.00000000000E+00 -0.00000000000E+00 -0.19700670716E+04  0.19700670716E+04  0.00000000000E+00 0. -1.
         23    2    1    2    0    0  0.28556501452E+03 -0.79275537730E+03  0.10176599027E+04  0.13241167686E+04  0.87436111049E+02 0.  0.
         11    1    3    3    0    0  0.19344646433E+03 -0.64093223741E+03  0.81125132982E+03  0.10518290677E+04  0.00000000000E+00 0. -1.
        -11    1    3    3    0    0  0.92118550186E+02 -0.15182313989E+03  0.20640857286E+03  0.27228770087E+03  0.00000000000E+00 0.  1.
         22    1    1    2    0    0 -0.28556501452E+03  0.79275537730E+03 -0.17191403001E+04  0.19145369773E+04  0.00000000000E+00 0. -1.
<mgrwt>
<rscale>  0 0.31617722E+04</rscale>
<asrwt>0</asrwt>
<pdfrwt beam="1">  1        1 0.30308724E+00 0.31617722E+04</pdfrwt>
<pdfrwt beam="2">  1       -1 0.19516718E+00 0.31617722E+04</pdfrwt>
<totfact> 0.42616979E-01</totfact>
</mgrwt>
</event>
<event>
 6    1  0.1603085E-006  0.1729232E+04  0.7818608E-02  0.8744865E-01
          2   -1    0    0  501    0  0.00000000000E+00  0.00000000000E+00  0.16647556566E+04  0.16647556566E+04  0.00000000000E+00 0. -1.
         -2   -1    0    0    0  501 -0.00000000000E+00 -0.00000000000E+00 -0.44905158763E+03  0.44905158763E+03  0.00000000000E+00 0.  1.
         23    2    1    2    0    0  0.58185051385E+03 -0.24145068840E+03  0.13292078356E+04  0.14737044709E+04  0.90349000660E+02 0.  0.
         11    1    3    3    0    0  0.32169216406E+03 -0.99440986260E+02  0.63169372988E+03  0.71582911825E+03  0.00000000000E+00 0.  1.
        -11    1    3    3    0    0  0.26015834979E+03 -0.14200970214E+03  0.69751410575E+03  0.75787535268E+03  0.00000000000E+00 0. -1.
         22    1    1    2    0    0 -0.58185051385E+03  0.24145068840E+03 -0.11350376664E+03  0.64010277334E+03  0.00000000000E+00 0.  1.
<mgrwt>
<rscale>  0 0.17292324E+04</rscale>
<asrwt>0</asrwt>
<pdfrwt beam="1">  1        2 0.25611625E+00 0.17292324E+04</pdfrwt>
<pdfrwt beam="2">  1       -2 0.69084860E-01 0.17292324E+04</pdfrwt>
<totfact> 0.18633764E+01</totfact>
</mgrwt>
</event>
<event>
 6    1  0.1603085E-006  0.2085657E+04  0.7818608E-02  0.8567588E-01
         -1   -1    0    0    0  501 -0.00000000000E+00  0.00000000000E+00  0.10775078320E+04  0.10775078320E+04  0.00000000000E+00 0.  1.
          1   -1    0    0  501    0  0.00000000000E+00 -0.00000000000E+00 -0.10092655592E+04  0.10092655592E+04  0.00000000000E+00 0. -1.
         23    2    1    2    0    0 -0.49467829647E+03  0.88243533461E+03  0.27906774535E+03  0.10534069912E+04  0.91590097322E+02 0.  0.
         13    1    3    3    0    0 -0.18557615377E+03  0.41302826074E+03  0.10216722906E+03  0.46418638036E+03  0.00000000000E+00 0. -1.
        -13    1    3    3    0    0 -0.30910214269E+03  0.46940707387E+03  0.17690051629E+03  0.58922061088E+03  0.00000000000E+00 0.  1.
         22    1    1    2    0    0  0.49467829647E+03 -0.88243533461E+03 -0.21082547254E+03  0.10333664000E+04  0.00000000000E+00 0. -1.
<mgrwt>
<rscale>  0 0.20856573E+04</rscale>
<asrwt>0</asrwt>
<pdfrwt beam="1">  1        1 0.15527162E+00 0.20856573E+04</pdfrwt>
<pdfrwt beam="2">  1       -1 0.16577044E+00 0.20856573E+04</pdfrwt>
<totfact> 0.36239936E+00</totfact>
</mgrwt>
</event>
<event>
 6    1  0.1603085E-006  0.1736635E+04  0.7818608E-02  0.8740742E-01
         -2   -1    0    0    0  501 -0.00000000000E+00  0.00000000000E+00  0.18148384548E+04  0.18148384548E+04  0.00000000000E+00 0.  1.
          2   -1    0    0  501    0  0.00000000000E+00 -0.00000000000E+00 -0.41545028228E+03  0.41545028228E+03  0.00000000000E+00 0. -1.
         23    2    1    2    0    0 -0.65086966846E+03  0.55457374131E+03  0.87670757295E+03  0.12281019436E+04  0.91841469521E+02 0.  0.
         13    1    3    3    0    0 -0.20536856983E+03  0.16984845381E+03  0.21455111504E+03  0.34213583224E+03  0.00000000000E+00 0. -1.
        -13    1    3    3    0    0 -0.44550109863E+03  0.38472528749E+03  0.66215645791E+03  0.88596611135E+03  0.00000000000E+00 0.  1.
         22    1    1    2    0    0  0.65086966846E+03 -0.55457374131E+03  0.52268059955E+03  0.10021867935E+04  0.00000000000E+00 0. -1.
<mgrwt>
<rscale>  0 0.17366348E+04</rscale>
<asrwt>0</asrwt>
<pdfrwt beam="1">  1        2 0.63915429E-01 0.17366348E+04</pdfrwt>
<pdfrwt beam="2">  1       -2 0.27920591E+00 0.17366348E+04</pdfrwt>
<totfact> 0.30814339E+00</totfact>
</mgrwt>
</event>
<event>
 6    1  0.1603085E-006  0.1651419E+04  0.7818608E-02  0.8789568E-01
          2   -1    0    0  501    0  0.00000000000E+00  0.00000000000E+00  0.12845517327E+04  0.12845517327E+04  0.00000000000E+00 0. -1.
         -2   -1    0    0    0  501 -0.00000000000E+00 -0.00000000000E+00 -0.53076572482E+03  0.53076572482E+03  0.00000000000E+00 0.  1.
         23    2    1    2    0    0  0.72121235849E+03 -0.33402795437E+03  0.14373531967E+03  0.81337744810E+03  0.95922315575E+02 0.  0.
         13    1    3    3    0    0  0.17696629283E+03 -0.11208443846E+03  0.53424823819E+01  0.20954362854E+03  0.00000000000E+00 0. -1.
        -13    1    3    3    0    0  0.54424606565E+03 -0.22194351591E+03  0.13839283729E+03  0.60383381956E+03  0.00000000000E+00 0.  1.
         22    1    1    2    0    0 -0.72121235849E+03  0.33402795437E+03  0.61005068826E+03  0.10019400095E+04  0.00000000000E+00 0. -1.
<mgrwt>
<rscale>  0 0.16514188E+04</rscale>
<asrwt>0</asrwt>
<pdfrwt beam="1">  1        2 0.19762334E+00 0.16514188E+04</pdfrwt>
<pdfrwt beam="2">  1       -2 0.81656266E-01 0.16514188E+04</pdfrwt>
<totfact> 0.21280449E+01</totfact>
</mgrwt>
</event>
<event>
 6    1  0.1603085E-006  0.2433520E+04  0.7818608E-02  0.8427060E-01
          2   -1    0    0  501    0  0.00000000000E+00  0.00000000000E+00  0.30798536624E+04  0.30798536624E+04  0.00000000000E+00 0. -1.
         -2   -1    0    0    0  501 -0.00000000000E+00 -0.00000000000E+00 -0.48070611586E+03  0.48070611586E+03  0.00000000000E+00 0.  1.
         23    2    1    2    0    0 -0.12099186473E+04  0.10511776947E+03  0.13616282741E+04  0.18266604650E+04  0.87772541798E+02 0.  0.
         11    1    3    3    0    0 -0.60029248680E+03  0.72366484252E+02  0.73603644471E+03  0.95254271594E+03  0.00000000000E+00 0.  1.
        -11    1    3    3    0    0 -0.60962616055E+03  0.32751285221E+02  0.62559182936E+03  0.87411774909E+03  0.00000000000E+00 0. -1.
         22    1    1    2    0    0  0.12099186473E+04 -0.10511776947E+03  0.12375192725E+04  0.17338993132E+04  0.00000000000E+00 0.  1.
<mgrwt>
<rscale>  0 0.24335197E+04</rscale>
<asrwt>0</asrwt>
<pdfrwt beam="1">  1        2 0.47382363E+00 0.24335197E+04</pdfrwt>
<pdfrwt beam="2">  1       -2 0.73954789E-01 0.24335197E+04</pdfrwt>
<totfact> 0.22909510E+00</totfact>
</mgrwt>
</event>
<event>
 6    1  0.1603085E-006  0.2038495E+04  0.7818608E-02  0.8588831E-01
         -2   -1    0    0    0  501 -0.00000000000E+00  0.00000000000E+00  0.17768647694E+04  0.17768647694E+04  0.00000000000E+00 0.  1.
          2   -1    0    0  501    0  0.00000000000E+00 -0.00000000000E+00 -0.58466231428E+03  0.58466231428E+03  0.00000000000E+00 0. -1.
         23    2    1    2    0    0  0.32364163156E+03  0.50600413995E+03 -0.35330121747E+03  0.70340594898E+03  0.95781435880E+02 0.  0.
         13    1    3    3    0    0  0.26516284800E+02  0.74923683437E+02 -0.80156006527E+02  0.11287894880E+03  0.00000000000E+00 0. -1.
        -13    1    3    3    0    0  0.29712534676E+03  0.43108045651E+03 -0.27314521095E+03  0.59052700018E+03  0.00000000000E+00 0.  1.
         22    1    1    2    0    0 -0.32364163156E+03 -0.50600413995E+03  0.15455036726E+04  0.16581211347E+04  0.00000000000E+00 0.  1.
<mgrwt>
<rscale>  0 0.20384954E+04</rscale>
<asrwt>0</asrwt>
<pdfrwt beam="1">  1        2 0.89948049E-01 0.20384954E+04</pdfrwt>
<pdfrwt beam="2">  1       -2 0.27336381E+00 0.20384954E+04</pdfrwt>
<totfact> 0.21915212E+00</totfact>
</mgrwt>
</event>
<event>
 6    1  0.1603085E-006  0.2059317E+04  0.7818608E-02  0.8579379E-01
          2   -1    0    0  501    0  0.00000000000E+00  0.00000000000E+00  0.26458059031E+04  0.26458059031E+04  0.00000000000E+00 0. -1.
         -2   -1    0    0    0  501 -0.00000000000E+00 -0.00000000000E+00 -0.40070858460E+03  0.40070858460E+03  0.00000000000E+00 0.  1.
         23    2    1    2    0    0  0.97809114214E+03 -0.18646201351E+03  0.74881208982E+03  0.12492109935E+04  0.91532483442E+02 0.  0.
         11    1    3    3    0    0  0.53872874901E+03 -0.14894949251E+03  0.42004277374E+03  0.69917848086E+03  0.00000000000E+00 0.  1.
        -11    1    3    3    0    0  0.43936239313E+03 -0.37512521007E+02  0.32876931608E+03  0.55003251261E+03  0.00000000000E+00 0. -1.
         22    1    1    2    0    0 -0.97809114214E+03  0.18646201351E+03  0.14962852287E+04  0.17973034943E+04  0.00000000000E+00 0. -1.
<mgrwt>
<rscale>  0 0.20593175E+04</rscale>
<asrwt>0</asrwt>
<pdfrwt beam="1">  1        2 0.40704705E+00 0.20593175E+04</pdfrwt>
<pdfrwt beam="2">  1       -2 0.61647476E-01 0.20593175E+04</pdfrwt>
<totfact> 0.64703446E+00</totfact>
</mgrwt>
</event>
<event>
 6    1  0.1603085E-006  0.4527345E+04  0.7818608E-02  0.7905867E-01
          1   -1    0    0  501    0  0.00000000000E+00  0.00000000000E+00  0.24717459999E+04  0.24717459999E+04  0.00000000000E+00 0. -1.
         -1   -1    0    0    0  501 -0.00000000000E+00 -0.00000000000E+00 -0.20731146258E+04  0.20731146258E+04  0.00000000000E+00 0.  1.
         23    2    1    2    0    0  0.73510558505E+03  0.19606689474E+04  0.10604088084E+04  0.23488295889E+04  0.89054221278E+02 0.  0.
         13    1    3    3    0    0  0.66099240971E+03  0.17243035706E+04  0.90598655710E+03  0.20569262045E+04  0.00000000000E+00 0.  1.
        -13    1    3    3    0    0  0.74113175342E+02  0.23636537678E+03  0.15442225130E+03  0.29190338435E+03  0.00000000000E+00 0. -1.
         22    1    1    2    0    0 -0.73510558505E+03 -0.19606689474E+04 -0.66177743425E+03  0.21960310369E+04  0.00000000000E+00 0.  1.
<mgrwt>
<rscale>  0 0.45273448E+04</rscale>
<asrwt>0</asrwt>
<pdfrwt beam="1">  1        1 0.38026862E+00 0.45273448E+04</pdfrwt>
<pdfrwt beam="2">  1       -1 0.31894071E+00 0.45273448E+04</pdfrwt>
<totfact> 0.26426736E-02</totfact>
</mgrwt>
</event>
<event>
 6    1  0.1603085E-006  0.5274169E+04  0.7818608E-02  0.7787552E-01
         -1   -1    0    0    0  501 -0.00000000000E+00  0.00000000000E+00  0.35595387113E+04  0.35595387113E+04  0.00000000000E+00 0.  1.
          1   -1    0    0  501    0  0.00000000000E+00 -0.00000000000E+00 -0.19536841025E+04  0.19536841025E+04  0.00000000000E+00 0. -1.
         23    2    1    2    0    0 -0.21303276233E+04  0.21782394842E+03 -0.80413212382E+03  0.22892843674E+04  0.91931428284E+02 0.  0.
         13    1    3    3    0    0 -0.17576458920E+04  0.21459356469E+03 -0.66116735895E+03  0.18901089271E+04  0.00000000000E+00 0.  1.
        -13    1    3    3    0    0 -0.37268173125E+03  0.32303837302E+01 -0.14296476486E+03  0.39917544035E+03  0.00000000000E+00 0. -1.
         22    1    1    2    0    0  0.21303276233E+04 -0.21782394842E+03  0.24099867326E+04  0.32239384464E+04  0.00000000000E+00 0.  1.
<mgrwt>
<rscale>  0 0.52741688E+04</rscale>
<asrwt>0</asrwt>
<pdfrwt beam="1">  1        1 0.30056678E+00 0.52741688E+04</pdfrwt>
<pdfrwt beam="2">  1       -1 0.54762134E+00 0.52741688E+04</pdfrwt>
<totfact> 0.17710935E-03</totfact>
</mgrwt>
</event>
<event>
 6    1  0.1603085E-006  0.1948309E+04  0.7818608E-02  0.8631177E-01
          1   -1    0    0  501    0  0.00000000000E+00  0.00000000000E+00  0.11300522301E+04  0.11300522301E+04  0.00000000000E+00 0. -1.
         -1   -1    0    0    0  501 -0.00000000000E+00 -0.00000000000E+00 -0.83976366739E+03  0.83976366739E+03  0.00000000000E+00 0.  1.
         23    2    1    2    0    0 -0.48808978175E+03 -0.76529982736E+03 -0.20593928103E+03  0.93533171023E+03  0.92298211661E+02 0.  0.
         11    1    3    3    0    0 -0.22142794380E+03 -0.33251667087E+03 -0.44476190981E+02  0.40196492667E+03  0.00000000000E+00 0.  1.
        -11    1    3    3    0    0 -0.26666183795E+03 -0.43278315649E+03 -0.16146309005E+03  0.53336678356E+03  0.00000000000E+00 0. -1.
         22    1    1    2    0    0  0.48808978175E+03  0.76529982736E+03  0.49622784375E+03  0.10344841873E+04  0.00000000000E+00 0. -1.
<mgrwt>
<rscale>  0 0.19483088E+04</rscale>
<asrwt>0</asrwt>
<pdfrwt beam="1">  1        1 0.17385419E+00 0.19483088E+04</pdfrwt>
<pdfrwt beam="2">  1       -1 0.12919441E+00 0.19483088E+04</pdfrwt>
<totfact> 0.57787125E+00</totfact>
</mgrwt>
</event>
<event>
 6    1  0.1603085E-006  0.1504074E+04  0.7818608E-02  0.8881748E-01
          2   -1    0    0  501    0  0.00000000000E+00  0.00000000000E+00  0.17892904931E+04  0.17892904931E+04  0.00000000000E+00 0. -1.
         -2   -1    0    0    0  501 -0.00000000000E+00 -0.00000000000E+00 -0.31608039261E+03  0.31608039261E+03  0.00000000000E+00 0.  1.
         23    2    1    2    0    0 -0.24400367073E+03  0.69352258127E+03  0.53081280222E+03  0.91012027189E+03  0.77751631753E+02 0.  0.
         13    1    3    3    0    0 -0.14795186475E+03  0.35489584059E+03  0.23744786177E+03  0.45190961376E+03  0.00000000000E+00 0. -1.
        -13    1    3    3    0    0 -0.96051805984E+02  0.33862674068E+03  0.29336494045E+03  0.45821065813E+03  0.00000000000E+00 0.  1.
         22    1    1    2    0    0  0.24400367073E+03 -0.69352258127E+03  0.94239729830E+03  0.11952506138E+04  0.00000000000E+00 0. -1.
<mgrwt>
<rscale>  0 0.15040740E+04</rscale>
<asrwt>0</asrwt>
<pdfrwt beam="1">  1        2 0.27527546E+00 0.15040740E+04</pdfrwt>
<pdfrwt beam="2">  1       -2 0.48627754E-01 0.15040740E+04</pdfrwt>
<totfact> 0.33839019E+01</totfact>
</mgrwt>
</event>
<event>
 6    1  0.1603085E-006  0.8804067E+03  0.7818608E-02  0.9450411E-01
          2   -1    0    0  501    0  0.00000000000E+00  0.00000000000E+00  0.14657420225E+03  0.14657420225E+03  0.00000000000E+00 0. -1.
         -2   -1    0    0    0  501 -0.00000000000E+00 -0.00000000000E+00 -0.13220537546E+04  0.13220537546E+04  0.00000000000E+00 0.  1.
         23    2    1    2    0    0  0.35715149637E+03 -0.17496113368E+03 -0.88972640458E+03  0.97891023088E+03  0.92106326811E+02 0.  0.
         11    1    3    3    0    0  0.15318114846E+03 -0.11282737768E+03 -0.34572531701E+03  0.39461433859E+03  0.00000000000E+00 0. -1.
        -11    1    3    3    0    0  0.20397034791E+03 -0.62133756003E+02 -0.54400108757E+03  0.58429589228E+03  0.00000000000E+00 0.  1.
         22    1    1    2    0    0 -0.35715149637E+03  0.17496113368E+03 -0.28575314771E+03  0.48971772593E+03  0.00000000000E+00 0.  1.
<mgrwt>
<rscale>  0 0.88040667E+03</rscale>
<asrwt>0</asrwt>
<pdfrwt beam="1">  1        2 0.22549877E-01 0.88040667E+03</pdfrwt>
<pdfrwt beam="2">  1       -2 0.20339289E+00 0.88040667E+03</pdfrwt>
<totfact> 0.31479312E+01</totfact>
</mgrwt>
</event>
<event>
 6    1  0.1603085E-006  0.1755094E+04  0.7818608E-02  0.8730551E-01
         -1   -1    0    0    0  501 -0.00000000000E+00  0.00000000000E+00  0.94486164214E+03  0.94486164214E+03  0.00000000000E+00 0.  1.
          1   -1    0    0  501    0  0.00000000000E+00 -0.00000000000E+00 -0.81502779296E+03  0.81502779296E+03  0.00000000000E+00 0. -1.
         23    2    1    2    0    0 -0.45038321970E+03  0.62895121368E+03  0.47540000378E+03  0.91263466765E+03  0.92044550205E+02 0.  0.
         11    1    3    3    0    0 -0.29251047213E+03  0.33402237920E+03  0.25466956551E+03  0.51184950298E+03  0.00000000000E+00 0. -1.
        -11    1    3    3    0    0 -0.15787274757E+03  0.29492883448E+03  0.22073043827E+03  0.40078516466E+03  0.00000000000E+00 0.  1.
         22    1    1    2    0    0  0.45038321970E+03 -0.62895121368E+03 -0.34556615461E+03  0.84725476746E+03  0.00000000000E+00 0. -1.
<mgrwt>
<rscale>  0 0.17550937E+04</rscale>
<asrwt>0</asrwt>
<pdfrwt beam="1">  1        1 0.12538889E+00 0.17550937E+04</pdfrwt>
<pdfrwt beam="2">  1       -1 0.14536333E+00 0.17550937E+04</pdfrwt>
<totfact> 0.77139562E+00</totfact>
</mgrwt>
</event>
<event>
 6    1  0.1603085E-006  0.1472535E+04  0.7818608E-02  0.8902925E-01
         -1   -1    0    0    0  501 -0.00000000000E+00  0.00000000000E+00  0.66901528315E+03  0.66901528315E+03  0.00000000000E+00 0.  1.
          1   -1    0    0  501    0  0.00000000000E+00 -0.00000000000E+00 -0.81028009202E+03  0.81028009202E+03  0.00000000000E+00 0. -1.
         23    2    1    2    0    0  0.21441987302E+03  0.57343839473E+03  0.33520843483E+03  0.70351562133E+03  0.88102554884E+02 0.  0.
         13    1    3    3    0    0  0.44028082259E+02  0.24050630611E+03  0.13509854746E+03  0.27934454144E+03  0.00000000000E+00 0. -1.
        -13    1    3    3    0    0  0.17039179076E+03  0.33293208861E+03  0.20010988737E+03  0.42417107989E+03  0.00000000000E+00 0.  1.
         22    1    1    2    0    0 -0.21441987302E+03 -0.57343839473E+03 -0.47647324370E+03  0.77577975383E+03  0.00000000000E+00 0. -1.
<mgrwt>
<rscale>  0 0.14725349E+04</rscale>
<asrwt>0</asrwt>
<pdfrwt beam="1">  1        1 0.12465848E+00 0.14725349E+04</pdfrwt>
<pdfrwt beam="2">  1       -1 0.10292543E+00 0.14725349E+04</pdfrwt>
<totfact> 0.18732770E+01</totfact>
</mgrwt>
</event>
<event>
 6    1  0.1603085E-006  0.1962689E+04  0.7818608E-02  0.8624266E-01
          1   -1    0    0  501    0  0.00000000000E+00  0.00000000000E+00  0.16393887414E+04  0.16393887414E+04  0.00000000000E+00 0. -1.
         -1   -1    0    0    0  501 -0.00000000000E+00 -0.00000000000E+00 -0.58743684694E+03  0.58743684694E+03  0.00000000000E+00 0.  1.
         23    2    1    2    0    0 -0.39280751337E+03  0.57571729217E+03 -0.25318211231E+03  0.74725709764E+03  0.92432921253E+02 0.  0.
         11    1    3    3    0    0 -0.32262160360E+03  0.49453260561E+03 -0.17973530942E+03  0.61721307389E+03  0.00000000000E+00 0.  1.
        -11    1    3    3    0    0 -0.70185909763E+02  0.81184686551E+02 -0.73446802892E+02  0.13004402376E+03  0.00000000000E+00 0. -1.
         22    1    1    2    0    0  0.39280751337E+03 -0.57571729217E+03  0.13051340068E+04  0.14795684907E+04  0.00000000000E+00 0. -1.
<mgrwt>
<rscale>  0 0.19626893E+04</rscale>
<asrwt>0</asrwt>
<pdfrwt beam="1">  1        1 0.25221365E+00 0.19626893E+04</pdfrwt>
<pdfrwt beam="2">  1       -1 0.90374900E-01 0.19626893E+04</pdfrwt>
<totfact> 0.58398477E+00</totfact>
</mgrwt>
</event>
<event>
 6    1  0.1603085E-006  0.1061377E+04  0.7818608E-02  0.9243676E-01
          1   -1    0    0  501    0  0.00000000000E+00  0.00000000000E+00  0.90149440669E+03  0.90149440669E+03  0.00000000000E+00 0. -1.
         -1   -1    0    0    0  501 -0.00000000000E+00 -0.00000000000E+00 -0.31240365114E+03  0.31240365114E+03  0.00000000000E+00 0.  1.
         23    2    1    2    0    0 -0.96886617942E+02 -0.50966145500E+03  0.19289221439E+03  0.56112313531E+03  0.92249396541E+02 0.  0.
         11    1    3    3    0    0 -0.22074852922E+02 -0.26569887335E+03  0.59448347137E+02  0.27316166716E+03  0.00000000000E+00 0. -1.
        -11    1    3    3    0    0 -0.74811765020E+02 -0.24396258165E+03  0.13344386725E+03  0.28796146815E+03  0.00000000000E+00 0.  1.
         22    1    1    2    0    0  0.96886617942E+02  0.50966145500E+03  0.39619854116E+03  0.65277492252E+03  0.00000000000E+00 0. -1.
<mgrwt>
<rscale>  0 0.10613767E+04</rscale>
<asrwt>0</asrwt>
<pdfrwt beam="1">  1        1 0.13869145E+00 0.10613767E+04</pdfrwt>
<pdfrwt beam="2">  1       -1 0.48062100E-01 0.10613767E+04</pdfrwt>
<totfact> 0.78393675E+01</totfact>
</mgrwt>
</event>
<event>
 6    1  0.1603085E-006  0.2730448E+04  0.7818608E-02  0.8325193E-01
         -2   -1    0    0    0  501 -0.00000000000E+00  0.00000000000E+00  0.63761937309E+03  0.63761937309E+03  0.00000000000E+00 0.  1.
          2   -1    0    0  501    0  0.00000000000E+00 -0.00000000000E+00 -0.29231179989E+04  0.29231179989E+04  0.00000000000E+00 0. -1.
         23    2    1    2    0    0  0.96917393520E+03  0.26081536668E+03  0.59964493465E+02  0.10095572498E+04  0.91034762070E+02 0.  0.
         13    1    3    3    0    0  0.50895162025E+03  0.18396374296E+03  0.31406472940E+02  0.54208927034E+03  0.00000000000E+00 0. -1.
        -13    1    3    3    0    0  0.46022231495E+03  0.76851623718E+02  0.28558020524E+02  0.46746797942E+03  0.00000000000E+00 0.  1.
         22    1    1    2    0    0 -0.96917393520E+03 -0.26081536668E+03 -0.23454631193E+04  0.25511801223E+04  0.00000000000E+00 0. -1.
<mgrwt>
<rscale>  0 0.27304481E+04</rscale>
<asrwt>0</asrwt>
<pdfrwt beam="1">  1        2 0.44971046E+00 0.27304481E+04</pdfrwt>
<pdfrwt beam="2">  1       -2 0.98095288E-01 0.27304481E+04</pdfrwt>
<totfact> 0.14701690E+00</totfact>
</mgrwt>
</event>
<event>
 6    1  0.1603085E-006  0.7417315E+03  0.7818608E-02  0.9648412E-01
         -2   -1    0    0    0  501 -0.00000000000E+00  0.00000000000E+00  0.10115676420E+03  0.10115676420E+03  0.00000000000E+00 0.  1.
          2   -1    0    0  501    0  0.00000000000E+00 -0.00000000000E+00 -0.13596856634E+04  0.13596856634E+04  0.00000000000E+00 0. -1.
         23    2    1    2    0    0  0.94216481979E+02  0.22533066707E+03 -0.11738750785E+04  0.12023527289E+04  0.89547360113E+02 0.  0.
         13    1    3    3    0    0  0.68026314867E+02  0.17743021344E+03 -0.10489025665E+04  0.10659763854E+04  0.00000000000E+00 0.  1.
        -13    1    3    3    0    0  0.26190167112E+02  0.47900453621E+02 -0.12497251198E+03  0.13637634348E+03  0.00000000000E+00 0. -1.
         22    1    1    2    0    0 -0.94216481979E+02 -0.22533066707E+03 -0.84653820715E+02  0.25848969875E+03  0.00000000000E+00 0.  1.
<mgrwt>
<rscale>  0 0.74173149E+03</rscale>
<asrwt>0</asrwt>
<pdfrwt beam="1">  1        2 0.20918240E+00 0.74173149E+03</pdfrwt>
<pdfrwt beam="2">  1       -2 0.15562580E-01 0.74173149E+03</pdfrwt>
<totfact> 0.50760603E+02</totfact>
</mgrwt>
</event>
<event>
 6    1  0.1603085E-006  0.1704513E+04  0.7818608E-02  0.8758795E-01
         -1   -1    0    0    0  501 -0.00000000000E+00  0.00000000000E+00  0.98748008868E+03  0.98748008868E+03  0.00000000000E+00 0. -1.
          1   -1    0    0  501    0  0.00000000000E+00 -0.00000000000E+00 -0.73555011528E+03  0.73555011528E+03  0.00000000000E+00 0.  1.
         23    2    1    2    0    0  0.60535640859E+03  0.45616867794E+03 -0.26222826175E+03  0.80711266678E+03  0.90116321920E+02 0.  0.
         13    1    3    3    0    0  0.12579800973E+03  0.11278559652E+03 -0.95964054529E+02  0.19430602100E+03  0.00000000000E+00 0. -1.
        -13    1    3    3    0    0  0.47955839886E+03  0.34338308141E+03 -0.16626420722E+03  0.61280664578E+03  0.00000000000E+00 0.  1.
         22    1    1    2    0    0 -0.60535640859E+03 -0.45616867794E+03  0.51415823514E+03  0.91591753718E+03  0.00000000000E+00 0. -1.
<mgrwt>
<rscale>  0 0.17045129E+04</rscale>
<asrwt>0</asrwt>
<pdfrwt beam="1">  1        1 0.11316156E+00 0.17045129E+04</pdfrwt>
<pdfrwt beam="2">  1       -1 0.15192001E+00 0.17045129E+04</pdfrwt>
<totfact> 0.80958890E+00</totfact>
</mgrwt>
</event>
<event>
 6    1  0.1603085E-006  0.3345024E+04  0.7818608E-02  0.8151533E-01
         -1   -1    0    0    0  501 -0.00000000000E+00  0.00000000000E+00  0.76937755112E+03  0.76937755112E+03  0.00000000000E+00 0.  1.
          1   -1    0    0  501    0  0.00000000000E+00 -0.00000000000E+00 -0.36357915605E+04  0.36357915605E+04  0.00000000000E+00 0. -1.
         23    2    1    2    0    0  0.67328966945E+03  0.93259584407E+03 -0.30310805183E+04  0.32432013640E+04  0.88611466940E+02 0.  0.
         11    1    3    3    0    0  0.35287127959E+03  0.48178391654E+03 -0.14493820914E+04  0.15675912506E+04  0.00000000000E+00 0. -1.
        -11    1    3    3    0    0  0.32041838987E+03  0.45081192753E+03 -0.15816984269E+04  0.16756101134E+04  0.00000000000E+00 0.  1.
         22    1    1    2    0    0 -0.67328966945E+03 -0.93259584407E+03  0.16466650885E+03  0.11619677476E+04  0.00000000000E+00 0.  1.
<mgrwt>
<rscale>  0 0.33450240E+04</rscale>
<asrwt>0</asrwt>
<pdfrwt beam="1">  1        1 0.55935256E+00 0.33450240E+04</pdfrwt>
<pdfrwt beam="2">  1       -1 0.11836577E+00 0.33450240E+04</pdfrwt>
<totfact> 0.10282361E-01</totfact>
</mgrwt>
</event>
<event>
 6    1  0.1636154E-006  0.3677565E+04  0.7818608E-02  0.8072952E-01
          1   -1    0    0  501    0  0.00000000000E+00  0.00000000000E+00  0.21118336456E+04  0.21118336456E+04  0.00000000000E+00 0. -1.
         -1   -1    0    0    0  501 -0.00000000000E+00 -0.00000000000E+00 -0.16010353176E+04  0.16010353176E+04  0.00000000000E+00 0.  1.
         23    2    1    2    0    0 -0.45609172154E+03  0.33145348896E+03 -0.15102564293E+04  0.16146450939E+04  0.91231701449E+02 0.  0.
         11    1    3    3    0    0 -0.21636988920E+03  0.12527529021E+03 -0.56322780763E+03  0.61622673633E+03  0.00000000000E+00 0. -1.
        -11    1    3    3    0    0 -0.23972183234E+03  0.20617819876E+03 -0.94702862165E+03  0.99841835759E+03  0.00000000000E+00 0.  1.
         22    1    1    2    0    0  0.45609172154E+03 -0.33145348896E+03  0.20210547572E+04  0.20982238692E+04  0.00000000000E+00 0. -1.
<mgrwt>
<rscale>  0 0.36775645E+04</rscale>
<asrwt>0</asrwt>
<pdfrwt beam="1">  1        1 0.32489748E+00 0.36775645E+04</pdfrwt>
<pdfrwt beam="2">  1       -1 0.24631313E+00 0.36775645E+04</pdfrwt>
<totfact> 0.14821859E-01</totfact>
</mgrwt>
</event>
<event>
 6    1  0.1603085E-006  0.1612799E+04  0.7818608E-02  0.8812723E-01
          2   -1    0    0  501    0  0.00000000000E+00  0.00000000000E+00  0.43892795967E+04  0.43892795967E+04  0.00000000000E+00 0. -1.
         -2   -1    0    0    0  501 -0.00000000000E+00 -0.00000000000E+00 -0.14815197369E+03  0.14815197369E+03  0.00000000000E+00 0.  1.
         23    2    1    2    0    0 -0.58005013181E+03 -0.36732253451E+03  0.33046074219E+04  0.33762020122E+04  0.83221477653E+02 0.  0.
         13    1    3    3    0    0 -0.28764467649E+03 -0.21823773980E+03  0.15925952432E+04  0.16330115676E+04  0.00000000000E+00 0. -1.
        -13    1    3    3    0    0 -0.29240545532E+03 -0.14908479472E+03  0.17120121787E+04  0.17431904446E+04  0.00000000000E+00 0.  1.
         22    1    1    2    0    0  0.58005013181E+03  0.36732253451E+03  0.93652020110E+03  0.11612295582E+04  0.00000000000E+00 0.  1.
<mgrwt>
<rscale>  0 0.16127993E+04</rscale>
<asrwt>0</asrwt>
<pdfrwt beam="1">  1        2 0.67527369E+00 0.16127993E+04</pdfrwt>
<pdfrwt beam="2">  1       -2 0.22792615E-01 0.16127993E+04</pdfrwt>
<totfact> 0.26216324E+00</totfact>
</mgrwt>
</event>
<event>
 6    1  0.1603085E-006  0.1544623E+04  0.7818608E-02  0.8855310E-01
         -2   -1    0    0    0  501 -0.00000000000E+00  0.00000000000E+00  0.81745247597E+03  0.81745247597E+03  0.00000000000E+00 0.  1.
          2   -1    0    0  501    0  0.00000000000E+00 -0.00000000000E+00 -0.72966315332E+03  0.72966315332E+03  0.00000000000E+00 0. -1.
         23    2    1    2    0    0 -0.24715896865E+03  0.41032971070E+03  0.64741389257E+03  0.81047617439E+03  0.90933237597E+02 0.  0.
         11    1    3    3    0    0 -0.14660769108E+03  0.15817588501E+03  0.26960297922E+03  0.34525236000E+03  0.00000000000E+00 0.  1.
        -11    1    3    3    0    0 -0.10055127757E+03  0.25215382568E+03  0.37781091335E+03  0.46522381439E+03  0.00000000000E+00 0. -1.
         22    1    1    2    0    0  0.24715896865E+03 -0.41032971070E+03 -0.55962456991E+03  0.73663945490E+03  0.00000000000E+00 0. -1.
<mgrwt>
<rscale>  0 0.15446229E+04</rscale>
<asrwt>0</asrwt>
<pdfrwt beam="1">  1        2 0.11225587E+00 0.15446229E+04</pdfrwt>
<pdfrwt beam="2">  1       -2 0.12576192E+00 0.15446229E+04</pdfrwt>
<totfact> 0.17665776E+01</totfact>
</mgrwt>
</event>
<event>
 6    1  0.1603085E-006  0.4667916E+04  0.7818608E-02  0.7881882E-01
         -2   -1    0    0    0  501 -0.00000000000E+00  0.00000000000E+00  0.18195562823E+04  0.18195562823E+04  0.00000000000E+00 0. -1.
          2   -1    0    0  501    0  0.00000000000E+00 -0.00000000000E+00 -0.29937842308E+04  0.29937842308E+04  0.00000000000E+00 0.  1.
         23    2    1    2    0    0 -0.14605364702E+04  0.74196577404E+03  0.11255820646E+04  0.19897247306E+04  0.91594370704E+02 0.  0.
         13    1    3    3    0    0 -0.69376436801E+03  0.37528620887E+03  0.49213576630E+03  0.92970229072E+03  0.00000000000E+00 0.  1.
        -13    1    3    3    0    0 -0.76677210216E+03  0.36667956517E+03  0.63344629831E+03  0.10600224399E+04  0.00000000000E+00 0. -1.
         22    1    1    2    0    0  0.14605364702E+04 -0.74196577404E+03 -0.22998100131E+04  0.28236157825E+04  0.00000000000E+00 0.  1.
<mgrwt>
<rscale>  0 0.46679156E+04</rscale>
<asrwt>0</asrwt>
<pdfrwt beam="1">  1        2 0.46058219E+00 0.46679156E+04</pdfrwt>
<pdfrwt beam="2">  1       -2 0.27993174E+00 0.46679156E+04</pdfrwt>
<totfact> 0.55329475E-02</totfact>
</mgrwt>
</event>
<event>
 6    1  0.1603085E-006  0.2859959E+04  0.7818608E-02  0.8284892E-01
          2   -1    0    0  501    0  0.00000000000E+00  0.00000000000E+00  0.21868320004E+04  0.21868320004E+04  0.00000000000E+00 0. -1.
         -2   -1    0    0    0  501 -0.00000000000E+00 -0.00000000000E+00 -0.93506993727E+03  0.93506993727E+03  0.00000000000E+00 0.  1.
         23    2    1    2    0    0 -0.39699996314E+03  0.11365407221E+04  0.14658298067E+04  0.18991350823E+04  0.93398367410E+02 0.  0.
         11    1    3    3    0    0 -0.40829336964E+02  0.77155521160E+02  0.14101050097E+03  0.16584321085E+03  0.00000000000E+00 0.  1.
        -11    1    3    3    0    0 -0.35617062617E+03  0.10593852009E+04  0.13248193057E+04  0.17332918714E+04  0.00000000000E+00 0. -1.
         22    1    1    2    0    0  0.39699996314E+03 -0.11365407221E+04 -0.21406774357E+03  0.12227668553E+04  0.00000000000E+00 0. -1.
<mgrwt>
<rscale>  0 0.28599586E+04</rscale>
<asrwt>0</asrwt>
<pdfrwt beam="1">  1        2 0.33643569E+00 0.28599586E+04</pdfrwt>
<pdfrwt beam="2">  1       -2 0.14385691E+00 0.28599586E+04</pdfrwt>
<totfact> 0.15216038E+00</totfact>
</mgrwt>
</event>
<event>
 6    1  0.1603085E-006  0.2760074E+04  0.7818608E-02  0.8315772E-01
          1   -1    0    0  501    0  0.00000000000E+00  0.00000000000E+00  0.11774615977E+04  0.11774615977E+04  0.00000000000E+00 0. -1.
         -1   -1    0    0    0  501 -0.00000000000E+00 -0.00000000000E+00 -0.16174646853E+04  0.16174646853E+04  0.00000000000E+00 0.  1.
         23    2    1    2    0    0  0.24147729194E+03 -0.88290888573E+03 -0.12640690273E+04  0.15632915741E+04  0.90391685282E+02 0.  0.
         13    1    3    3    0    0  0.57777205853E+02 -0.11845084558E+03 -0.14908263303E+03  0.19898351642E+03  0.00000000000E+00 0. -1.
        -13    1    3    3    0    0  0.18370008608E+03 -0.76445804015E+03 -0.11149863943E+04  0.13643080577E+04  0.00000000000E+00 0.  1.
         22    1    1    2    0    0 -0.24147729194E+03  0.88290888573E+03  0.82406593972E+03  0.12316347088E+04  0.00000000000E+00 0. -1.
<mgrwt>
<rscale>  0 0.27600743E+04</rscale>
<asrwt>0</asrwt>
<pdfrwt beam="1">  1        1 0.18114794E+00 0.27600743E+04</pdfrwt>
<pdfrwt beam="2">  1       -1 0.24884072E+00 0.27600743E+04</pdfrwt>
<totfact> 0.68412329E-01</totfact>
</mgrwt>
</event>
<event>
 6    1  0.1603085E-006  0.1269245E+04  0.7818608E-02  0.9054316E-01
         -2   -1    0    0    0  501 -0.00000000000E+00  0.00000000000E+00  0.14498673564E+03  0.14498673564E+03  0.00000000000E+00 0.  1.
          2   -1    0    0  501    0  0.00000000000E+00 -0.00000000000E+00 -0.27778114595E+04  0.27778114595E+04  0.00000000000E+00 0. -1.
         23    2    1    2    0    0  0.12286375630E+02  0.32231463148E+03 -0.25730143109E+04  0.25947510001E+04  0.91062790211E+02 0.  0.
         11    1    3    3    0    0  0.41674101516E+02  0.13691444133E+03 -0.91160588044E+03  0.92277168153E+03  0.00000000000E+00 0.  1.
        -11    1    3    3    0    0 -0.29387725887E+02  0.18540019016E+03 -0.16614084304E+04  0.16719793185E+04  0.00000000000E+00 0. -1.
         22    1    1    2    0    0 -0.12286375630E+02 -0.32231463148E+03 -0.59810412992E+02  0.32804719507E+03  0.00000000000E+00 0.  1.
<mgrwt>
<rscale>  0 0.12692452E+04</rscale>
<asrwt>0</asrwt>
<pdfrwt beam="1">  1        2 0.42735559E+00 0.12692452E+04</pdfrwt>
<pdfrwt beam="2">  1       -2 0.22305653E-01 0.12692452E+04</pdfrwt>
<totfact> 0.41630666E+01</totfact>
</mgrwt>
</event>
<event>
 6    1  0.1603085E-006  0.2958159E+04  0.7818608E-02  0.8255781E-01
         -2   -1    0    0    0  501 -0.00000000000E+00  0.00000000000E+00  0.17160916602E+04  0.17160916602E+04  0.00000000000E+00 0.  1.
          2   -1    0    0  501    0  0.00000000000E+00 -0.00000000000E+00 -0.12748016154E+04  0.12748016154E+04  0.00000000000E+00 0. -1.
         23    2    1    2    0    0  0.27654047398E+03  0.94430603738E+03  0.13355216179E+04  0.16612923459E+04  0.89920746356E+02 0.  0.
         11    1    3    3    0    0  0.13493310563E+03  0.60193095637E+03  0.80403522591E+03  0.10134103136E+04  0.00000000000E+00 0. -1.
        -11    1    3    3    0    0  0.14160736835E+03  0.34237508101E+03  0.53148639196E+03  0.64788203225E+03  0.00000000000E+00 0.  1.
         22    1    1    2    0    0 -0.27654047398E+03 -0.94430603738E+03 -0.89423157309E+03  0.13296009297E+04  0.00000000000E+00 0. -1.
<mgrwt>
<rscale>  0 0.29581592E+04</rscale>
<asrwt>0</asrwt>
<pdfrwt beam="1">  1        2 0.19612333E+00 0.29581592E+04</pdfrwt>
<pdfrwt beam="2">  1       -2 0.26401410E+00 0.29581592E+04</pdfrwt>
<totfact> 0.77457074E-01</totfact>
</mgrwt>
</event>
<event>
 6    1  0.1603085E-006  0.3177684E+04  0.7818608E-02  0.8194736E-01
         -1   -1    0    0    0  501 -0.00000000000E+00  0.00000000000E+00  0.55664808692E+03  0.55664808692E+03  0.00000000000E+00 0.  1.
          1   -1    0    0  501    0  0.00000000000E+00 -0.00000000000E+00 -0.45350360111E+04  0.45350360111E+04  0.00000000000E+00 0. -1.
         23    2    1    2    0    0 -0.31529132418E+03  0.44356238108E+02 -0.44829550339E+04  0.44950568582E+04  0.85289083265E+02 0.  0.
         13    1    3    3    0    0 -0.23026656821E+03  0.89858364052E+01 -0.35829266604E+04  0.35903296355E+04  0.00000000000E+00 0.  1.
        -13    1    3    3    0    0 -0.85024755967E+02  0.35370401703E+02 -0.90002837353E+03  0.90472722276E+03  0.00000000000E+00 0. -1.
         22    1    1    2    0    0  0.31529132418E+03 -0.44356238108E+02  0.50456710977E+03  0.59662723976E+03  0.00000000000E+00 0.  1.
<mgrwt>
<rscale>  0 0.31776841E+04</rscale>
<asrwt>0</asrwt>
<pdfrwt beam="1">  1        1 0.69769786E+00 0.31776841E+04</pdfrwt>
<pdfrwt beam="2">  1       -1 0.85638165E-01 0.31776841E+04</pdfrwt>
<totfact> 0.33396717E-02</totfact>
</mgrwt>
</event>
<event>
 6    1  0.1603085E-006  0.1477366E+04  0.7818608E-02  0.8899645E-01
         -1   -1    0    0    0  501 -0.00000000000E+00  0.00000000000E+00  0.10496390996E+04  0.10496390996E+04  0.00000000000E+00 0.  1.
          1   -1    0    0  501    0  0.00000000000E+00 -0.00000000000E+00 -0.51984789785E+03  0.51984789785E+03  0.00000000000E+00 0. -1.
         23    2    1    2    0    0  0.31671436053E+03  0.55916625916E+03  0.64636481140E+03  0.91636809705E+03  0.94700202373E+02 0.  0.
         11    1    3    3    0    0  0.15593191910E+03  0.18881366086E+03  0.22029114838E+03  0.32938359397E+03  0.00000000000E+00 0.  1.
        -11    1    3    3    0    0  0.16078244143E+03  0.37035259830E+03  0.42607366302E+03  0.58698450309E+03  0.00000000000E+00 0. -1.
         22    1    1    2    0    0 -0.31671436053E+03 -0.55916625916E+03 -0.11657360967E+03  0.65311890037E+03  0.00000000000E+00 0. -1.
<mgrwt>
<rscale>  0 0.14773661E+04</rscale>
<asrwt>0</asrwt>
<pdfrwt beam="1">  1        1 0.79976600E-01 0.14773661E+04</pdfrwt>
<pdfrwt beam="2">  1       -1 0.16148294E+00 0.14773661E+04</pdfrwt>
<totfact> 0.11588144E+01</totfact>
</mgrwt>
</event>
<event>
 6    1  0.1603085E-006  0.1672585E+04  0.7818608E-02  0.8777157E-01
          4   -1    0    0  501    0  0.00000000000E+00  0.00000000000E+00  0.15200345223E+04  0.15200345223E+04  0.00000000000E+00 0. -1.
         -4   -1    0    0    0  501 -0.00000000000E+00 -0.00000000000E+00 -0.46011110547E+03  0.46011110547E+03  0.00000000000E+00 0.  1.
         23    2    1    2    0    0  0.18568983981E+03 -0.73825847120E+03  0.12874228032E+03  0.77739686102E+03  0.90912143742E+02 0.  0.
         11    1    3    3    0    0  0.90900773320E+02 -0.36790500830E+03  0.18030105500E+02  0.37939706170E+03  0.00000000000E+00 0.  1.
        -11    1    3    3    0    0  0.94789066491E+02 -0.37035346289E+03  0.11071217482E+03  0.39799979932E+03  0.00000000000E+00 0. -1.
         22    1    1    2    0    0 -0.18568983981E+03  0.73825847120E+03  0.93118113652E+03  0.12027487667E+04  0.00000000000E+00 0. -1.
<mgrwt>
<rscale>  0 0.16725845E+04</rscale>
<asrwt>0</asrwt>
<pdfrwt beam="1">  1        4 0.23385146E+00 0.16725845E+04</pdfrwt>
<pdfrwt beam="2">  1       -4 0.70786325E-01 0.16725845E+04</pdfrwt>
<totfact> 0.27791492E-01</totfact>
</mgrwt>
</event>
<event>
 6    1  0.1603085E-006  0.1464757E+04  0.7818608E-02  0.8908233E-01
          2   -1    0    0  501    0  0.00000000000E+00  0.00000000000E+00  0.29846143812E+04  0.29846143812E+04  0.00000000000E+00 0. -1.
         -2   -1    0    0    0  501 -0.00000000000E+00 -0.00000000000E+00 -0.17971452814E+03  0.17971452814E+03  0.00000000000E+00 0.  1.
         23    2    1    2    0    0 -0.71168842082E+03  0.15682935626E+03  0.13308577969E+04  0.15199761982E+04  0.89717959079E+02 0.  0.
         13    1    3    3    0    0 -0.28257003183E+03  0.62298972876E+02  0.43956261672E+03  0.52625305598E+03  0.00000000000E+00 0. -1.
        -13    1    3    3    0    0 -0.42911838899E+03  0.94530383384E+02  0.89129518021E+03  0.99372314223E+03  0.00000000000E+00 0.  1.
         22    1    1    2    0    0  0.71168842082E+03 -0.15682935626E+03  0.14740420562E+04  0.16443527111E+04  0.00000000000E+00 0. -1.
<mgrwt>
<rscale>  0 0.14647574E+04</rscale>
<asrwt>0</asrwt>
<pdfrwt beam="1">  1        2 0.45917141E+00 0.14647574E+04</pdfrwt>
<pdfrwt beam="2">  1       -2 0.27648391E-01 0.14647574E+04</pdfrwt>
<totfact> 0.20737964E+01</totfact>
</mgrwt>
</event>
<event>
 6    1  0.1603085E-006  0.1887586E+04  0.7818608E-02  0.8661060E-01
          2   -1    0    0  501    0  0.00000000000E+00  0.00000000000E+00  0.24366685927E+04  0.24366685927E+04  0.00000000000E+00 0. -1.
         -2   -1    0    0    0  501 -0.00000000000E+00 -0.00000000000E+00 -0.36555855883E+03  0.36555855883E+03  0.00000000000E+00 0.  1.
         23    2    1    2    0    0  0.50704766559E+03 -0.77462032337E+03  0.12927748663E+04  0.15927067451E+04  0.91180811038E+02 0.  0.
         13    1    3    3    0    0  0.24891901939E+03 -0.31451375493E+03  0.51201023032E+03  0.65041068273E+03  0.00000000000E+00 0.  1.
        -13    1    3    3    0    0  0.25812864620E+03 -0.46010656844E+03  0.78076463602E+03  0.94229606237E+03  0.00000000000E+00 0. -1.
         22    1    1    2    0    0 -0.50704766559E+03  0.77462032337E+03  0.77833516750E+03  0.12095204064E+04  0.00000000000E+00 0. -1.
<mgrwt>
<rscale>  0 0.18875858E+04</rscale>
<asrwt>0</asrwt>
<pdfrwt beam="1">  1        2 0.37487208E+00 0.18875858E+04</pdfrwt>
<pdfrwt beam="2">  1       -2 0.56239780E-01 0.18875858E+04</pdfrwt>
<totfact> 0.10543918E+01</totfact>
</mgrwt>
</event>
<event>
 6    1  0.1603085E-006  0.1947267E+04  0.7818608E-02  0.8631680E-01
          1   -1    0    0  501    0  0.00000000000E+00  0.00000000000E+00  0.70573537235E+03  0.70573537235E+03  0.00000000000E+00 0. -1.
         -1   -1    0    0    0  501 -0.00000000000E+00 -0.00000000000E+00 -0.13432260665E+04  0.13432260665E+04  0.00000000000E+00 0.  1.
         23    2    1    2    0    0 -0.30266794974E+03 -0.71685823586E+03  0.29299444718E+03  0.83599144071E+03  0.86846558611E+02 0.  0.
         13    1    3    3    0    0 -0.68700153872E+02 -0.18095171960E+03  0.11317560411E+03  0.22421407925E+03  0.00000000000E+00 0.  1.
        -13    1    3    3    0    0 -0.23396779587E+03 -0.53590651626E+03  0.17981884307E+03  0.61177736146E+03  0.00000000000E+00 0. -1.
         22    1    1    2    0    0  0.30266794974E+03  0.71685823586E+03 -0.93048514129E+03  0.12129699981E+04  0.00000000000E+00 0.  1.
<mgrwt>
<rscale>  0 0.19472670E+04</rscale>
<asrwt>0</asrwt>
<pdfrwt beam="1">  1        1 0.10857467E+00 0.19472670E+04</pdfrwt>
<pdfrwt beam="2">  1       -1 0.20665016E+00 0.19472670E+04</pdfrwt>
<totfact> 0.33966505E+00</totfact>
</mgrwt>
</event>
<event>
 6    1  0.1603085E-006  0.2834470E+04  0.7818608E-02  0.8292646E-01
          2   -1    0    0  501    0  0.00000000000E+00  0.00000000000E+00  0.13590264195E+04  0.13590264195E+04  0.00000000000E+00 0. -1.
         -2   -1    0    0    0  501 -0.00000000000E+00 -0.00000000000E+00 -0.14779371250E+04  0.14779371250E+04  0.00000000000E+00 0.  1.
         23    2    1    2    0    0 -0.11064648955E+04  0.67711121600E+03 -0.62711475782E+03  0.14437602130E+04  0.91795802336E+02 0.  0.
         13    1    3    3    0    0 -0.38497461237E+03  0.18520673728E+03 -0.20967356193E+03  0.47588863222E+03  0.00000000000E+00 0.  1.
        -13    1    3    3    0    0 -0.72149028317E+03  0.49190447872E+03 -0.41744119589E+03  0.96787158080E+03  0.00000000000E+00 0. -1.
         22    1    1    2    0    0  0.11064648955E+04 -0.67711121600E+03  0.50820405234E+03  0.13932033314E+04  0.00000000000E+00 0. -1.
<mgrwt>
<rscale>  0 0.28344704E+04</rscale>
<asrwt>0</asrwt>
<pdfrwt beam="1">  1        2 0.20908099E+00 0.28344704E+04</pdfrwt>
<pdfrwt beam="2">  1       -2 0.22737494E+00 0.28344704E+04</pdfrwt>
<totfact> 0.11772032E+00</totfact>
</mgrwt>
</event>
<event>
 6    1  0.1603085E-006  0.3145698E+04  0.7818608E-02  0.8203307E-01
          1   -1    0    0  501    0  0.00000000000E+00  0.00000000000E+00  0.21129343144E+04  0.21129343144E+04  0.00000000000E+00 0. -1.
         -1   -1    0    0    0  501 -0.00000000000E+00 -0.00000000000E+00 -0.11708143238E+04  0.11708143238E+04  0.00000000000E+00 0.  1.
         23    2    1    2    0    0  0.56246208874E+02  0.15573922365E+04  0.26014289682E+03  0.15826528236E+04  0.92094619739E+02 0.  0.
         11    1    3    3    0    0  0.39212261156E+02  0.49436019488E+03  0.12059325372E+03  0.51036490529E+03  0.00000000000E+00 0. -1.
        -11    1    3    3    0    0  0.17033947718E+02  0.10630320416E+04  0.13954964310E+03  0.10722879183E+04  0.00000000000E+00 0.  1.
         22    1    1    2    0    0 -0.56246208874E+02 -0.15573922365E+04  0.68197709377E+03  0.17010958147E+04  0.00000000000E+00 0.  1.
<mgrwt>
<rscale>  0 0.31456979E+04</rscale>
<asrwt>0</asrwt>
<pdfrwt beam="1">  1        1 0.32506682E+00 0.31456979E+04</pdfrwt>
<pdfrwt beam="2">  1       -1 0.18012528E+00 0.31456979E+04</pdfrwt>
<totfact> 0.43592850E-01</totfact>
</mgrwt>
</event>
<event>
 6    1  0.1603085E-006  0.3599614E+04  0.7818608E-02  0.8090580E-01
         -2   -1    0    0    0  501 -0.00000000000E+00  0.00000000000E+00  0.10120484703E+04  0.10120484703E+04  0.00000000000E+00 0. -1.
          2   -1    0    0  501    0  0.00000000000E+00 -0.00000000000E+00 -0.32007405609E+04  0.32007405609E+04  0.00000000000E+00 0.  1.
         23    2    1    2    0    0 -0.13508795352E+04  0.88018696863E+03 -0.16191937447E+03  0.16229218027E+04  0.89736702221E+02 0.  0.
         11    1    3    3    0    0 -0.10558749982E+04  0.65012634344E+03 -0.14513377611E+03  0.12484390603E+04  0.00000000000E+00 0. -1.
        -11    1    3    3    0    0 -0.29500453692E+03  0.23006062519E+03 -0.16785598361E+02  0.37448274243E+03  0.00000000000E+00 0.  1.
         22    1    1    2    0    0  0.13508795352E+04 -0.88018696863E+03 -0.20267727161E+04  0.25898672285E+04  0.00000000000E+00 0. -1.
<mgrwt>
<rscale>  0 0.35996136E+04</rscale>
<asrwt>0</asrwt>
<pdfrwt beam="1">  1        2 0.49242162E+00 0.35996136E+04</pdfrwt>
<pdfrwt beam="2">  1       -2 0.15569976E+00 0.35996136E+04</pdfrwt>
<totfact> 0.28603519E-01</totfact>
</mgrwt>
</event>
<event>
 6    1  0.1889548E-006  0.3038297E+04  0.7818608E-02  0.8232879E-01
          2   -1    0    0  501    0  0.00000000000E+00  0.00000000000E+00  0.19039003772E+04  0.19039003772E+04  0.00000000000E+00 0. -1.
         -2   -1    0    0    0  501 -0.00000000000E+00 -0.00000000000E+00 -0.12121494005E+04  0.12121494005E+04  0.00000000000E+00 0.  1.
         23    2    1    2    0    0 -0.13328845794E+04 -0.10336758178E+03 -0.39075179691E+03  0.13958525757E+04  0.91930883388E+02 0.  0.
         11    1    3    3    0    0 -0.69330364218E+03 -0.93702675540E+02 -0.18028455611E+03  0.72246290758E+03  0.00000000000E+00 0. -1.
        -11    1    3    3    0    0 -0.63958093725E+03 -0.96649062384E+01 -0.21046724081E+03  0.67338966815E+03  0.00000000000E+00 0.  1.
         22    1    1    2    0    0  0.13328845794E+04  0.10336758178E+03  0.10825027736E+04  0.17201972020E+04  0.00000000000E+00 0. -1.
<mgrwt>
<rscale>  0 0.30382967E+04</rscale>
<asrwt>0</asrwt>
<pdfrwt beam="1">  1        2 0.29290775E+00 0.30382967E+04</pdfrwt>
<pdfrwt beam="2">  1       -2 0.18648452E+00 0.30382967E+04</pdfrwt>
<totfact> 0.10555929E+00</totfact>
</mgrwt>
</event>
<event>
 6    1  0.1603085E-006  0.2334749E+04  0.7818608E-02  0.8464345E-01
         -1   -1    0    0    0  501 -0.00000000000E+00  0.00000000000E+00  0.82320031255E+03  0.82320031255E+03  0.00000000000E+00 0.  1.
          1   -1    0    0  501    0  0.00000000000E+00 -0.00000000000E+00 -0.16554457058E+04  0.16554457058E+04  0.00000000000E+00 0. -1.
         23    2    1    2    0    0  0.75850393566E+03 -0.12348639437E+03  0.51227706561E+03  0.92999571812E+03  0.10902813291E+03 0.  0.
         11    1    3    3    0    0  0.25860328465E+03 -0.82920610380E+01  0.21968054684E+03  0.33941708821E+03  0.00000000000E+00 0.  1.
        -11    1    3    3    0    0  0.49990065101E+03 -0.11519433334E+03  0.29259651877E+03  0.59057862991E+03  0.00000000000E+00 0. -1.
         22    1    1    2    0    0 -0.75850393566E+03  0.12348639437E+03 -0.13445224589E+04  0.15486503003E+04  0.00000000000E+00 0. -1.
<mgrwt>
<rscale>  0 0.23347492E+04</rscale>
<asrwt>0</asrwt>
<pdfrwt beam="1">  1        1 0.25468395E+00 0.23347492E+04</pdfrwt>
<pdfrwt beam="2">  1       -1 0.12664620E+00 0.23347492E+04</pdfrwt>
<totfact> 0.24952328E+00</totfact>
</mgrwt>
</event>
<event>
 6    1  0.1603085E-006  0.1721892E+04  0.7818608E-02  0.8748976E-01
         -2   -1    0    0    0  501 -0.00000000000E+00  0.00000000000E+00  0.71490246358E+03  0.71490246358E+03  0.00000000000E+00 0.  1.
          2   -1    0    0  501    0  0.00000000000E+00 -0.00000000000E+00 -0.10368239573E+04  0.10368239573E+04  0.00000000000E+00 0. -1.
         23    2    1    2    0    0 -0.48096925852E+02  0.41231402000E+03  0.60318241659E+03  0.73775728416E+03  0.90225369376E+02 0.  0.
         11    1    3    3    0    0 -0.60148014904E+02  0.22682186463E+03  0.38762443331E+03  0.45312100290E+03  0.00000000000E+00 0. -1.
        -11    1    3    3    0    0  0.12051089052E+02  0.18549215538E+03  0.21555798328E+03  0.28463628126E+03  0.00000000000E+00 0.  1.
         22    1    1    2    0    0  0.48096925852E+02 -0.41231402000E+03 -0.92510391031E+03  0.10139691367E+04  0.00000000000E+00 0. -1.
<mgrwt>
<rscale>  0 0.17218920E+04</rscale>
<asrwt>0</asrwt>
<pdfrwt beam="1">  1        2 0.15951138E+00 0.17218920E+04</pdfrwt>
<pdfrwt beam="2">  1       -2 0.10998499E+00 0.17218920E+04</pdfrwt>
<totfact> 0.14899227E+01</totfact>
</mgrwt>
</event>
<event>
 6    1  0.1603085E-006  0.1340350E+04  0.7818608E-02  0.8998165E-01
         -2   -1    0    0    0  501 -0.00000000000E+00  0.00000000000E+00  0.35907451342E+03  0.35907451342E+03  0.00000000000E+00 0.  1.
          2   -1    0    0  501    0  0.00000000000E+00 -0.00000000000E+00 -0.12508117145E+04  0.12508117145E+04  0.00000000000E+00 0. -1.
         23    2    1    2    0    0 -0.43614112742E+03  0.49999618848E+03 -0.52707911167E+03  0.85279257870E+03  0.96059985430E+02 0.  0.
         13    1    3    3    0    0 -0.91254639455E+02  0.16221891332E+03 -0.12131856393E+03  0.22217240831E+03  0.00000000000E+00 0. -1.
        -13    1    3    3    0    0 -0.34488648797E+03  0.33777727516E+03 -0.40576054774E+03  0.63062017039E+03  0.00000000000E+00 0.  1.
         22    1    1    2    0    0  0.43614112742E+03 -0.49999618848E+03 -0.36465808942E+03  0.75709364923E+03  0.00000000000E+00 0.  1.
<mgrwt>
<rscale>  0 0.13403501E+04</rscale>
<asrwt>0</asrwt>
<pdfrwt beam="1">  1        2 0.19243258E+00 0.13403501E+04</pdfrwt>
<pdfrwt beam="2">  1       -2 0.55242231E-01 0.13403501E+04</pdfrwt>
<totfact> 0.53194824E+01</totfact>
</mgrwt>
</event>
<event>
 6    1  0.1603085E-006  0.1302896E+04  0.7818608E-02  0.9027272E-01
         -1   -1    0    0    0  501 -0.00000000000E+00  0.00000000000E+00  0.29241705112E+03  0.29241705112E+03  0.00000000000E+00 0.  1.
          1   -1    0    0  501    0  0.00000000000E+00 -0.00000000000E+00 -0.14512993782E+04  0.14512993782E+04  0.00000000000E+00 0. -1.
         23    2    1    2    0    0  0.12581967443E+03 -0.22875065348E+03 -0.13774783780E+04  0.14032143216E+04  0.58363503689E+02 0.  0.
         13    1    3    3    0    0  0.87101680060E+02 -0.16365360188E+03 -0.11032732505E+04  0.11187408410E+04  0.00000000000E+00 0. -1.
        -13    1    3    3    0    0  0.38717994372E+02 -0.65097051601E+02 -0.27420512753E+03  0.28447348062E+03  0.00000000000E+00 0.  1.
         22    1    1    2    0    0 -0.12581967443E+03  0.22875065348E+03  0.21859605087E+03  0.34050210777E+03  0.00000000000E+00 0.  1.
<mgrwt>
<rscale>  0 0.13028963E+04</rscale>
<asrwt>0</asrwt>
<pdfrwt beam="1">  1        1 0.22327683E+00 0.13028963E+04</pdfrwt>
<pdfrwt beam="2">  1       -1 0.44987239E-01 0.13028963E+04</pdfrwt>
<totfact> 0.34037049E+01</totfact>
</mgrwt>
</event>
<event>
 6    1  0.1603085E-006  0.1948744E+04  0.7818608E-02  0.8630967E-01
          1   -1    0    0  501    0  0.00000000000E+00  0.00000000000E+00  0.14299663187E+04  0.14299663187E+04  0.00000000000E+00 0. -1.
         -1   -1    0    0    0  501 -0.00000000000E+00 -0.00000000000E+00 -0.66393239451E+03  0.66393239451E+03  0.00000000000E+00 0.  1.
         23    2    1    2    0    0 -0.92051062206E+03 -0.23684050762E+03  0.60371809624E+03  0.11296478852E+04  0.90529405897E+02 0.  0.
         11    1    3    3    0    0 -0.68426837143E+03 -0.18070875523E+03  0.40171587235E+03  0.81379020666E+03  0.00000000000E+00 0. -1.
        -11    1    3    3    0    0 -0.23624225064E+03 -0.56131752387E+02  0.20200222388E+03  0.31585767850E+03  0.00000000000E+00 0.  1.
         22    1    1    2    0    0  0.92051062206E+03  0.23684050762E+03  0.16231582793E+03  0.96425082804E+03  0.00000000000E+00 0. -1.
<mgrwt>
<rscale>  0 0.19487442E+04</rscale>
<asrwt>0</asrwt>
<pdfrwt beam="1">  1        1 0.21999482E+00 0.19487442E+04</pdfrwt>
<pdfrwt beam="2">  1       -1 0.10214345E+00 0.19487442E+04</pdfrwt>
<totfact> 0.61904158E+00</totfact>
</mgrwt>
</event>
<event>
 6    1  0.1603085E-006  0.1406845E+04  0.7818608E-02  0.8948879E-01
          2   -1    0    0  501    0  0.00000000000E+00  0.00000000000E+00  0.15228243898E+04  0.15228243898E+04  0.00000000000E+00 0. -1.
         -2   -1    0    0    0  501 -0.00000000000E+00 -0.00000000000E+00 -0.32492464532E+03  0.32492464532E+03  0.00000000000E+00 0.  1.
         23    2    1    2    0    0 -0.12713903865E+03  0.60817088291E+03  0.17710055884E+03  0.65273140539E+03  0.93045804180E+02 0.  0.
         11    1    3    3    0    0 -0.15481251811E+02  0.19944801175E+03  0.20821027205E+02  0.20112855024E+03  0.00000000000E+00 0.  1.
        -11    1    3    3    0    0 -0.11165778684E+03  0.40872287116E+03  0.15627953164E+03  0.45160285515E+03  0.00000000000E+00 0. -1.
         22    1    1    2    0    0  0.12713903865E+03 -0.60817088291E+03  0.10207991856E+04  0.11950176297E+04  0.00000000000E+00 0. -1.
<mgrwt>
<rscale>  0 0.14068449E+04</rscale>
<asrwt>0</asrwt>
<pdfrwt beam="1">  1        2 0.23428067E+00 0.14068449E+04</pdfrwt>
<pdfrwt beam="2">  1       -2 0.49988408E-01 0.14068449E+04</pdfrwt>
<totfact> 0.45376611E+01</totfact>
</mgrwt>
</event>
<event>
 6    1  0.1603085E-006  0.2862773E+04  0.7818608E-02  0.8284040E-01
          1   -1    0    0  501    0  0.00000000000E+00  0.00000000000E+00  0.16884088657E+04  0.16884088657E+04  0.00000000000E+00 0. -1.
         -1   -1    0    0    0  501 -0.00000000000E+00 -0.00000000000E+00 -0.12134901239E+04  0.12134901239E+04  0.00000000000E+00 0.  1.
         23    2    1    2    0    0 -0.67852841780E+03  0.43223389006E+03  0.14360500208E+04  0.16485034874E+04  0.89984088516E+02 0.  0.
         11    1    3    3    0    0 -0.27181485967E+03  0.22146585473E+03  0.58593722836E+03  0.68282712185E+03  0.00000000000E+00 0.  1.
        -11    1    3    3    0    0 -0.40671355813E+03  0.21076803533E+03  0.85011279242E+03  0.96567636552E+03  0.00000000000E+00 0. -1.
         22    1    1    2    0    0  0.67852841780E+03 -0.43223389006E+03 -0.96113127903E+03  0.12533955022E+04  0.00000000000E+00 0.  1.
<mgrwt>
<rscale>  0 0.28627731E+04</rscale>
<asrwt>0</asrwt>
<pdfrwt beam="1">  1        1 0.25975521E+00 0.28627731E+04</pdfrwt>
<pdfrwt beam="2">  1       -1 0.18669079E+00 0.28627731E+04</pdfrwt>
<totfact> 0.77931114E-01</totfact>
</mgrwt>
</event>
<event>
 6    1  0.1603085E-006  0.2559339E+04  0.7818608E-02  0.8382145E-01
          2   -1    0    0  501    0  0.00000000000E+00  0.00000000000E+00  0.22491707133E+04  0.22491707133E+04  0.00000000000E+00 0. -1.
         -2   -1    0    0    0  501 -0.00000000000E+00 -0.00000000000E+00 -0.72807039994E+03  0.72807039994E+03  0.00000000000E+00 0.  1.
         23    2    1    2    0    0 -0.97063282928E+03 -0.38683363997E+03 -0.95353637075E+02  0.10524835368E+04  0.82830699423E+02 0.  0.
         11    1    3    3    0    0 -0.61933522627E+03 -0.27790506549E+03 -0.34668182648E+02  0.67971260898E+03  0.00000000000E+00 0. -1.
        -11    1    3    3    0    0 -0.35129760302E+03 -0.10892857448E+03 -0.60685454427E+02  0.37277092779E+03  0.00000000000E+00 0.  1.
         22    1    1    2    0    0  0.97063282928E+03  0.38683363997E+03  0.16164539504E+04  0.19247575765E+04  0.00000000000E+00 0. -1.
<mgrwt>
<rscale>  0 0.25593395E+04</rscale>
<asrwt>0</asrwt>
<pdfrwt beam="1">  1        2 0.34602626E+00 0.25593395E+04</pdfrwt>
<pdfrwt beam="2">  1       -2 0.11201083E+00 0.25593395E+04</pdfrwt>
<totfact> 0.27029549E+00</totfact>
</mgrwt>
</event>
<event>
 6    1  0.1603085E-006  0.3114783E+04  0.7818608E-02  0.8211693E-01
         -1   -1    0    0    0  501 -0.00000000000E+00  0.00000000000E+00  0.12145477144E+04  0.12145477144E+04  0.00000000000E+00 0.  1.
          1   -1    0    0  501    0  0.00000000000E+00 -0.00000000000E+00 -0.19970129875E+04  0.19970129875E+04  0.00000000000E+00 0. -1.
         23    2    1    2    0    0  0.10266882828E+04 -0.65699433765E+03  0.60584207331E+03  0.13640954984E+04  0.89339359896E+02 0.  0.
         13    1    3    3    0    0  0.68826042816E+03 -0.43142985565E+03  0.44945207895E+03  0.92835408578E+03  0.00000000000E+00 0. -1.
        -13    1    3    3    0    0  0.33842785466E+03 -0.22556448200E+03  0.15638999436E+03  0.43574141264E+03  0.00000000000E+00 0.  1.
         22    1    1    2    0    0 -0.10266882828E+04  0.65699433765E+03 -0.13883073465E+04  0.18474652035E+04  0.00000000000E+00 0. -1.
<mgrwt>
<rscale>  0 0.31147825E+04</rscale>
<asrwt>0</asrwt>
<pdfrwt beam="1">  1        1 0.30723277E+00 0.31147825E+04</pdfrwt>
<pdfrwt beam="2">  1       -1 0.18685350E+00 0.31147825E+04</pdfrwt>
<totfact> 0.46921466E-01</totfact>
</mgrwt>
</event>
<event>
 6    1  0.1603085E-006  0.3270819E+04  0.7818608E-02  0.8170360E-01
          2   -1    0    0  501    0  0.00000000000E+00  0.00000000000E+00  0.28438968789E+04  0.28438968789E+04  0.00000000000E+00 0. -1.
         -2   -1    0    0    0  501 -0.00000000000E+00 -0.00000000000E+00 -0.94045771307E+03  0.94045771307E+03  0.00000000000E+00 0.  1.
         23    2    1    2    0    0  0.76218008690E+03 -0.45013477103E+03 -0.63721225583E+03  0.10939179279E+04  0.84125959402E+02 0.  0.
         11    1    3    3    0    0  0.18537993377E+03 -0.69608263761E+02 -0.14993790615E+03  0.24837956021E+03  0.00000000000E+00 0.  1.
        -11    1    3    3    0    0  0.57680015313E+03 -0.38052650727E+03 -0.48727434968E+03  0.84553836769E+03  0.00000000000E+00 0. -1.
         22    1    1    2    0    0 -0.76218008690E+03  0.45013477103E+03  0.25406514216E+04  0.26904366640E+04  0.00000000000E+00 0. -1.
<mgrwt>
<rscale>  0 0.32708193E+04</rscale>
<asrwt>0</asrwt>
<pdfrwt beam="1">  1        2 0.43752259E+00 0.32708193E+04</pdfrwt>
<pdfrwt beam="2">  1       -2 0.14468580E+00 0.32708193E+04</pdfrwt>
<totfact> 0.59965139E-01</totfact>
</mgrwt>
</event>
<event>
 6    1  0.1684503E-006  0.2612674E+04  0.7818608E-02  0.8363909E-01
          2   -1    0    0  501    0  0.00000000000E+00  0.00000000000E+00  0.25190867489E+04  0.25190867489E+04  0.00000000000E+00 0.  1.
         -2   -1    0    0    0  501 -0.00000000000E+00 -0.00000000000E+00 -0.67743457983E+03  0.67743457983E+03  0.00000000000E+00 0. -1.
         23    2    1    2    0    0 -0.79779360427E+03  0.94455197384E+03  0.14318020985E+04  0.18939737685E+04  0.91794990814E+02 0.  0.
         11    1    3    3    0    0 -0.35007541874E+03  0.39823343709E+03  0.54693951244E+03  0.76176472713E+03  0.00000000000E+00 0.  1.
        -11    1    3    3    0    0 -0.44771818553E+03  0.54631853675E+03  0.88486258603E+03  0.11322090414E+04  0.00000000000E+00 0. -1.
         22    1    1    2    0    0  0.79779360427E+03 -0.94455197384E+03  0.40985007063E+03  0.13025475602E+04  0.00000000000E+00 0. -1.
<mgrwt>
<rscale>  0 0.26126741E+04</rscale>
<asrwt>0</asrwt>
<pdfrwt beam="1">  1        2 0.38755180E+00 0.26126741E+04</pdfrwt>
<pdfrwt beam="2">  1       -2 0.10422071E+00 0.26126741E+04</pdfrwt>
<totfact> 0.22434288E+00</totfact>
</mgrwt>
</event>
<event>
 6    1  0.1603085E-006  0.2662574E+04  0.7818608E-02  0.8347252E-01
          1   -1    0    0  501    0  0.00000000000E+00  0.00000000000E+00  0.53382588873E+03  0.53382588873E+03  0.00000000000E+00 0. -1.
         -1   -1    0    0    0  501 -0.00000000000E+00 -0.00000000000E+00 -0.33200434020E+04  0.33200434020E+04  0.00000000000E+00 0.  1.
         23    2    1    2    0    0 -0.11661861310E+04  0.36761064405E+03 -0.21512174858E+04  0.24760620790E+04  0.89549259490E+02 0.  0.
         13    1    3    3    0    0 -0.26700546142E+03  0.47288337261E+02 -0.50029573892E+03  0.56905529577E+03  0.00000000000E+00 0. -1.
        -13    1    3    3    0    0 -0.89918066961E+03  0.32032230679E+03 -0.16509217469E+04  0.19070067832E+04  0.00000000000E+00 0.  1.
         22    1    1    2    0    0  0.11661861310E+04 -0.36761064405E+03 -0.63500002744E+03  0.13778072117E+04  0.00000000000E+00 0. -1.
<mgrwt>
<rscale>  0 0.26625740E+04</rscale>
<asrwt>0</asrwt>
<pdfrwt beam="1">  1        1 0.82127059E-01 0.26625740E+04</pdfrwt>
<pdfrwt beam="2">  1       -1 0.51077591E+00 0.26625740E+04</pdfrwt>
<totfact> 0.44872419E-02</totfact>
</mgrwt>
</event>
<event>
 6    1  0.1603085E-006  0.2250228E+04  0.7818608E-02  0.8497808E-01
          2   -1    0    0  501    0  0.00000000000E+00  0.00000000000E+00  0.32985771171E+04  0.32985771171E+04  0.00000000000E+00 0. -1.
         -2   -1    0    0    0  501 -0.00000000000E+00 -0.00000000000E+00 -0.38376590230E+03  0.38376590230E+03  0.00000000000E+00 0.  1.
         23    2    1    2    0    0  0.11106154250E+04 -0.21276842590E+01  0.17378722675E+04  0.20641166957E+04  0.83105750816E+02 0.  0.
         11    1    3    3    0    0  0.64311069237E+03  0.37313842761E+02  0.97936948056E+03  0.11722407027E+04  0.00000000000E+00 0. -1.
        -11    1    3    3    0    0  0.46750473261E+03 -0.39441527020E+02  0.75850278699E+03  0.89187599303E+03  0.00000000000E+00 0.  1.
         22    1    1    2    0    0 -0.11106154250E+04  0.21276842590E+01  0.11769389473E+04  0.16182263238E+04  0.00000000000E+00 0. -1.
<mgrwt>
<rscale>  0 0.22502279E+04</rscale>
<asrwt>0</asrwt>
<pdfrwt beam="1">  1        2 0.50747338E+00 0.22502279E+04</pdfrwt>
<pdfrwt beam="2">  1       -2 0.59040910E-01 0.22502279E+04</pdfrwt>
<totfact> 0.27286954E+00</totfact>
</mgrwt>
</event>
<event>
 6    1  0.1603085E-006  0.2852261E+04  0.7818608E-02  0.8287225E-01
          2   -1    0    0  501    0  0.00000000000E+00  0.00000000000E+00  0.43461526927E+04  0.43461526927E+04  0.00000000000E+00 0. -1.
         -2   -1    0    0    0  501 -0.00000000000E+00 -0.00000000000E+00 -0.46796508290E+03  0.46796508290E+03  0.00000000000E+00 0.  1.
         23    2    1    2    0    0 -0.86552285536E+03  0.99022923476E+03  0.10166442593E+04  0.16648140276E+04  0.91413598120E+02 0.  0.
         13    1    3    3    0    0 -0.33272877244E+03  0.31461919437E+03  0.35060426239E+03  0.57672959199E+03  0.00000000000E+00 0.  1.
        -13    1    3    3    0    0 -0.53279408292E+03  0.67561004040E+03  0.66603999694E+03  0.10880844356E+04  0.00000000000E+00 0. -1.
         22    1    1    2    0    0  0.86552285536E+03 -0.99022923476E+03  0.28615433504E+04  0.31493037480E+04  0.00000000000E+00 0. -1.
<mgrwt>
<rscale>  0 0.28522607E+04</rscale>
<asrwt>0</asrwt>
<pdfrwt beam="1">  1        2 0.66863885E+00 0.28522607E+04</pdfrwt>
<pdfrwt beam="2">  1       -2 0.71994631E-01 0.28522607E+04</pdfrwt>
<totfact> 0.26096589E-01</totfact>
</mgrwt>
</event>
<event>
 6    1  0.1603085E-006  0.3324067E+04  0.7818608E-02  0.8156798E-01
         -2   -1    0    0    0  501 -0.00000000000E+00  0.00000000000E+00  0.99078314371E+03  0.99078314371E+03  0.00000000000E+00 0.  1.
          2   -1    0    0  501    0  0.00000000000E+00 -0.00000000000E+00 -0.27880524147E+04  0.27880524147E+04  0.00000000000E+00 0. -1.
         23    2    1    2    0    0  0.35611547669E+03  0.23760821458E+03 -0.27234711875E+04  0.27584797937E+04  0.92949270359E+02 0.  0.
         13    1    3    3    0    0  0.21473746129E+03  0.17408775170E+03 -0.19635335139E+04  0.19828975220E+04  0.00000000000E+00 0. -1.
        -13    1    3    3    0    0  0.14137801541E+03  0.63520462880E+02 -0.75993767362E+03  0.77558227174E+03  0.00000000000E+00 0.  1.
         22    1    1    2    0    0 -0.35611547669E+03 -0.23760821458E+03  0.92620191651E+03  0.10203557647E+04  0.00000000000E+00 0.  1.
<mgrwt>
<rscale>  0 0.33240670E+04</rscale>
<asrwt>0</asrwt>
<pdfrwt beam="1">  1        2 0.42893114E+00 0.33240670E+04</pdfrwt>
<pdfrwt beam="2">  1       -2 0.15242818E+00 0.33240670E+04</pdfrwt>
<totfact> 0.56241180E-01</totfact>
</mgrwt>
</event>
<event>
 6    1  0.1603085E-006  0.1154311E+04  0.7818608E-02  0.9153816E-01
         -1   -1    0    0    0  501 -0.00000000000E+00  0.00000000000E+00  0.15667367130E+04  0.15667367130E+04  0.00000000000E+00 0.  1.
          1   -1    0    0  501    0  0.00000000000E+00 -0.00000000000E+00 -0.21261279977E+03  0.21261279977E+03  0.00000000000E+00 0. -1.
         23    2    1    2    0    0  0.22297569559E+03  0.33625232410E+03  0.13096594881E+04  0.13734420462E+04  0.91385411038E+02 0.  0.
         13    1    3    3    0    0  0.12982547259E+03  0.17537610892E+03  0.85130613026E+03  0.87882510224E+03  0.00000000000E+00 0. -1.
        -13    1    3    3    0    0  0.93150222999E+02  0.16087621518E+03  0.45835335782E+03  0.49461694399E+03  0.00000000000E+00 0.  1.
         22    1    1    2    0    0 -0.22297569559E+03 -0.33625232410E+03  0.44464425148E+02  0.40590746653E+03  0.00000000000E+00 0. -1.
<mgrwt>
<rscale>  0 0.11543107E+04</rscale>
<asrwt>0</asrwt>
<pdfrwt beam="1">  1        1 0.32709663E-01 0.11543107E+04</pdfrwt>
<pdfrwt beam="2">  1       -1 0.24103641E+00 0.11543107E+04</pdfrwt>
<totfact> 0.10911739E+01</totfact>
</mgrwt>
</event>
<event>
 6    1  0.1603085E-006  0.3449670E+04  0.7818608E-02  0.8125822E-01
         -1   -1    0    0    0  501 -0.00000000000E+00  0.00000000000E+00  0.91500101630E+03  0.91500101630E+03  0.00000000000E+00 0. -1.
          1   -1    0    0  501    0  0.00000000000E+00 -0.00000000000E+00 -0.32514230548E+04  0.32514230548E+04  0.00000000000E+00 0.  1.
         23    2    1    2    0    0  0.14226280543E+04  0.97271585052E+03 -0.11348016818E+04  0.20654866164E+04  0.91724582598E+02 0.  0.
         11    1    3    3    0    0  0.18992976624E+03  0.97859685694E+02 -0.15828972034E+03  0.26590500137E+03  0.00000000000E+00 0.  1.
        -11    1    3    3    0    0  0.12326982881E+04  0.87485616482E+03 -0.97651196142E+03  0.17995816151E+04  0.00000000000E+00 0. -1.
         22    1    1    2    0    0 -0.14226280543E+04 -0.97271585052E+03 -0.12016203568E+04  0.21009374547E+04  0.00000000000E+00 0. -1.
<mgrwt>
<rscale>  0 0.34496698E+04</rscale>
<asrwt>0</asrwt>
<pdfrwt beam="1">  1        1 0.50021893E+00 0.34496698E+04</pdfrwt>
<pdfrwt beam="2">  1       -1 0.14076939E+00 0.34496698E+04</pdfrwt>
<totfact> 0.13146068E-01</totfact>
</mgrwt>
</event>
<event>
 6    1  0.1603085E-006  0.8300651E+03  0.7818608E-02  0.9517491E-01
          2   -1    0    0  501    0  0.00000000000E+00  0.00000000000E+00  0.45355498319E+03  0.45355498319E+03  0.00000000000E+00 0. -1.
         -2   -1    0    0    0  501 -0.00000000000E+00 -0.00000000000E+00 -0.37978197116E+03  0.37978197116E+03  0.00000000000E+00 0.  1.
         23    2    1    2    0    0  0.32548134033E+03 -0.20937356736E+02  0.28671074413E+03  0.44382578177E+03  0.91661322010E+02 0.  0.
         13    1    3    3    0    0  0.31465094562E+03 -0.72559287096E+01  0.28760961090E+03  0.42635332105E+03  0.00000000000E+00 0. -1.
        -13    1    3    3    0    0  0.10830394712E+02 -0.13681428026E+02 -0.89886676913E+00  0.17472460729E+02  0.00000000000E+00 0.  1.
         22    1    1    2    0    0 -0.32548134033E+03  0.20937356736E+02 -0.21293773210E+03  0.38951117258E+03  0.00000000000E+00 0.  1.
<mgrwt>
<rscale>  0 0.83006507E+03</rscale>
<asrwt>0</asrwt>
<pdfrwt beam="1">  1        2 0.69777690E-01 0.83006507E+03</pdfrwt>
<pdfrwt beam="2">  1       -2 0.58427995E-01 0.83006507E+03</pdfrwt>
<totfact> 0.19004704E+02</totfact>
</mgrwt>
</event>
<event>
 6    1  0.1603085E-006  0.3712655E+04  0.7818608E-02  0.8065163E-01
          2   -1    0    0  501    0  0.00000000000E+00  0.00000000000E+00  0.35456385600E+04  0.35456385600E+04  0.00000000000E+00 0. -1.
         -2   -1    0    0    0  501 -0.00000000000E+00 -0.00000000000E+00 -0.97188450178E+03  0.97188450178E+03  0.00000000000E+00 0.  1.
         23    2    1    2    0    0  0.15077466548E+04 -0.91618214985E+03  0.58973318717E+03  0.18625223982E+04  0.92275375975E+02 0.  0.
         13    1    3    3    0    0  0.21191190435E+03 -0.92439556821E+02  0.78430712619E+02  0.24413746856E+03  0.00000000000E+00 0. -1.
        -13    1    3    3    0    0  0.12958347504E+04 -0.82374259303E+03  0.51130247455E+03  0.16183849296E+04  0.00000000000E+00 0.  1.
         22    1    1    2    0    0 -0.15077466548E+04  0.91618214985E+03  0.19840208710E+04  0.26550006636E+04  0.00000000000E+00 0. -1.
<mgrwt>
<rscale>  0 0.37126547E+04</rscale>
<asrwt>0</asrwt>
<pdfrwt beam="1">  1        2 0.54548285E+00 0.37126547E+04</pdfrwt>
<pdfrwt beam="2">  1       -2 0.14952069E+00 0.37126547E+04</pdfrwt>
<totfact> 0.18388223E-01</totfact>
</mgrwt>
</event>
<event>
 6    1  0.1603085E-006  0.2522000E+04  0.7818608E-02  0.8395190E-01
         -3   -1    0    0    0  501 -0.00000000000E+00  0.00000000000E+00  0.18058112468E+04  0.18058112468E+04  0.00000000000E+00 0.  1.
          3   -1    0    0  501    0  0.00000000000E+00 -0.00000000000E+00 -0.88055737641E+03  0.88055737641E+03  0.00000000000E+00 0. -1.
         23    2    1    2    0    0 -0.89505171160E+03  0.97009783955E+02  0.14011664374E+04  0.16680262269E+04  0.92280244878E+02 0.  0.
         13    1    3    3    0    0 -0.32038395520E+03  0.21520811511E+02  0.42360545238E+03  0.53155489214E+03  0.00000000000E+00 0. -1.
        -13    1    3    3    0    0 -0.57466775640E+03  0.75488972444E+02  0.97756098504E+03  0.11364713347E+04  0.00000000000E+00 0.  1.
         22    1    1    2    0    0  0.89505171160E+03 -0.97009783955E+02 -0.47591256706E+03  0.10183423963E+04  0.00000000000E+00 0. -1.
<mgrwt>
<rscale>  0 0.25219995E+04</rscale>
<asrwt>0</asrwt>
<pdfrwt beam="1">  1        3 0.13547037E+00 0.25219995E+04</pdfrwt>
<pdfrwt beam="2">  1       -3 0.27781711E+00 0.25219995E+04</pdfrwt>
<totfact> 0.49291174E-02</totfact>
</mgrwt>
</event>
<event>
 6    1  0.1603085E-006  0.2822764E+04  0.7818608E-02  0.8296236E-01
          2   -1    0    0  501    0  0.00000000000E+00  0.00000000000E+00  0.11750550598E+04  0.11750550598E+04  0.00000000000E+00 0. -1.
         -2   -1    0    0    0  501 -0.00000000000E+00 -0.00000000000E+00 -0.16952386301E+04  0.16952386301E+04  0.00000000000E+00 0.  1.
         23    2    1    2    0    0 -0.46867830738E+03  0.55521583468E+03 -0.14889662989E+04  0.16593172432E+04  0.91592005368E+02 0.  0.
         11    1    3    3    0    0 -0.29985428548E+03  0.41581123931E+03 -0.10085740205E+04  0.11313854932E+04  0.00000000000E+00 0. -1.
        -11    1    3    3    0    0 -0.16882402191E+03  0.13940459537E+03 -0.48039227839E+03  0.52793175006E+03  0.00000000000E+00 0.  1.
         22    1    1    2    0    0  0.46867830738E+03 -0.55521583468E+03  0.96878272865E+03  0.12109764466E+04  0.00000000000E+00 0. -1.
<mgrwt>
<rscale>  0 0.28227637E+04</rscale>
<asrwt>0</asrwt>
<pdfrwt beam="1">  1        2 0.18077770E+00 0.28227637E+04</pdfrwt>
<pdfrwt beam="2">  1       -2 0.26080594E+00 0.28227637E+04</pdfrwt>
<totfact> 0.93930845E-01</totfact>
</mgrwt>
</event>
<event>
 6    1  0.1603085E-006  0.2810675E+04  0.7818608E-02  0.8299962E-01
          1   -1    0    0  501    0  0.00000000000E+00  0.00000000000E+00  0.79444469906E+03  0.79444469906E+03  0.00000000000E+00 0. -1.
         -1   -1    0    0    0  501 -0.00000000000E+00 -0.00000000000E+00 -0.24859792968E+04  0.24859792968E+04  0.00000000000E+00 0.  1.
         23    2    1    2    0    0 -0.12392140086E+04 -0.18542564298E+02 -0.16163583335E+04  0.20387933516E+04  0.89826958723E+02 0.  0.
         11    1    3    3    0    0 -0.67413051674E+03 -0.47347262811E+02 -0.83901338578E+03  0.10773287235E+04  0.00000000000E+00 0. -1.
        -11    1    3    3    0    0 -0.56508349190E+03  0.28804698513E+02 -0.77734494774E+03  0.96146462818E+03  0.00000000000E+00 0.  1.
         22    1    1    2    0    0  0.12392140086E+04  0.18542564298E+02 -0.75176264200E+02  0.12416306442E+04  0.00000000000E+00 0. -1.
<mgrwt>
<rscale>  0 0.28106747E+04</rscale>
<asrwt>0</asrwt>
<pdfrwt beam="1">  1        1 0.12222227E+00 0.28106747E+04</pdfrwt>
<pdfrwt beam="2">  1       -1 0.38245834E+00 0.28106747E+04</pdfrwt>
<totfact> 0.18204128E-01</totfact>
</mgrwt>
</event>
<event>
 6    1  0.1603085E-006  0.2363955E+04  0.7818608E-02  0.8453123E-01
         -2   -1    0    0    0  501 -0.00000000000E+00  0.00000000000E+00  0.23922674832E+04  0.23922674832E+04  0.00000000000E+00 0.  1.
          2   -1    0    0  501    0  0.00000000000E+00 -0.00000000000E+00 -0.58399427751E+03  0.58399427751E+03  0.00000000000E+00 0. -1.
         23    2    1    2    0    0 -0.58118792455E+03 -0.45389980041E+03 -0.25460424960E+03  0.78553863169E+03  0.91886808109E+02 0.  0.
         11    1    3    3    0    0 -0.19481171935E+03 -0.16419815426E+03 -0.43391898662E+02  0.25844824768E+03  0.00000000000E+00 0. -1.
        -11    1    3    3    0    0 -0.38637620520E+03 -0.28970164615E+03 -0.21121235094E+03  0.52709038401E+03  0.00000000000E+00 0.  1.
         22    1    1    2    0    0  0.58118792455E+03  0.45389980041E+03  0.20628774553E+04  0.21907231290E+04  0.00000000000E+00 0.  1.
<mgrwt>
<rscale>  0 0.23639548E+04</rscale>
<asrwt>0</asrwt>
<pdfrwt beam="1">  1        2 0.89845275E-01 0.23639548E+04</pdfrwt>
<pdfrwt beam="2">  1       -2 0.36804115E+00 0.23639548E+04</pdfrwt>
<totfact> 0.55279868E-01</totfact>
</mgrwt>
</event>
<event>
 6    1  0.1603085E-006  0.1854066E+04  0.7818608E-02  0.8678064E-01
         -2   -1    0    0    0  501 -0.00000000000E+00  0.00000000000E+00  0.86256044411E+03  0.86256044411E+03  0.00000000000E+00 0.  1.
          2   -1    0    0  501    0  0.00000000000E+00 -0.00000000000E+00 -0.99632491718E+03  0.99632491718E+03  0.00000000000E+00 0. -1.
         23    2    1    2    0    0  0.20759911560E+03 -0.18825595047E+01 -0.97167712641E+03  0.99563652611E+03  0.63519424604E+02 0.  0.
         13    1    3    3    0    0  0.14832012644E+03 -0.22358233367E+02 -0.58593581993E+03  0.60483017086E+03  0.00000000000E+00 0.  1.
        -13    1    3    3    0    0  0.59278989158E+02  0.20475673862E+02 -0.38574130648E+03  0.39080635525E+03  0.00000000000E+00 0. -1.
         22    1    1    2    0    0 -0.20759911560E+03  0.18825595047E+01  0.83791265334E+03  0.86324883519E+03  0.00000000000E+00 0.  1.
<mgrwt>
<rscale>  0 0.18540663E+04</rscale>
<asrwt>0</asrwt>
<pdfrwt beam="1">  1        2 0.15328076E+00 0.18540663E+04</pdfrwt>
<pdfrwt beam="2">  1       -2 0.13270161E+00 0.18540663E+04</pdfrwt>
<totfact> 0.98126958E+00</totfact>
</mgrwt>
</event>
<event>
 6    1  0.1603085E-006  0.2745363E+04  0.7818608E-02  0.8320435E-01
          2   -1    0    0  501    0  0.00000000000E+00  0.00000000000E+00  0.43663404716E+04  0.43663404716E+04  0.00000000000E+00 0. -1.
         -2   -1    0    0    0  501 -0.00000000000E+00 -0.00000000000E+00 -0.43154083582E+03  0.43154083582E+03  0.00000000000E+00 0.  1.
         23    2    1    2    0    0 -0.72251694128E+03 -0.11648053797E+04  0.20222563314E+04  0.24448780788E+04  0.95424561910E+02 0.  0.
         11    1    3    3    0    0 -0.13612051536E+03 -0.19459863073E+03  0.41299489135E+03  0.47640550171E+03  0.00000000000E+00 0. -1.
        -11    1    3    3    0    0 -0.58639642592E+03 -0.97020674897E+03  0.16092614401E+04  0.19684725770E+04  0.00000000000E+00 0.  1.
         22    1    1    2    0    0  0.72251694128E+03  0.11648053797E+04  0.19125433044E+04  0.23530032287E+04  0.00000000000E+00 0.  1.
<mgrwt>
<rscale>  0 0.27453628E+04</rscale>
<asrwt>0</asrwt>
<pdfrwt beam="1">  1        2 0.67174466E+00 0.27453628E+04</pdfrwt>
<pdfrwt beam="2">  1       -2 0.66390901E-01 0.27453628E+04</pdfrwt>
<totfact> 0.30131364E-01</totfact>
</mgrwt>
</event>
<event>
 6    1  0.1603085E-006  0.2465051E+04  0.7818608E-02  0.8415543E-01
          1   -1    0    0  501    0  0.00000000000E+00  0.00000000000E+00  0.13705251164E+04  0.13705251164E+04  0.00000000000E+00 0.  1.
         -1   -1    0    0    0  501 -0.00000000000E+00 -0.00000000000E+00 -0.11084213471E+04  0.11084213471E+04  0.00000000000E+00 0. -1.
         23    2    1    2    0    0  0.34296919503E+03 -0.55318940622E+03 -0.91938021176E+03  0.11300392075E+04  0.89901327788E+02 0.  0.
         13    1    3    3    0    0  0.17100646207E+03 -0.19738911196E+03 -0.34012392260E+03  0.42882391994E+03  0.00000000000E+00 0. -1.
        -13    1    3    3    0    0  0.17196273296E+03 -0.35580029426E+03 -0.57925628917E+03  0.70121528753E+03  0.00000000000E+00 0.  1.
         22    1    1    2    0    0 -0.34296919503E+03  0.55318940622E+03  0.11814839810E+04  0.13489072560E+04  0.00000000000E+00 0.  1.
<mgrwt>
<rscale>  0 0.24650512E+04</rscale>
<asrwt>0</asrwt>
<pdfrwt beam="1">  1        1 0.21085002E+00 0.24650512E+04</pdfrwt>
<pdfrwt beam="2">  1       -1 0.17052636E+00 0.24650512E+04</pdfrwt>
<totfact> 0.17515622E+00</totfact>
</mgrwt>
</event>
<event>
 6    1  0.1603085E-006  0.2488262E+04  0.7818608E-02  0.8407179E-01
          2   -1    0    0  501    0  0.00000000000E+00  0.00000000000E+00  0.15567373509E+04  0.15567373509E+04  0.00000000000E+00 0. -1.
         -2   -1    0    0    0  501 -0.00000000000E+00 -0.00000000000E+00 -0.99429900072E+03  0.99429900072E+03  0.00000000000E+00 0.  1.
         23    2    1    2    0    0  0.11973110358E+04  0.82206933144E+02 -0.47890469113E+02  0.12046289229E+04  0.92334439334E+02 0.  0.
         11    1    3    3    0    0  0.25828838811E+03  0.33690807594E+02  0.24176833040E+02  0.26159602674E+03  0.00000000000E+00 0.  1.
        -11    1    3    3    0    0  0.93902264768E+03  0.48516125551E+02 -0.72067302153E+02  0.94303289621E+03  0.00000000000E+00 0. -1.
         22    1    1    2    0    0 -0.11973110358E+04 -0.82206933144E+02  0.61032881927E+03  0.13464074286E+04  0.00000000000E+00 0. -1.
<mgrwt>
<rscale>  0 0.24882624E+04</rscale>
<asrwt>0</asrwt>
<pdfrwt beam="1">  1        2 0.23949805E+00 0.24882624E+04</pdfrwt>
<pdfrwt beam="2">  1       -2 0.15296908E+00 0.24882624E+04</pdfrwt>
<totfact> 0.29945028E+00</totfact>
</mgrwt>
</event>
<event>
 6    1  0.1603085E-006  0.4479537E+04  0.7818608E-02  0.7914229E-01
         -2   -1    0    0    0  501 -0.00000000000E+00  0.00000000000E+00  0.12512742761E+04  0.12512742761E+04  0.00000000000E+00 0. -1.
          2   -1    0    0  501    0  0.00000000000E+00 -0.00000000000E+00 -0.40091630312E+04  0.40091630312E+04  0.00000000000E+00 0.  1.
         23    2    1    2    0    0  0.95274272914E+03 -0.14230970034E+04  0.31386386704E+03  0.17435369731E+04  0.92124159331E+02 0.  0.
         13    1    3    3    0    0  0.46550068912E+03 -0.77789889269E+03  0.16788244562E+03  0.92195558156E+03  0.00000000000E+00 0. -1.
        -13    1    3    3    0    0  0.48724204002E+03 -0.64519811067E+03  0.14598142142E+03  0.82158139157E+03  0.00000000000E+00 0.  1.
         22    1    1    2    0    0 -0.95274272914E+03  0.14230970034E+04 -0.30717526221E+04  0.35169003341E+04  0.00000000000E+00 0.  1.
<mgrwt>
<rscale>  0 0.44795368E+04</rscale>
<asrwt>0</asrwt>
<pdfrwt beam="1">  1        2 0.61679432E+00 0.44795368E+04</pdfrwt>
<pdfrwt beam="2">  1       -2 0.19250373E+00 0.44795368E+04</pdfrwt>
<totfact> 0.37903115E-02</totfact>
</mgrwt>
</event>
<event>
 6    1  0.1603085E-006  0.6834533E+04  0.7818608E-02  0.7594745E-01
          2   -1    0    0  501    0  0.00000000000E+00  0.00000000000E+00  0.45297920494E+04  0.45297920494E+04  0.00000000000E+00 0. -1.
         -2   -1    0    0    0  501 -0.00000000000E+00 -0.00000000000E+00 -0.25779795256E+04  0.25779795256E+04  0.00000000000E+00 0.  1.
         23    2    1    2    0    0 -0.16912585270E+04  0.12401107553E+04  0.37811619832E+04  0.43248325648E+04  0.93598501453E+02 0.  0.
         11    1    3    3    0    0 -0.74562344546E+03  0.58192333440E+03  0.16288236001E+04  0.18835220757E+04  0.00000000000E+00 0.  1.
        -11    1    3    3    0    0 -0.94563508155E+03  0.65818742092E+03  0.21523383831E+04  0.24413104890E+04  0.00000000000E+00 0. -1.
         22    1    1    2    0    0  0.16912585270E+04 -0.12401107553E+04 -0.18293494593E+04  0.27829390103E+04  0.00000000000E+00 0.  1.
<mgrwt>
<rscale>  0 0.68345332E+04</rscale>
<asrwt>0</asrwt>
<pdfrwt beam="1">  1        2 0.69689108E+00 0.68345332E+04</pdfrwt>
<pdfrwt beam="2">  1       -2 0.39661223E+00 0.68345332E+04</pdfrwt>
<totfact> 0.56043046E-04</totfact>
</mgrwt>
</event>
<event>
 6    1  0.1603085E-006  0.1999796E+04  0.7818608E-02  0.8606716E-01
         -1   -1    0    0    0  501 -0.00000000000E+00  0.00000000000E+00  0.82301074905E+03  0.82301074905E+03  0.00000000000E+00 0.  1.
          1   -1    0    0  501    0  0.00000000000E+00 -0.00000000000E+00 -0.12148025121E+04  0.12148025121E+04  0.00000000000E+00 0. -1.
         23    2    1    2    0    0  0.85254141923E+03 -0.27906254123E+03  0.24909916560E+03  0.93534151282E+03  0.90058746843E+02 0.  0.
         13    1    3    3    0    0  0.40912613173E+03 -0.17727050923E+03  0.14214387748E+03  0.46798921677E+03  0.00000000000E+00 0.  1.
        -13    1    3    3    0    0  0.44341528750E+03 -0.10179203200E+03  0.10695528812E+03  0.46735229605E+03  0.00000000000E+00 0. -1.
         22    1    1    2    0    0 -0.85254141923E+03  0.27906254123E+03 -0.64089092860E+03  0.11024717483E+04  0.00000000000E+00 0. -1.
<mgrwt>
<rscale>  0 0.19997955E+04</rscale>
<asrwt>0</asrwt>
<pdfrwt beam="1">  1        1 0.18689269E+00 0.19997955E+04</pdfrwt>
<pdfrwt beam="2">  1       -1 0.12661704E+00 0.19997955E+04</pdfrwt>
<totfact> 0.52404213E+00</totfact>
</mgrwt>
</event>
<event>
 6    1  0.1603085E-006  0.4471354E+04  0.7818608E-02  0.7915671E-01
          2   -1    0    0  501    0  0.00000000000E+00  0.00000000000E+00  0.30088217419E+04  0.30088217419E+04  0.00000000000E+00 0. -1.
         -2   -1    0    0    0  501 -0.00000000000E+00 -0.00000000000E+00 -0.16611989903E+04  0.16611989903E+04  0.00000000000E+00 0.  1.
         23    2    1    2    0    0 -0.11794926947E+04  0.16854252899E+04 -0.23794724476E+03  0.20727349108E+04  0.88032348110E+02 0.  0.
         13    1    3    3    0    0 -0.75275921684E+03  0.11456857781E+04 -0.14779777961E+03  0.13787989427E+04  0.00000000000E+00 0.  1.
        -13    1    3    3    0    0 -0.42673347791E+03  0.53973951177E+03 -0.90149465147E+02  0.69393596808E+03  0.00000000000E+00 0. -1.
         22    1    1    2    0    0  0.11794926947E+04 -0.16854252899E+04  0.15855699963E+04  0.25972858214E+04  0.00000000000E+00 0. -1.
<mgrwt>
<rscale>  0 0.44713540E+04</rscale>
<asrwt>0</asrwt>
<pdfrwt beam="1">  1        2 0.46289565E+00 0.44713540E+04</pdfrwt>
<pdfrwt beam="2">  1       -2 0.25556908E+00 0.44713540E+04</pdfrwt>
<totfact> 0.77498384E-02</totfact>
</mgrwt>
</event>
<event>
 6    1  0.1603085E-006  0.1639416E+04  0.7818608E-02  0.8796693E-01
          2   -1    0    0  501    0  0.00000000000E+00  0.00000000000E+00  0.12524738722E+04  0.12524738722E+04  0.00000000000E+00 0. -1.
         -2   -1    0    0    0  501 -0.00000000000E+00 -0.00000000000E+00 -0.53647509387E+03  0.53647509387E+03  0.00000000000E+00 0.  1.
         23    2    1    2    0    0  0.64108391529E+03 -0.50357040122E+03  0.29989625526E+03  0.87368231362E+03  0.93868449350E+02 0.  0.
         11    1    3    3    0    0  0.31437605008E+03 -0.23140985602E+03  0.19181985415E+03  0.43494560438E+03  0.00000000000E+00 0.  1.
        -11    1    3    3    0    0  0.32670786521E+03 -0.27216054520E+03  0.10807640111E+03  0.43873670923E+03  0.00000000000E+00 0. -1.
         22    1    1    2    0    0 -0.64108391529E+03  0.50357040122E+03  0.41610252310E+03  0.91526665249E+03  0.00000000000E+00 0.  1.
<mgrwt>
<rscale>  0 0.16394158E+04</rscale>
<asrwt>0</asrwt>
<pdfrwt beam="1">  1        2 0.19268829E+00 0.16394158E+04</pdfrwt>
<pdfrwt beam="2">  1       -2 0.82534630E-01 0.16394158E+04</pdfrwt>
<totfact> 0.21713812E+01</totfact>
</mgrwt>
</event>
<event>
 6    1  0.1603085E-006  0.1001681E+04  0.7818608E-02  0.9306703E-01
          1   -1    0    0  501    0  0.00000000000E+00  0.00000000000E+00  0.26195646937E+04  0.26195646937E+04  0.00000000000E+00 0. -1.
         -1   -1    0    0    0  501 -0.00000000000E+00 -0.00000000000E+00 -0.95756920881E+02  0.95756920881E+02  0.00000000000E+00 0.  1.
         23    2    1    2    0    0 -0.16296836661E+03  0.14361542898E+03  0.24833822290E+04  0.24943729678E+04  0.86747488823E+02 0.  0.
         13    1    3    3    0    0 -0.80998667853E+02  0.12444733874E+03  0.17042484844E+04  0.17107047731E+04  0.00000000000E+00 0. -1.
        -13    1    3    3    0    0 -0.81969698759E+02  0.19168090242E+02  0.77913374468E+03  0.78366819465E+03  0.00000000000E+00 0.  1.
         22    1    1    2    0    0  0.16296836661E+03 -0.14361542898E+03  0.40425543823E+02  0.22094864687E+03  0.00000000000E+00 0.  1.
<mgrwt>
<rscale>  0 0.10016815E+04</rscale>
<asrwt>0</asrwt>
<pdfrwt beam="1">  1        1 0.40300990E+00 0.10016815E+04</pdfrwt>
<pdfrwt beam="2">  1       -1 0.14731836E-01 0.10016815E+04</pdfrwt>
<totfact> 0.38546431E+01</totfact>
</mgrwt>
</event>
<event>
 6    1  0.1603085E-006  0.5749543E+04  0.7818608E-02  0.7722255E-01
          1   -1    0    0  501    0  0.00000000000E+00  0.00000000000E+00  0.29517248428E+04  0.29517248428E+04  0.00000000000E+00 0. -1.
         -1   -1    0    0    0  501 -0.00000000000E+00 -0.00000000000E+00 -0.27998242245E+04  0.27998242245E+04  0.00000000000E+00 0.  1.
         23    2    1    2    0    0  0.40234377722E+03  0.18334138860E+04 -0.21012035286E+04  0.28190134256E+04  0.92159822432E+02 0.  0.
         13    1    3    3    0    0  0.20284076145E+03  0.11194148991E+04 -0.12470185738E+04  0.16879838312E+04  0.00000000000E+00 0. -1.
        -13    1    3    3    0    0  0.19950301576E+03  0.71399898696E+03 -0.85418495475E+03  0.11310295945E+04  0.00000000000E+00 0.  1.
         22    1    1    2    0    0 -0.40234377722E+03 -0.18334138860E+04  0.22531041469E+04  0.29325356416E+04  0.00000000000E+00 0. -1.
<mgrwt>
<rscale>  0 0.57495428E+04</rscale>
<asrwt>0</asrwt>
<pdfrwt beam="1">  1        1 0.45411151E+00 0.57495428E+04</pdfrwt>
<pdfrwt beam="2">  1       -1 0.43074219E+00 0.57495428E+04</pdfrwt>
<totfact> 0.19439945E-03</totfact>
</mgrwt>
</event>
<event>
 6    1  0.1603085E-006  0.9606922E+03  0.7818608E-02  0.9352740E-01
         -1   -1    0    0    0  501 -0.00000000000E+00  0.00000000000E+00  0.14951953993E+03  0.14951953993E+03  0.00000000000E+00 0.  1.
          1   -1    0    0  501    0  0.00000000000E+00 -0.00000000000E+00 -0.15431588329E+04  0.15431588329E+04  0.00000000000E+00 0. -1.
         23    2    1    2    0    0 -0.93189669269E+02  0.46673124560E+03 -0.73976239348E+03  0.88392787375E+03  0.86935131535E+02 0.  0.
         11    1    3    3    0    0 -0.64756861748E+02  0.13932419333E+03 -0.26937559070E+03  0.31010948204E+03  0.00000000000E+00 0.  1.
        -11    1    3    3    0    0 -0.28432807520E+02  0.32740705227E+03 -0.47038680279E+03  0.57381839170E+03  0.00000000000E+00 0. -1.
         22    1    1    2    0    0  0.93189669269E+02 -0.46673124560E+03 -0.65387689949E+03  0.80875049908E+03  0.00000000000E+00 0. -1.
<mgrwt>
<rscale>  0 0.96069225E+03</rscale>
<asrwt>0</asrwt>
<pdfrwt beam="1">  1        1 0.23740906E+00 0.96069225E+03</pdfrwt>
<pdfrwt beam="2">  1       -1 0.23003005E-01 0.96069225E+03</pdfrwt>
<totfact> 0.99154770E+01</totfact>
</mgrwt>
</event>
<event>
 6    1  0.1603085E-006  0.9037952E+03  0.7818608E-02  0.9420850E-01
         -1   -1    0    0    0  501 -0.00000000000E+00  0.00000000000E+00  0.20539569390E+03  0.20539569390E+03  0.00000000000E+00 0.  1.
          1   -1    0    0  501    0  0.00000000000E+00 -0.00000000000E+00 -0.99423425153E+03  0.99423425153E+03  0.00000000000E+00 0. -1.
         23    2    1    2    0    0  0.42411888734E+03  0.13380980954E+03 -0.46467605410E+03  0.64929984048E+03  0.88794999095E+02 0.  0.
         11    1    3    3    0    0  0.32541632815E+03  0.13136032852E+03 -0.39549714542E+03  0.52874314612E+03  0.00000000000E+00 0.  1.
        -11    1    3    3    0    0  0.98702559194E+02  0.24494810177E+01 -0.69178908684E+02  0.12055669436E+03  0.00000000000E+00 0. -1.
         22    1    1    2    0    0 -0.42411888734E+03 -0.13380980954E+03 -0.32416250352E+03  0.55033010495E+03  0.00000000000E+00 0.  1.
<mgrwt>
<rscale>  0 0.90379518E+03</rscale>
<asrwt>0</asrwt>
<pdfrwt beam="1">  1        1 0.15295912E+00 0.90379518E+03</pdfrwt>
<pdfrwt beam="2">  1       -1 0.31599337E-01 0.90379518E+03</pdfrwt>
<totfact> 0.14321659E+02</totfact>
</mgrwt>
</event>
<event>
 6    1  0.1603085E-006  0.3680931E+04  0.7818608E-02  0.8072201E-01
         -2   -1    0    0    0  501 -0.00000000000E+00  0.00000000000E+00  0.10967656138E+04  0.10967656138E+04  0.00000000000E+00 0.  1.
          2   -1    0    0  501    0  0.00000000000E+00 -0.00000000000E+00 -0.30884567163E+04  0.30884567163E+04  0.00000000000E+00 0. -1.
         23    2    1    2    0    0  0.12074972161E+04  0.86285060746E+03  0.23879012882E+03  0.15061166546E+04  0.93840044109E+02 0.  0.
         11    1    3    3    0    0  0.44220035995E+03  0.37219640590E+03  0.92199928817E+02  0.58529663400E+03  0.00000000000E+00 0. -1.
        -11    1    3    3    0    0  0.76529685615E+03  0.49065420156E+03  0.14659020001E+03  0.92082002057E+03  0.00000000000E+00 0.  1.
         22    1    1    2    0    0 -0.12074972161E+04 -0.86285060746E+03 -0.22304812313E+04  0.26791056756E+04  0.00000000000E+00 0. -1.
<mgrwt>
<rscale>  0 0.36809309E+04</rscale>
<asrwt>0</asrwt>
<pdfrwt beam="1">  1        2 0.47514718E+00 0.36809309E+04</pdfrwt>
<pdfrwt beam="2">  1       -2 0.16873317E+00 0.36809309E+04</pdfrwt>
<totfact> 0.26946589E-01</totfact>
</mgrwt>
</event>
<event>
 6    1  0.1603085E-006  0.2265239E+04  0.7818608E-02  0.8491754E-01
          2   -1    0    0  501    0  0.00000000000E+00  0.00000000000E+00  0.87972458353E+03  0.87972458353E+03  0.00000000000E+00 0. -1.
         -2   -1    0    0    0  501 -0.00000000000E+00 -0.00000000000E+00 -0.14582139176E+04  0.14582139176E+04  0.00000000000E+00 0.  1.
         23    2    1    2    0    0  0.31431195819E+03 -0.20246302107E+03 -0.13910436696E+04  0.14434957528E+04  0.94309149708E+02 0.  0.
         11    1    3    3    0    0  0.22929779622E+03 -0.13574394553E+03 -0.81662184676E+03  0.85899658830E+03  0.00000000000E+00 0. -1.
        -11    1    3    3    0    0  0.85014161965E+02 -0.66719075548E+02 -0.57442182281E+03  0.58449916450E+03  0.00000000000E+00 0.  1.
         22    1    1    2    0    0 -0.31431195819E+03  0.20246302107E+03  0.81255433548E+03  0.89444274835E+03  0.00000000000E+00 0. -1.
<mgrwt>
<rscale>  0 0.22652387E+04</rscale>
<asrwt>0</asrwt>
<pdfrwt beam="1">  1        2 0.13534224E+00 0.22652387E+04</pdfrwt>
<pdfrwt beam="2">  1       -2 0.22434060E+00 0.22652387E+04</pdfrwt>
<totfact> 0.25527988E+00</totfact>
</mgrwt>
</event>
<event>
 6    1  0.1603085E-006  0.2511132E+04  0.7818608E-02  0.8399030E-01
          2   -1    0    0  501    0  0.00000000000E+00  0.00000000000E+00  0.17055506074E+04  0.17055506074E+04  0.00000000000E+00 0. -1.
         -2   -1    0    0    0  501 -0.00000000000E+00 -0.00000000000E+00 -0.92430343247E+03  0.92430343247E+03  0.00000000000E+00 0.  1.
         23    2    1    2    0    0  0.78952671344E+03 -0.13763472605E+03 -0.61883190959E+03  0.10166221310E+04  0.90949853149E+02 0.  0.
         13    1    3    3    0    0  0.45814453807E+03 -0.80134730036E+02 -0.41507882591E+03  0.62338465208E+03  0.00000000000E+00 0. -1.
        -13    1    3    3    0    0  0.33138217536E+03 -0.57499996019E+02 -0.20375308367E+03  0.39323747888E+03  0.00000000000E+00 0.  1.
         22    1    1    2    0    0 -0.78952671344E+03  0.13763472605E+03  0.14000790845E+04  0.16132319089E+04  0.00000000000E+00 0. -1.
<mgrwt>
<rscale>  0 0.25111322E+04</rscale>
<asrwt>0</asrwt>
<pdfrwt beam="1">  1        2 0.26239240E+00 0.25111322E+04</pdfrwt>
<pdfrwt beam="2">  1       -2 0.14220053E+00 0.25111322E+04</pdfrwt>
<totfact> 0.29925924E+00</totfact>
</mgrwt>
</event>
<event>
 6    1  0.1603085E-006  0.2538918E+04  0.7818608E-02  0.8389251E-01
          1   -1    0    0  501    0  0.00000000000E+00  0.00000000000E+00  0.82405946600E+03  0.82405946600E+03  0.00000000000E+00 0. -1.
         -1   -1    0    0    0  501 -0.00000000000E+00 -0.00000000000E+00 -0.19555941700E+04  0.19555941700E+04  0.00000000000E+00 0.  1.
         23    2    1    2    0    0 -0.79806592762E+02 -0.11932433091E+04 -0.10279500444E+04  0.15792668364E+04  0.84874966549E+02 0.  0.
         11    1    3    3    0    0 -0.47433814863E+02 -0.10779925931E+04 -0.91719092410E+03  0.14161769624E+04  0.00000000000E+00 0.  1.
        -11    1    3    3    0    0 -0.32372777899E+02 -0.11525071603E+03 -0.11075912030E+03  0.16308987407E+03  0.00000000000E+00 0. -1.
         22    1    1    2    0    0  0.79806592762E+02  0.11932433091E+04 -0.10358465964E+03  0.12003867996E+04  0.00000000000E+00 0. -1.
<mgrwt>
<rscale>  0 0.25389178E+04</rscale>
<asrwt>0</asrwt>
<pdfrwt beam="1">  1        1 0.12677838E+00 0.25389178E+04</pdfrwt>
<pdfrwt beam="2">  1       -1 0.30086064E+00 0.25389178E+04</pdfrwt>
<totfact> 0.60838338E-01</totfact>
</mgrwt>
</event>
<event>
 6    1  0.1603085E-006  0.2848272E+04  0.7818608E-02  0.8288437E-01
         -2   -1    0    0    0  501 -0.00000000000E+00  0.00000000000E+00  0.58531673774E+03  0.58531673774E+03  0.00000000000E+00 0.  1.
          2   -1    0    0  501    0  0.00000000000E+00 -0.00000000000E+00 -0.34650687759E+04  0.34650687759E+04  0.00000000000E+00 0. -1.
         23    2    1    2    0    0 -0.43633599540E+03  0.13090328620E+04 -0.94867845265E+03  0.16769910400E+04  0.91389317422E+02 0.  0.
         11    1    3    3    0    0 -0.32055071597E+03  0.82489969304E+03 -0.61597990373E+03  0.10782594803E+04  0.00000000000E+00 0. -1.
        -11    1    3    3    0    0 -0.11578527944E+03  0.48413316892E+03 -0.33269854892E+03  0.59873155974E+03  0.00000000000E+00 0.  1.
         22    1    1    2    0    0  0.43633599540E+03 -0.13090328620E+04 -0.19310735855E+04  0.23733944735E+04  0.00000000000E+00 0. -1.
<mgrwt>
<rscale>  0 0.28482716E+04</rscale>
<asrwt>0</asrwt>
<pdfrwt beam="1">  1        2 0.53308751E+00 0.28482716E+04</pdfrwt>
<pdfrwt beam="2">  1       -2 0.90048729E-01 0.28482716E+04</pdfrwt>
<totfact> 0.78636680E-01</totfact>
</mgrwt>
</event>
<event>
 6    1  0.1603085E-006  0.1333961E+04  0.7818608E-02  0.9003059E-01
         -1   -1    0    0    0  501 -0.00000000000E+00  0.00000000000E+00  0.86980785749E+03  0.86980785749E+03  0.00000000000E+00 0.  1.
          1   -1    0    0  501    0  0.00000000000E+00 -0.00000000000E+00 -0.51144935213E+03  0.51144935213E+03  0.00000000000E+00 0. -1.
         23    2    1    2    0    0 -0.31471130922E+02  0.20143576172E+03  0.83410749985E+03  0.86366286659E+03  0.92797778221E+02 0.  0.
         13    1    3    3    0    0  0.20107553349E+02  0.27512279721E+02  0.64332310305E+02  0.72800311719E+02  0.00000000000E+00 0.  1.
        -13    1    3    3    0    0 -0.51578684271E+02  0.17392348199E+03  0.76977518955E+03  0.79086255488E+03  0.00000000000E+00 0. -1.
         22    1    1    2    0    0  0.31471130922E+02 -0.20143576172E+03 -0.47574899449E+03  0.51759434303E+03  0.00000000000E+00 0. -1.
<mgrwt>
<rscale>  0 0.13339605E+04</rscale>
<asrwt>0</asrwt>
<pdfrwt beam="1">  1        1 0.78684516E-01 0.13339605E+04</pdfrwt>
<pdfrwt beam="2">  1       -1 0.13381659E+00 0.13339605E+04</pdfrwt>
<totfact> 0.19837534E+01</totfact>
</mgrwt>
</event>
<event>
 6    1  0.1603085E-006  0.1841509E+04  0.7818608E-02  0.8684532E-01
          2   -1    0    0  501    0  0.00000000000E+00  0.00000000000E+00  0.86115835393E+03  0.86115835393E+03  0.00000000000E+00 0. -1.
         -2   -1    0    0    0  501 -0.00000000000E+00 -0.00000000000E+00 -0.98447528427E+03  0.98447528427E+03  0.00000000000E+00 0.  1.
         23    2    1    2    0    0 -0.40786173716E+03 -0.70903549448E+03  0.35682926455E+03  0.89714911143E+03  0.92015623817E+02 0.  0.
         13    1    3    3    0    0 -0.19301145654E+03 -0.39697641756E+03  0.22913867204E+03  0.49734116005E+03  0.00000000000E+00 0.  1.
        -13    1    3    3    0    0 -0.21485028062E+03 -0.31205907692E+03  0.12769059251E+03  0.39980795138E+03  0.00000000000E+00 0. -1.
         22    1    1    2    0    0  0.40786173716E+03  0.70903549448E+03 -0.48014619488E+03  0.94848452678E+03  0.00000000000E+00 0.  1.
<mgrwt>
<rscale>  0 0.18415093E+04</rscale>
<asrwt>0</asrwt>
<pdfrwt beam="1">  1        2 0.13248590E+00 0.18415093E+04</pdfrwt>
<pdfrwt beam="2">  1       -2 0.15145774E+00 0.18415093E+04</pdfrwt>
<totfact> 0.85635907E+00</totfact>
</mgrwt>
</event>
<event>
 6    1  0.1603085E-006  0.1139840E+04  0.7818608E-02  0.9167208E-01
          4   -1    0    0  501    0  0.00000000000E+00  0.00000000000E+00  0.71266894900E+03  0.71266894900E+03  0.00000000000E+00 0. -1.
         -4   -1    0    0    0  501 -0.00000000000E+00 -0.00000000000E+00 -0.45576428531E+03  0.45576428531E+03  0.00000000000E+00 0.  1.
         23    2    1    2    0    0  0.30565133832E+02  0.24939181756E+03  0.64942992272E+03  0.70237896168E+03  0.91904707232E+02 0.  0.
         11    1    3    3    0    0  0.35658215945E+02  0.69338274476E+02  0.29057868623E+03  0.30085757022E+03  0.00000000000E+00 0. -1.
        -11    1    3    3    0    0 -0.50930821126E+01  0.18005354308E+03  0.35885123649E+03  0.40152139145E+03  0.00000000000E+00 0.  1.
         22    1    1    2    0    0 -0.30565133832E+02 -0.24939181756E+03 -0.39252525903E+03  0.46605427264E+03  0.00000000000E+00 0.  1.
<mgrwt>
<rscale>  0 0.11398404E+04</rscale>
<asrwt>0</asrwt>
<pdfrwt beam="1">  1        4 0.10964138E+00 0.11398404E+04</pdfrwt>
<pdfrwt beam="2">  1       -4 0.70117582E-01 0.11398404E+04</pdfrwt>
<totfact> 0.24333376E+00</totfact>
</mgrwt>
</event>
<event>
 6    1  0.1603085E-006  0.2429863E+04  0.7818608E-02  0.8428407E-01
         -2   -1    0    0    0  501 -0.00000000000E+00  0.00000000000E+00  0.14236863213E+04  0.14236863213E+04  0.00000000000E+00 0.  1.
          2   -1    0    0  501    0  0.00000000000E+00 -0.00000000000E+00 -0.10367864797E+04  0.10367864797E+04  0.00000000000E+00 0. -1.
         23    2    1    2    0    0  0.74110172117E+03  0.78359394371E+03  0.75637193239E+03  0.13204022525E+04  0.90068743637E+02 0.  0.
         13    1    3    3    0    0  0.45599579337E+03  0.42116955871E+03  0.45237798597E+03  0.76808971022E+03  0.00000000000E+00 0.  1.
        -13    1    3    3    0    0  0.28510592781E+03  0.36242438500E+03  0.30399394642E+03  0.55231254229E+03  0.00000000000E+00 0. -1.
         22    1    1    2    0    0 -0.74110172117E+03 -0.78359394371E+03 -0.36947209070E+03  0.11400705485E+04  0.00000000000E+00 0. -1.
<mgrwt>
<rscale>  0 0.24298631E+04</rscale>
<asrwt>0</asrwt>
<pdfrwt beam="1">  1        2 0.15950561E+00 0.24298631E+04</pdfrwt>
<pdfrwt beam="2">  1       -2 0.21902867E+00 0.24298631E+04</pdfrwt>
<totfact> 0.21454920E+00</totfact>
</mgrwt>
</event>
<event>
 6    1  0.1603085E-006  0.2555029E+04  0.7818608E-02  0.8383639E-01
          2   -1    0    0  501    0  0.00000000000E+00  0.00000000000E+00  0.29344800983E+04  0.29344800983E+04  0.00000000000E+00 0. -1.
         -2   -1    0    0    0  501 -0.00000000000E+00 -0.00000000000E+00 -0.55616102446E+03  0.55616102446E+03  0.00000000000E+00 0.  1.
         23    2    1    2    0    0  0.44243276125E+03  0.10402503103E+04  0.19989075157E+04  0.22982399374E+04  0.91695676429E+02 0.  0.
         13    1    3    3    0    0  0.80635218506E+02  0.20685252418E+03  0.32369919857E+03  0.39251901403E+03  0.00000000000E+00 0.  1.
        -13    1    3    3    0    0  0.36179754275E+03  0.83339778615E+03  0.16752083172E+04  0.19057209234E+04  0.00000000000E+00 0. -1.
         22    1    1    2    0    0 -0.44243276125E+03 -0.10402503103E+04  0.37941155810E+03  0.11924011853E+04  0.00000000000E+00 0.  1.
<mgrwt>
<rscale>  0 0.25550291E+04</rscale>
<asrwt>0</asrwt>
<pdfrwt beam="1">  1        2 0.45145847E+00 0.25550291E+04</pdfrwt>
<pdfrwt beam="2">  1       -2 0.85563236E-01 0.25550291E+04</pdfrwt>
<totfact> 0.20156797E+00</totfact>
</mgrwt>
</event>
<event>
 6    1  0.1603085E-006  0.1990901E+04  0.7818608E-02  0.8610886E-01
         -1   -1    0    0    0  501 -0.00000000000E+00  0.00000000000E+00  0.81237965524E+03  0.81237965524E+03  0.00000000000E+00 0.  1.
          1   -1    0    0  501    0  0.00000000000E+00 -0.00000000000E+00 -0.12197770701E+04  0.12197770701E+04  0.00000000000E+00 0. -1.
         23    2    1    2    0    0  0.32155429852E+03  0.90063353433E+03 -0.47586325744E+03  0.10733942409E+04  0.10578953898E+03 0.  0.
         11    1    3    3    0    0  0.11924505331E+03  0.39584139549E+03 -0.25951077380E+03  0.48811436656E+03  0.00000000000E+00 0. -1.
        -11    1    3    3    0    0  0.20230924521E+03  0.50479213884E+03 -0.21635248364E+03  0.58527987434E+03  0.00000000000E+00 0.  1.
         22    1    1    2    0    0 -0.32155429852E+03 -0.90063353433E+03  0.68465842550E+02  0.95876248448E+03  0.00000000000E+00 0. -1.
<mgrwt>
<rscale>  0 0.19909014E+04</rscale>
<asrwt>0</asrwt>
<pdfrwt beam="1">  1        1 0.18765801E+00 0.19909014E+04</pdfrwt>
<pdfrwt beam="2">  1       -1 0.12498149E+00 0.19909014E+04</pdfrwt>
<totfact> 0.53725125E+00</totfact>
</mgrwt>
</event>
<event>
 6    1  0.1603085E-006  0.2127892E+04  0.7818608E-02  0.8549055E-01
          1   -1    0    0  501    0  0.00000000000E+00  0.00000000000E+00  0.17202782518E+04  0.17202782518E+04  0.00000000000E+00 0. -1.
         -1   -1    0    0    0  501 -0.00000000000E+00 -0.00000000000E+00 -0.65802215274E+03  0.65802215274E+03  0.00000000000E+00 0.  1.
         23    2    1    2    0    0 -0.40468350222E+03  0.12653928040E+03 -0.55621872191E+03  0.70520696048E+03  0.90314251711E+02 0.  0.
         11    1    3    3    0    0 -0.24743209344E+03  0.43076175152E+02 -0.27552093020E+03  0.37281360049E+03  0.00000000000E+00 0. -1.
        -11    1    3    3    0    0 -0.15725140878E+03  0.83463105247E+02 -0.28069779171E+03  0.33239336000E+03  0.00000000000E+00 0.  1.
         22    1    1    2    0    0  0.40468350222E+03 -0.12653928040E+03  0.16184748210E+04  0.16730934441E+04  0.00000000000E+00 0. -1.
<mgrwt>
<rscale>  0 0.21278921E+04</rscale>
<asrwt>0</asrwt>
<pdfrwt beam="1">  1        1 0.26465819E+00 0.21278921E+04</pdfrwt>
<pdfrwt beam="2">  1       -1 0.10123418E+00 0.21278921E+04</pdfrwt>
<totfact> 0.39242054E+00</totfact>
</mgrwt>
</event>
<event>
 6    1  0.1603085E-006  0.4899815E+04  0.7818608E-02  0.7844150E-01
         -1   -1    0    0    0  501 -0.00000000000E+00  0.00000000000E+00  0.19229479350E+04  0.19229479350E+04  0.00000000000E+00 0.  1.
          1   -1    0    0  501    0  0.00000000000E+00 -0.00000000000E+00 -0.31212740944E+04  0.31212740944E+04  0.00000000000E+00 0. -1.
         23    2    1    2    0    0  0.93047519620E+03 -0.22025367687E+04 -0.11450406308E+04  0.26526134377E+04  0.91036781330E+02 0.  0.
         11    1    3    3    0    0  0.89823990872E+03 -0.21223635578E+04 -0.10840512806E+04  0.25468469102E+04  0.00000000000E+00 0. -1.
        -11    1    3    3    0    0  0.32235287482E+02 -0.80173210912E+02 -0.60989350122E+02  0.10576652748E+03  0.00000000000E+00 0.  1.
         22    1    1    2    0    0 -0.93047519620E+03  0.22025367687E+04 -0.53285528604E+02  0.23916085917E+04  0.00000000000E+00 0.  1.
<mgrwt>
<rscale>  0 0.48998153E+04</rscale>
<asrwt>0</asrwt>
<pdfrwt beam="1">  1        1 0.48019601E+00 0.48998153E+04</pdfrwt>
<pdfrwt beam="2">  1       -1 0.29583815E+00 0.48998153E+04</pdfrwt>
<totfact> 0.12441866E-02</totfact>
</mgrwt>
</event>
<event>
 6    1  0.1603085E-006  0.1995345E+04  0.7818608E-02  0.8608800E-01
          1   -1    0    0  501    0  0.00000000000E+00  0.00000000000E+00  0.15186626770E+04  0.15186626770E+04  0.00000000000E+00 0. -1.
         -1   -1    0    0    0  501 -0.00000000000E+00 -0.00000000000E+00 -0.65541215060E+03  0.65541215060E+03  0.00000000000E+00 0.  1.
         23    2    1    2    0    0  0.17324205476E+03 -0.82336825573E+03 -0.14681867910E+03  0.85946922364E+03  0.95830724620E+02 0.  0.
         11    1    3    3    0    0 -0.24291420271E+01 -0.97750899689E+02  0.37708243355E+01  0.97853759443E+02  0.00000000000E+00 0. -1.
        -11    1    3    3    0    0  0.17567119679E+03 -0.72561735604E+03 -0.15058950343E+03  0.76161546420E+03  0.00000000000E+00 0.  1.
         22    1    1    2    0    0 -0.17324205476E+03  0.82336825573E+03  0.10100692055E+04  0.13146056040E+04  0.00000000000E+00 0. -1.
<mgrwt>
<rscale>  0 0.19953446E+04</rscale>
<asrwt>0</asrwt>
<pdfrwt beam="1">  1        1 0.23364041E+00 0.19953446E+04</pdfrwt>
<pdfrwt beam="2">  1       -1 0.10083264E+00 0.19953446E+04</pdfrwt>
<totfact> 0.55101570E+00</totfact>
</mgrwt>
</event>
<event>
 6    1  0.1603085E-006  0.1578592E+04  0.7818608E-02  0.8833809E-01
          2   -1    0    0  501    0  0.00000000000E+00  0.00000000000E+00  0.38589371080E+04  0.38589371080E+04  0.00000000000E+00 0. -1.
         -2   -1    0    0    0  501 -0.00000000000E+00 -0.00000000000E+00 -0.16144039839E+03  0.16144039839E+03  0.00000000000E+00 0.  1.
         23    2    1    2    0    0  0.39965240443E+03  0.55068143207E+03  0.84889250045E+03  0.10916375001E+04  0.89899223003E+02 0.  0.
         11    1    3    3    0    0  0.29215472596E+03  0.44820317120E+03  0.70320125001E+03  0.88359066574E+03  0.00000000000E+00 0. -1.
        -11    1    3    3    0    0  0.10749767848E+03  0.10247826087E+03  0.14569125044E+03  0.20804683435E+03  0.00000000000E+00 0.  1.
         22    1    1    2    0    0 -0.39965240443E+03 -0.55068143207E+03  0.28486042091E+04  0.29287400062E+04  0.00000000000E+00 0. -1.
<mgrwt>
<rscale>  0 0.15785922E+04</rscale>
<asrwt>0</asrwt>
<pdfrwt beam="1">  1        2 0.59368256E+00 0.15785922E+04</pdfrwt>
<pdfrwt beam="2">  1       -2 0.24836987E-01 0.15785922E+04</pdfrwt>
<totfact> 0.62840454E+00</totfact>
</mgrwt>
</event>
<event>
 6    1  0.1603085E-006  0.1399089E+04  0.7818608E-02  0.8954478E-01
          1   -1    0    0  501    0  0.00000000000E+00  0.00000000000E+00  0.74736595560E+03  0.74736595560E+03  0.00000000000E+00 0. -1.
         -1   -1    0    0    0  501 -0.00000000000E+00 -0.00000000000E+00 -0.65478344280E+03  0.65478344280E+03  0.00000000000E+00 0.  1.
         23    2    1    2    0    0  0.25899961587E+02 -0.42469941107E+03 -0.50879491529E+03  0.66547090082E+03  0.54211218710E+02 0.  0.
         13    1    3    3    0    0  0.25209265006E+02 -0.17161496714E+03 -0.24187025458E+03  0.29763807558E+03  0.00000000000E+00 0. -1.
        -13    1    3    3    0    0  0.69069658106E+00 -0.25308444392E+03 -0.26692466072E+03  0.36783282523E+03  0.00000000000E+00 0.  1.
         22    1    1    2    0    0 -0.25899961587E+02  0.42469941107E+03  0.60137742810E+03  0.73667849758E+03  0.00000000000E+00 0. -1.
<mgrwt>
<rscale>  0 0.13990895E+04</rscale>
<asrwt>0</asrwt>
<pdfrwt beam="1">  1        1 0.11497938E+00 0.13990895E+04</pdfrwt>
<pdfrwt beam="2">  1       -1 0.10073591E+00 0.13990895E+04</pdfrwt>
<totfact> 0.22516688E+01</totfact>
</mgrwt>
</event>
<event>
 6    1  0.1603085E-006  0.2844544E+04  0.7818608E-02  0.8289571E-01
         -1   -1    0    0    0  501 -0.00000000000E+00  0.00000000000E+00  0.12417773603E+04  0.12417773603E+04  0.00000000000E+00 0.  1.
          1   -1    0    0  501    0  0.00000000000E+00 -0.00000000000E+00 -0.16290015848E+04  0.16290015848E+04  0.00000000000E+00 0. -1.
         23    2    1    2    0    0 -0.95412103132E+03  0.65464565932E+03  0.63820885091E+03  0.13246803474E+04  0.92518126251E+02 0.  0.
         13    1    3    3    0    0 -0.66151363093E+03  0.50385868277E+03  0.46425852271E+03  0.95237063794E+03  0.00000000000E+00 0.  1.
        -13    1    3    3    0    0 -0.29260740039E+03  0.15078697655E+03  0.17395032820E+03  0.37230970943E+03  0.00000000000E+00 0. -1.
         22    1    1    2    0    0  0.95412103132E+03 -0.65464565932E+03 -0.10254330754E+04  0.15460985977E+04  0.00000000000E+00 0. -1.
<mgrwt>
<rscale>  0 0.28445438E+04</rscale>
<asrwt>0</asrwt>
<pdfrwt beam="1">  1        1 0.25061563E+00 0.28445438E+04</pdfrwt>
<pdfrwt beam="2">  1       -1 0.19104267E+00 0.28445438E+04</pdfrwt>
<totfact> 0.79872854E-01</totfact>
</mgrwt>
</event>
<event>
 6    1  0.1603085E-006  0.3549747E+04  0.7818608E-02  0.8102101E-01
         -1   -1    0    0    0  501 -0.00000000000E+00  0.00000000000E+00  0.24837196796E+04  0.24837196796E+04  0.00000000000E+00 0. -1.
          1   -1    0    0  501    0  0.00000000000E+00 -0.00000000000E+00 -0.12683295686E+04  0.12683295686E+04  0.00000000000E+00 0.  1.
         23    2    1    2    0    0 -0.17007447572E+04  0.37590043625E+03  0.25390129429E+03  0.17625029151E+04  0.90093237821E+02 0.  0.
         11    1    3    3    0    0 -0.10598027870E+04  0.24714715094E+03  0.20074364110E+03  0.11065991465E+04  0.00000000000E+00 0.  1.
        -11    1    3    3    0    0 -0.64094197019E+03  0.12875328530E+03  0.53157653196E+02  0.65590376864E+03  0.00000000000E+00 0. -1.
         22    1    1    2    0    0  0.17007447572E+04 -0.37590043625E+03  0.96148881670E+03  0.19895463331E+04  0.00000000000E+00 0. -1.
<mgrwt>
<rscale>  0 0.35497465E+04</rscale>
<asrwt>0</asrwt>
<pdfrwt beam="1">  1        1 0.19512763E+00 0.35497465E+04</pdfrwt>
<pdfrwt beam="2">  1       -1 0.38211072E+00 0.35497465E+04</pdfrwt>
<totfact> 0.73266366E-02</totfact>
</mgrwt>
</event>
<event>
 6    1  0.1603085E-006  0.1597792E+04  0.7818608E-02  0.8821905E-01
         -2   -1    0    0    0  501 -0.00000000000E+00  0.00000000000E+00  0.57479177807E+03  0.57479177807E+03  0.00000000000E+00 0.  1.
          2   -1    0    0  501    0  0.00000000000E+00 -0.00000000000E+00 -0.11103761657E+04  0.11103761657E+04  0.00000000000E+00 0. -1.
         23    2    1    2    0    0  0.71664826904E+03  0.22748081515E+03  0.80834830539E+01  0.75731719263E+03  0.90176076550E+02 0.  0.
         13    1    3    3    0    0  0.39539755794E+03  0.15181228101E+03  0.41597667524E+02  0.42557791699E+03  0.00000000000E+00 0. -1.
        -13    1    3    3    0    0  0.32125071110E+03  0.75668534140E+02 -0.33514184470E+02  0.33173927564E+03  0.00000000000E+00 0.  1.
         22    1    1    2    0    0 -0.71664826904E+03 -0.22748081515E+03 -0.54366787069E+03  0.92785075114E+03  0.00000000000E+00 0.  1.
<mgrwt>
<rscale>  0 0.15977923E+04</rscale>
<asrwt>0</asrwt>
<pdfrwt beam="1">  1        2 0.17082710E+00 0.15977923E+04</pdfrwt>
<pdfrwt beam="2">  1       -2 0.88429505E-01 0.15977923E+04</pdfrwt>
<totfact> 0.22664340E+01</totfact>
</mgrwt>
</event>
<event>
 6    1  0.1603085E-006  0.6764979E+03  0.7818608E-02  0.9758290E-01
          2   -1    0    0  501    0  0.00000000000E+00  0.00000000000E+00  0.16220827007E+03  0.16220827007E+03  0.00000000000E+00 0. -1.
         -2   -1    0    0    0  501 -0.00000000000E+00 -0.00000000000E+00 -0.70534219397E+03  0.70534219397E+03  0.00000000000E+00 0.  1.
         23    2    1    2    0    0  0.20400680469E+03  0.26189586968E+03 -0.26489791368E+03  0.43439517977E+03  0.91214278588E+02 0.  0.
         11    1    3    3    0    0  0.86119987453E+02  0.99389917163E+02 -0.16243350588E+03  0.20899677439E+03  0.00000000000E+00 0. -1.
        -11    1    3    3    0    0  0.11788681723E+03  0.16250595252E+03 -0.10246440780E+03  0.22539840538E+03  0.00000000000E+00 0.  1.
         22    1    1    2    0    0 -0.20400680469E+03 -0.26189586968E+03 -0.27823601022E+03  0.43315528428E+03  0.00000000000E+00 0. -1.
<mgrwt>
<rscale>  0 0.67649786E+03</rscale>
<asrwt>0</asrwt>
<pdfrwt beam="1">  1        2 0.24955118E-01 0.67649786E+03</pdfrwt>
<pdfrwt beam="2">  1       -2 0.10851418E+00 0.67649786E+03</pdfrwt>
<totfact> 0.15078761E+02</totfact>
</mgrwt>
</event>
<event>
 6    1  0.1603085E-006  0.1987671E+04  0.7818608E-02  0.8612407E-01
          2   -1    0    0  501    0  0.00000000000E+00  0.00000000000E+00  0.26370195583E+04  0.26370195583E+04  0.00000000000E+00 0. -1.
         -2   -1    0    0    0  501 -0.00000000000E+00 -0.00000000000E+00 -0.37455493884E+03  0.37455493884E+03  0.00000000000E+00 0.  1.
         23    2    1    2    0    0 -0.93747867747E+03 -0.79728719426E+02  0.65940850165E+03  0.11528082783E+04  0.94469122258E+02 0.  0.
         13    1    3    3    0    0 -0.65424468241E+03 -0.12327758555E+02  0.44901100035E+03  0.79359873773E+03  0.00000000000E+00 0. -1.
        -13    1    3    3    0    0 -0.28323399507E+03 -0.67400960871E+02  0.21039750130E+03  0.35920954058E+03  0.00000000000E+00 0.  1.
         22    1    1    2    0    0  0.93747867747E+03  0.79728719426E+02  0.16030561178E+04  0.18587662188E+04  0.00000000000E+00 0. -1.
<mgrwt>
<rscale>  0 0.19876707E+04</rscale>
<asrwt>0</asrwt>
<pdfrwt beam="1">  1        2 0.40569530E+00 0.19876707E+04</pdfrwt>
<pdfrwt beam="2">  1       -2 0.57623839E-01 0.19876707E+04</pdfrwt>
<totfact> 0.75983034E+00</totfact>
</mgrwt>
</event>
<event>
 6    1  0.1603085E-006  0.5379247E+04  0.7818608E-02  0.7772527E-01
          2   -1    0    0  501    0  0.00000000000E+00  0.00000000000E+00  0.31889838717E+04  0.31889838717E+04  0.00000000000E+00 0. -1.
         -2   -1    0    0    0  501 -0.00000000000E+00 -0.00000000000E+00 -0.22684573499E+04  0.22684573499E+04  0.00000000000E+00 0.  1.
         23    2    1    2    0    0 -0.22819175908E+04  0.77228527599E+02  0.19012324071E+04  0.29725073855E+04  0.89461468799E+02 0.  0.
         11    1    3    3    0    0 -0.13984175747E+04  0.34076857170E+02  0.12184382899E+04  0.18550808100E+04  0.00000000000E+00 0. -1.
        -11    1    3    3    0    0 -0.88350001609E+03  0.43151670429E+02  0.68279411721E+03  0.11174265755E+04  0.00000000000E+00 0.  1.
         22    1    1    2    0    0  0.22819175908E+04 -0.77228527599E+02 -0.98070588526E+03  0.24849338361E+04  0.00000000000E+00 0.  1.
<mgrwt>
<rscale>  0 0.53792468E+04</rscale>
<asrwt>0</asrwt>
<pdfrwt beam="1">  1        2 0.49061290E+00 0.53792468E+04</pdfrwt>
<pdfrwt beam="2">  1       -2 0.34899344E+00 0.53792468E+04</pdfrwt>
<totfact> 0.14693246E-02</totfact>
</mgrwt>
</event>
<event>
 6    1  0.1603085E-006  0.2414200E+04  0.7818608E-02  0.8434206E-01
          1   -1    0    0  501    0  0.00000000000E+00  0.00000000000E+00  0.12735508453E+04  0.12735508453E+04  0.00000000000E+00 0. -1.
         -1   -1    0    0    0  501 -0.00000000000E+00 -0.00000000000E+00 -0.11441163732E+04  0.11441163732E+04  0.00000000000E+00 0.  1.
         23    2    1    2    0    0  0.32877115321E+03 -0.10101441620E+04  0.63511062599E+03  0.12411511447E+04  0.92784467554E+02 0.  0.
         13    1    3    3    0    0  0.13391180232E+03 -0.51094740265E+03  0.35565672459E+03  0.63678200730E+03  0.00000000000E+00 0.  1.
        -13    1    3    3    0    0  0.19485935090E+03 -0.49919675938E+03  0.27945390141E+03  0.60436913738E+03  0.00000000000E+00 0. -1.
         22    1    1    2    0    0 -0.32877115321E+03  0.10101441620E+04 -0.50567615398E+03  0.11765160738E+04  0.00000000000E+00 0. -1.
<mgrwt>
<rscale>  0 0.24142000E+04</rscale>
<asrwt>0</asrwt>
<pdfrwt beam="1">  1        1 0.19593090E+00 0.24142000E+04</pdfrwt>
<pdfrwt beam="2">  1       -1 0.17601790E+00 0.24142000E+04</pdfrwt>
<totfact> 0.18808252E+00</totfact>
</mgrwt>
</event>
<event>
 6    1  0.1603085E-006  0.2106518E+04  0.7818608E-02  0.8558377E-01
          2   -1    0    0  501    0  0.00000000000E+00  0.00000000000E+00  0.18812817891E+04  0.18812817891E+04  0.00000000000E+00 0. -1.
         -2   -1    0    0    0  501 -0.00000000000E+00 -0.00000000000E+00 -0.58968037900E+03  0.58968037900E+03  0.00000000000E+00 0.  1.
         23    2    1    2    0    0 -0.69482362173E+03  0.20389386232E+03 -0.24689297890E+03  0.77057469537E+03  0.92068701091E+02 0.  0.
         13    1    3    3    0    0 -0.44142190109E+03  0.83351726231E+02 -0.15868338056E+03  0.47642546142E+03  0.00000000000E+00 0.  1.
        -13    1    3    3    0    0 -0.25340172064E+03  0.12054213609E+03 -0.88209598342E+02  0.29414923396E+03  0.00000000000E+00 0. -1.
         22    1    1    2    0    0  0.69482362173E+03 -0.20389386232E+03  0.15384943890E+04  0.17003874727E+04  0.00000000000E+00 0. -1.
<mgrwt>
<rscale>  0 0.21065184E+04</rscale>
<asrwt>0</asrwt>
<pdfrwt beam="1">  1        2 0.28942797E+00 0.21065184E+04</pdfrwt>
<pdfrwt beam="2">  1       -2 0.90720059E-01 0.21065184E+04</pdfrwt>
<totfact> 0.74317540E+00</totfact>
</mgrwt>
</event>
<event>
 6    1  0.1603085E-006  0.1377988E+04  0.7818608E-02  0.8969908E-01
          2   -1    0    0  501    0  0.00000000000E+00  0.00000000000E+00  0.99375540530E+03  0.99375540530E+03  0.00000000000E+00 0. -1.
         -2   -1    0    0    0  501 -0.00000000000E+00 -0.00000000000E+00 -0.47769595133E+03  0.47769595133E+03  0.00000000000E+00 0.  1.
         23    2    1    2    0    0 -0.17414841221E+03 -0.59119362172E+03 -0.62659995899E+02  0.62602024205E+03  0.90208095757E+02 0.  0.
         11    1    3    3    0    0 -0.10447625141E+03 -0.32554815211E+03  0.96216045117E+01  0.34203722271E+03  0.00000000000E+00 0.  1.
        -11    1    3    3    0    0 -0.69672160807E+02 -0.26564546961E+03 -0.72281600411E+02  0.28398301934E+03  0.00000000000E+00 0. -1.
         22    1    1    2    0    0  0.17414841221E+03  0.59119362172E+03  0.57871944988E+03  0.84543111458E+03  0.00000000000E+00 0. -1.
<mgrwt>
<rscale>  0 0.13779883E+04</rscale>
<asrwt>0</asrwt>
<pdfrwt beam="1">  1        2 0.15288545E+00 0.13779883E+04</pdfrwt>
<pdfrwt beam="2">  1       -2 0.73491685E-01 0.13779883E+04</pdfrwt>
<totfact> 0.41406112E+01</totfact>
</mgrwt>
</event>
<event>
 6    1  0.1603085E-006  0.2631609E+04  0.7818608E-02  0.8357543E-01
          2   -1    0    0  501    0  0.00000000000E+00  0.00000000000E+00  0.28552051124E+04  0.28552051124E+04  0.00000000000E+00 0. -1.
         -2   -1    0    0    0  501 -0.00000000000E+00 -0.00000000000E+00 -0.60638086408E+03  0.60638086408E+03  0.00000000000E+00 0.  1.
         23    2    1    2    0    0  0.51239387400E+03  0.10887473800E+04  0.43066172438E+03  0.12813031272E+04  0.91377477722E+02 0.  0.
         13    1    3    3    0    0  0.29766578601E+03  0.70153836422E+03  0.30705230430E+03  0.82160946575E+03  0.00000000000E+00 0. -1.
        -13    1    3    3    0    0  0.21472808799E+03  0.38720901573E+03  0.12360942008E+03  0.45969366144E+03  0.00000000000E+00 0.  1.
         22    1    1    2    0    0 -0.51239387400E+03 -0.10887473800E+04  0.18181625239E+04  0.21802828493E+04  0.00000000000E+00 0. -1.
<mgrwt>
<rscale>  0 0.26316092E+04</rscale>
<asrwt>0</asrwt>
<pdfrwt beam="1">  1        2 0.43926232E+00 0.26316092E+04</pdfrwt>
<pdfrwt beam="2">  1       -2 0.93289365E-01 0.26316092E+04</pdfrwt>
<totfact> 0.18357557E+00</totfact>
</mgrwt>
</event>
<event>
 6    1  0.2558181E-006  0.4651588E+04  0.7818608E-02  0.7884623E-01
         -1   -1    0    0    0  501 -0.00000000000E+00  0.00000000000E+00  0.21208489612E+04  0.21208489612E+04  0.00000000000E+00 0.  1.
          1   -1    0    0  501    0  0.00000000000E+00 -0.00000000000E+00 -0.25505437488E+04  0.25505437488E+04  0.00000000000E+00 0. -1.
         23    2    1    2    0    0 -0.31118557465E+02  0.42390474146E+03 -0.25104653887E+04  0.25476531099E+04  0.86234018295E+02 0.  0.
         11    1    3    3    0    0 -0.25214468670E+02  0.74211147384E+02 -0.63889055292E+03  0.64368020199E+03  0.00000000000E+00 0. -1.
        -11    1    3    3    0    0 -0.59040887955E+01  0.34969359407E+03 -0.18715748358E+04  0.19039729079E+04  0.00000000000E+00 0.  1.
         22    1    1    2    0    0  0.31118557465E+02 -0.42390474146E+03  0.20807706011E+04  0.21237396001E+04  0.00000000000E+00 0.  1.
<mgrwt>
<rscale>  0 0.46515881E+04</rscale>
<asrwt>0</asrwt>
<pdfrwt beam="1">  1        1 0.39239134E+00 0.46515881E+04</pdfrwt>
<pdfrwt beam="2">  1       -1 0.32628446E+00 0.46515881E+04</pdfrwt>
<totfact> 0.20649238E-02</totfact>
</mgrwt>
</event>
<event>
 6    1  0.1603085E-006  0.4154116E+04  0.7818608E-02  0.7974158E-01
          2   -1    0    0  501    0  0.00000000000E+00  0.00000000000E+00  0.44301738352E+04  0.44301738352E+04  0.00000000000E+00 0. -1.
         -2   -1    0    0    0  501 -0.00000000000E+00 -0.00000000000E+00 -0.97381518034E+03  0.97381518034E+03  0.00000000000E+00 0.  1.
         23    2    1    2    0    0 -0.35901928466E+03 -0.10292446111E+04  0.40274684930E+04  0.41733770687E+04  0.91292821785E+02 0.  0.
         13    1    3    3    0    0 -0.25607241056E+03 -0.62298123280E+03  0.23858315776E+04  0.24790867295E+04  0.00000000000E+00 0. -1.
        -13    1    3    3    0    0 -0.10294687411E+03 -0.40626337833E+03  0.16416369154E+04  0.16942903392E+04  0.00000000000E+00 0.  1.
         22    1    1    2    0    0  0.35901928466E+03  0.10292446111E+04 -0.57110983817E+03  0.12306119468E+04  0.00000000000E+00 0.  1.
<mgrwt>
<rscale>  0 0.41541163E+04</rscale>
<asrwt>0</asrwt>
<pdfrwt beam="1">  1        2 0.68156519E+00 0.41541163E+04</pdfrwt>
<pdfrwt beam="2">  1       -2 0.14981772E+00 0.41541163E+04</pdfrwt>
<totfact> 0.33426335E-02</totfact>
</mgrwt>
</event>
<event>
 6    1  0.1603085E-006  0.1836460E+04  0.7818608E-02  0.8687147E-01
          2   -1    0    0  501    0  0.00000000000E+00  0.00000000000E+00  0.36315097792E+04  0.36315097792E+04  0.00000000000E+00 0. -1.
         -2   -1    0    0    0  501 -0.00000000000E+00 -0.00000000000E+00 -0.23217503468E+03  0.23217503468E+03  0.00000000000E+00 0.  1.
         23    2    1    2    0    0  0.55787000110E+03  0.71539117838E+03  0.19702144230E+04  0.21709390062E+04  0.90707329347E+02 0.  0.
         13    1    3    3    0    0  0.27762804191E+03  0.38405586488E+03  0.11278512760E+04  0.12233661503E+04  0.00000000000E+00 0. -1.
        -13    1    3    3    0    0  0.28024195919E+03  0.33133531350E+03  0.84236314707E+03  0.94757285588E+03  0.00000000000E+00 0.  1.
         22    1    1    2    0    0 -0.55787000110E+03 -0.71539117838E+03  0.14291203215E+04  0.16927458077E+04  0.00000000000E+00 0.  1.
<mgrwt>
<rscale>  0 0.18364595E+04</rscale>
<asrwt>0</asrwt>
<pdfrwt beam="1">  1        2 0.55869377E+00 0.18364595E+04</pdfrwt>
<pdfrwt beam="2">  1       -2 0.35719239E-01 0.18364595E+04</pdfrwt>
<totfact> 0.45850498E+00</totfact>
</mgrwt>
</event>
<event>
 6    1  0.1603085E-006  0.7835359E+03  0.7818608E-02  0.9584159E-01
         -1   -1    0    0    0  501 -0.00000000000E+00  0.00000000000E+00  0.97237824708E+02  0.97237824708E+02  0.00000000000E+00 0.  1.
          1   -1    0    0  501    0  0.00000000000E+00 -0.00000000000E+00 -0.15784199502E+04  0.15784199502E+04  0.00000000000E+00 0. -1.
         23    2    1    2    0    0 -0.20702445753E+03 -0.10564865939E+03 -0.14107633425E+04  0.14328006765E+04  0.92972064288E+02 0.  0.
         11    1    3    3    0    0 -0.40884135227E+02 -0.62790508675E+02 -0.55223185490E+03  0.55729182845E+03  0.00000000000E+00 0.  1.
        -11    1    3    3    0    0 -0.16614032230E+03 -0.42858150713E+02 -0.85853148762E+03  0.87550884805E+03  0.00000000000E+00 0. -1.
         22    1    1    2    0    0  0.20702445753E+03  0.10564865939E+03 -0.70418782960E+02  0.24285709839E+03  0.00000000000E+00 0.  1.
<mgrwt>
<rscale>  0 0.78353589E+03</rscale>
<asrwt>0</asrwt>
<pdfrwt beam="1">  1        1 0.24283382E+00 0.78353589E+03</pdfrwt>
<pdfrwt beam="2">  1       -1 0.14959667E-01 0.78353589E+03</pdfrwt>
<totfact> 0.19415454E+02</totfact>
</mgrwt>
</event>
<event>
 6    1  0.1603085E-006  0.2990943E+04  0.7818608E-02  0.8246322E-01
          1   -1    0    0  501    0  0.00000000000E+00  0.00000000000E+00  0.84799189892E+03  0.84799189892E+03  0.00000000000E+00 0. -1.
         -1   -1    0    0    0  501 -0.00000000000E+00 -0.00000000000E+00 -0.26373312033E+04  0.26373312033E+04  0.00000000000E+00 0.  1.
         23    2    1    2    0    0  0.99463622121E+03 -0.27464210400E+03  0.36366439754E+03  0.10978234816E+04  0.90747478947E+02 0.  0.
         11    1    3    3    0    0  0.60242074452E+02 -0.50272591036E+01  0.28023675260E+01  0.60516395564E+02  0.00000000000E+00 0. -1.
        -11    1    3    3    0    0  0.93439414676E+03 -0.26961484490E+03  0.36086203002E+03  0.10373070861E+04  0.00000000000E+00 0.  1.
         22    1    1    2    0    0 -0.99463622121E+03  0.27464210400E+03 -0.21530037019E+04  0.23874996206E+04  0.00000000000E+00 0.  1.
<mgrwt>
<rscale>  0 0.29909433E+04</rscale>
<asrwt>0</asrwt>
<pdfrwt beam="1">  1        1 0.13046029E+00 0.29909433E+04</pdfrwt>
<pdfrwt beam="2">  1       -1 0.40574326E+00 0.29909433E+04</pdfrwt>
<totfact> 0.11181801E-01</totfact>
</mgrwt>
</event>
<event>
 6    1  0.1603085E-006  0.3828650E+04  0.7818608E-02  0.8040034E-01
         -2   -1    0    0    0  501 -0.00000000000E+00  0.00000000000E+00  0.10206429400E+04  0.10206429400E+04  0.00000000000E+00 0.  1.
          2   -1    0    0  501    0  0.00000000000E+00 -0.00000000000E+00 -0.35905214953E+04  0.35905214953E+04  0.00000000000E+00 0. -1.
         23    2    1    2    0    0 -0.85855868891E+03  0.17093500655E+04 -0.12392001942E+04  0.22809915727E+04  0.91130482395E+02 0.  0.
         11    1    3    3    0    0 -0.57552545007E+03  0.12359397745E+04 -0.89199700331E+03  0.16292437890E+04  0.00000000000E+00 0.  1.
        -11    1    3    3    0    0 -0.28303323884E+03  0.47341029099E+03 -0.34720319086E+03  0.65174778377E+03  0.00000000000E+00 0. -1.
         22    1    1    2    0    0  0.85855868891E+03 -0.17093500655E+04 -0.13306783611E+04  0.23301728626E+04  0.00000000000E+00 0. -1.
<mgrwt>
<rscale>  0 0.38286501E+04</rscale>
<asrwt>0</asrwt>
<pdfrwt beam="1">  1        2 0.55238792E+00 0.38286501E+04</pdfrwt>
<pdfrwt beam="2">  1       -2 0.15702199E+00 0.38286501E+04</pdfrwt>
<totfact> 0.14840711E-01</totfact>
</mgrwt>
</event>
<event>
 6    1  0.1603085E-006  0.4889612E+04  0.7818608E-02  0.7845765E-01
          2   -1    0    0  501    0  0.00000000000E+00  0.00000000000E+00  0.34923635927E+04  0.34923635927E+04  0.00000000000E+00 0. -1.
         -2   -1    0    0    0  501 -0.00000000000E+00 -0.00000000000E+00 -0.17114701874E+04  0.17114701874E+04  0.00000000000E+00 0.  1.
         23    2    1    2    0    0  0.38697259189E+03  0.17351582503E+04 -0.89439710923E+03  0.19917158997E+04  0.80399600671E+02 0.  0.
         13    1    3    3    0    0  0.33785323901E+02  0.28772434419E+03 -0.14520927822E+03  0.32405629269E+03  0.00000000000E+00 0. -1.
        -13    1    3    3    0    0  0.35318726799E+03  0.14474339061E+04 -0.74918783101E+03  0.16676596070E+04  0.00000000000E+00 0.  1.
         22    1    1    2    0    0 -0.38697259189E+03 -0.17351582503E+04  0.26752905145E+04  0.32121178804E+04  0.00000000000E+00 0. -1.
<mgrwt>
<rscale>  0 0.48896119E+04</rscale>
<asrwt>0</asrwt>
<pdfrwt beam="1">  1        2 0.53728671E+00 0.48896119E+04</pdfrwt>
<pdfrwt beam="2">  1       -2 0.26330311E+00 0.48896119E+04</pdfrwt>
<totfact> 0.32129455E-02</totfact>
</mgrwt>
</event>
<event>
 6    1  0.1603085E-006  0.3414509E+04  0.7818608E-02  0.8134355E-01
         -2   -1    0    0    0  501 -0.00000000000E+00  0.00000000000E+00  0.15169858602E+04  0.15169858602E+04  0.00000000000E+00 0.  1.
          2   -1    0    0  501    0  0.00000000000E+00 -0.00000000000E+00 -0.19213875678E+04  0.19213875678E+04  0.00000000000E+00 0. -1.
         23    2    1    2    0    0 -0.85707529800E+03 -0.58798775313E+03  0.11601206750E+04  0.15600662247E+04  0.87286771525E+02 0.  0.
         11    1    3    3    0    0 -0.80163547026E+03 -0.57178064989E+03  0.10829114027E+04  0.14636425947E+04  0.00000000000E+00 0. -1.
        -11    1    3    3    0    0 -0.55439827743E+02 -0.16207103248E+02  0.77209272338E+02  0.96423630044E+02  0.00000000000E+00 0.  1.
         22    1    1    2    0    0  0.85707529800E+03  0.58798775313E+03 -0.15645223826E+04  0.18783072033E+04  0.00000000000E+00 0. -1.
<mgrwt>
<rscale>  0 0.34145089E+04</rscale>
<asrwt>0</asrwt>
<pdfrwt beam="1">  1        2 0.29559809E+00 0.34145089E+04</pdfrwt>
<pdfrwt beam="2">  1       -2 0.23338244E+00 0.34145089E+04</pdfrwt>
<totfact> 0.49791304E-01</totfact>
</mgrwt>
</event>
<event>
 6    1  0.1603085E-006  0.3344813E+04  0.7818608E-02  0.8151585E-01
         -1   -1    0    0    0  501 -0.00000000000E+00  0.00000000000E+00  0.63943960965E+03  0.63943960965E+03  0.00000000000E+00 0.  1.
          1   -1    0    0  501    0  0.00000000000E+00 -0.00000000000E+00 -0.43740536062E+04  0.43740536062E+04  0.00000000000E+00 0. -1.
         23    2    1    2    0    0 -0.96367556524E+03  0.13636089965E+04 -0.19719051666E+04  0.25854811669E+04  0.90569245561E+02 0.  0.
         11    1    3    3    0    0 -0.26388135491E+03  0.33752978987E+03 -0.45466091243E+03  0.62472095676E+03  0.00000000000E+00 0.  1.
        -11    1    3    3    0    0 -0.69979421033E+03  0.10260792066E+04 -0.15172442541E+04  0.19607602102E+04  0.00000000000E+00 0. -1.
         22    1    1    2    0    0  0.96367556524E+03 -0.13636089965E+04 -0.17627088300E+04  0.24280120489E+04  0.00000000000E+00 0. -1.
<mgrwt>
<rscale>  0 0.33448128E+04</rscale>
<asrwt>0</asrwt>
<pdfrwt beam="1">  1        1 0.67293135E+00 0.33448128E+04</pdfrwt>
<pdfrwt beam="2">  1       -1 0.98375321E-01 0.33448128E+04</pdfrwt>
<totfact> 0.35160172E-02</totfact>
</mgrwt>
</event>
<event>
 6    1  0.1603085E-006  0.2179908E+04  0.7818608E-02  0.8526838E-01
         -1   -1    0    0    0  501 -0.00000000000E+00  0.00000000000E+00  0.48581479594E+03  0.48581479594E+03  0.00000000000E+00 0.  1.
          1   -1    0    0  501    0  0.00000000000E+00 -0.00000000000E+00 -0.24453762196E+04  0.24453762196E+04  0.00000000000E+00 0. -1.
         23    2    1    2    0    0  0.23636379279E+03  0.81865305650E+03 -0.18911955738E+04  0.20763608810E+04  0.92699192346E+02 0.  0.
         13    1    3    3    0    0  0.12571710420E+03  0.28609048227E+03 -0.65036570370E+03  0.72154563465E+03  0.00000000000E+00 0.  1.
        -13    1    3    3    0    0  0.11064668859E+03  0.53256257423E+03 -0.12408298701E+04  0.13548152463E+04  0.00000000000E+00 0. -1.
         22    1    1    2    0    0 -0.23636379279E+03 -0.81865305650E+03 -0.68365849818E+02  0.85483013452E+03  0.00000000000E+00 0.  1.
<mgrwt>
<rscale>  0 0.21799082E+04</rscale>
<asrwt>0</asrwt>
<pdfrwt beam="1">  1        1 0.37621173E+00 0.21799082E+04</pdfrwt>
<pdfrwt beam="2">  1       -1 0.74740738E-01 0.21799082E+04</pdfrwt>
<totfact> 0.24312549E+00</totfact>
</mgrwt>
</event>
<event>
 6    1  0.1603085E-006  0.1477412E+04  0.7818608E-02  0.8899614E-01
          2   -1    0    0  501    0  0.00000000000E+00  0.00000000000E+00  0.12544513185E+04  0.12544513185E+04  0.00000000000E+00 0. -1.
         -2   -1    0    0    0  501 -0.00000000000E+00 -0.00000000000E+00 -0.43500033230E+03  0.43500033230E+03  0.00000000000E+00 0.  1.
         23    2    1    2    0    0 -0.35568446042E+03  0.15397523026E+03  0.11265188187E+04  0.11949716606E+04  0.93235260580E+02 0.  0.
         13    1    3    3    0    0 -0.20285524988E+03  0.13553083948E+03  0.72556717847E+03  0.76548454676E+03  0.00000000000E+00 0.  1.
        -13    1    3    3    0    0 -0.15282921054E+03  0.18444390777E+02  0.40095164022E+03  0.42948711382E+03  0.00000000000E+00 0. -1.
         22    1    1    2    0    0  0.35568446042E+03 -0.15397523026E+03 -0.30706783253E+03  0.49447999018E+03  0.00000000000E+00 0.  1.
<mgrwt>
<rscale>  0 0.14774123E+04</rscale>
<asrwt>0</asrwt>
<pdfrwt beam="1">  1        2 0.19299251E+00 0.14774123E+04</pdfrwt>
<pdfrwt beam="2">  1       -2 0.66923128E-01 0.14774123E+04</pdfrwt>
<totfact> 0.34881328E+01</totfact>
</mgrwt>
</event>
<event>
 6    1  0.1603085E-006  0.1280968E+04  0.7818608E-02  0.9044796E-01
          3   -1    0    0  501    0  0.00000000000E+00  0.00000000000E+00  0.99865148315E+03  0.99865148315E+03  0.00000000000E+00 0. -1.
         -3   -1    0    0    0  501 -0.00000000000E+00 -0.00000000000E+00 -0.41077346786E+03  0.41077346786E+03  0.00000000000E+00 0.  1.
         23    2    1    2    0    0 -0.59926376906E+03  0.21518719337E+03  0.32650898303E+03  0.72113986173E+03  0.89509726188E+02 0.  0.
         13    1    3    3    0    0 -0.88384387092E+02  0.40355898312E+02  0.87069762038E+02  0.13046663126E+03  0.00000000000E+00 0. -1.
        -13    1    3    3    0    0 -0.51087938197E+03  0.17483129505E+03  0.23943922099E+03  0.59067323047E+03  0.00000000000E+00 0.  1.
         22    1    1    2    0    0  0.59926376906E+03 -0.21518719337E+03  0.26136903227E+03  0.68828508928E+03  0.00000000000E+00 0. -1.
<mgrwt>
<rscale>  0 0.12809677E+04</rscale>
<asrwt>0</asrwt>
<pdfrwt beam="1">  1        3 0.15363869E+00 0.12809677E+04</pdfrwt>
<pdfrwt beam="2">  1       -3 0.63195918E-01 0.12809677E+04</pdfrwt>
<totfact> 0.19020495E+00</totfact>
</mgrwt>
</event>
<event>
 6    1  0.1603085E-006  0.1690919E+04  0.7818608E-02  0.8766560E-01
         -2   -1    0    0    0  501 -0.00000000000E+00  0.00000000000E+00  0.87089378247E+03  0.87089378247E+03  0.00000000000E+00 0.  1.
          2   -1    0    0  501    0  0.00000000000E+00 -0.00000000000E+00 -0.82076841960E+03  0.82076841960E+03  0.00000000000E+00 0. -1.
         23    2    1    2    0    0  0.75205774679E+01  0.27497814947E+03  0.82245364306E+03  0.87180824303E+03  0.89163197980E+02 0.  0.
         13    1    3    3    0    0 -0.17037822164E+02  0.97871486006E+02  0.18790625347E+03  0.21255087686E+03  0.00000000000E+00 0. -1.
        -13    1    3    3    0    0  0.24558399632E+02  0.17710666346E+03  0.63454738958E+03  0.65925736618E+03  0.00000000000E+00 0.  1.
         22    1    1    2    0    0 -0.75205774679E+01 -0.27497814947E+03 -0.77232828019E+03  0.81985395904E+03  0.00000000000E+00 0. -1.
<mgrwt>
<rscale>  0 0.16909194E+04</rscale>
<asrwt>0</asrwt>
<pdfrwt beam="1">  1        2 0.12627206E+00 0.16909194E+04</pdfrwt>
<pdfrwt beam="2">  1       -2 0.13398366E+00 0.16909194E+04</pdfrwt>
<totfact> 0.12744381E+01</totfact>
</mgrwt>
</event>
<event>
 6    1  0.1603085E-006  0.2886742E+04  0.7818608E-02  0.8276833E-01
          2   -1    0    0  501    0  0.00000000000E+00  0.00000000000E+00  0.21208137892E+04  0.21208137892E+04  0.00000000000E+00 0. -1.
         -2   -1    0    0    0  501 -0.00000000000E+00 -0.00000000000E+00 -0.98232120286E+03  0.98232120286E+03  0.00000000000E+00 0.  1.
         23    2    1    2    0    0  0.11226916709E+04  0.51823381923E+03  0.13672259237E+04  0.18456288017E+04  0.89644119068E+02 0.  0.
         11    1    3    3    0    0  0.10305888117E+04  0.46405605623E+03  0.12808621297E+04  0.17082356739E+04  0.00000000000E+00 0. -1.
        -11    1    3    3    0    0  0.92102859154E+02  0.54177763004E+02  0.86363793953E+02  0.13739312783E+03  0.00000000000E+00 0.  1.
         22    1    1    2    0    0 -0.11226916709E+04 -0.51823381923E+03 -0.22873333730E+03  0.12575061904E+04  0.00000000000E+00 0.  1.
<mgrwt>
<rscale>  0 0.28867424E+04</rscale>
<asrwt>0</asrwt>
<pdfrwt beam="1">  1        2 0.32627904E+00 0.28867424E+04</pdfrwt>
<pdfrwt beam="2">  1       -2 0.15112634E+00 0.28867424E+04</pdfrwt>
<totfact> 0.14517171E+00</totfact>
</mgrwt>
</event>
<event>
 6    1  0.1603085E-006  0.9388059E+03  0.7818608E-02  0.9378331E-01
          2   -1    0    0  501    0  0.00000000000E+00  0.00000000000E+00  0.69650615176E+03  0.69650615176E+03  0.00000000000E+00 0. -1.
         -2   -1    0    0    0  501 -0.00000000000E+00 -0.00000000000E+00 -0.31634915204E+03  0.31634915204E+03  0.00000000000E+00 0.  1.
         23    2    1    2    0    0  0.20714858741E+03 -0.31835065366E+03  0.48104308683E+03  0.61987225262E+03  0.92636290006E+02 0.  0.
         11    1    3    3    0    0  0.15572011841E+03 -0.25360604598E+03  0.42919293286E+03  0.52227517216E+03  0.00000000000E+00 0. -1.
        -11    1    3    3    0    0  0.51428469005E+02 -0.64744607679E+02  0.51850153969E+02  0.97597080460E+02  0.00000000000E+00 0.  1.
         22    1    1    2    0    0 -0.20714858741E+03  0.31835065366E+03 -0.10088608711E+03  0.39298305119E+03  0.00000000000E+00 0.  1.
<mgrwt>
<rscale>  0 0.93880590E+03</rscale>
<asrwt>0</asrwt>
<pdfrwt beam="1">  1        2 0.10715479E+00 0.93880590E+03</pdfrwt>
<pdfrwt beam="2">  1       -2 0.48669100E-01 0.93880590E+03</pdfrwt>
<totfact> 0.16509192E+02</totfact>
</mgrwt>
</event>
<event>
 6    1  0.1603085E-006  0.2470049E+04  0.7818608E-02  0.8413734E-01
          2   -1    0    0  501    0  0.00000000000E+00  0.00000000000E+00  0.11792016584E+04  0.11792016584E+04  0.00000000000E+00 0.  1.
         -2   -1    0    0    0  501 -0.00000000000E+00 -0.00000000000E+00 -0.12934896400E+04  0.12934896400E+04  0.00000000000E+00 0. -1.
         23    2    1    2    0    0 -0.78261928946E+03  0.69185458841E+03  0.59917867433E+03  0.12077049771E+04  0.91545094123E+02 0.  0.
         13    1    3    3    0    0 -0.75232572970E+03  0.67290082127E+03  0.55851873575E+03  0.11535738802E+04  0.00000000000E+00 0. -1.
        -13    1    3    3    0    0 -0.30293559761E+02  0.18953767139E+02  0.40659938577E+02  0.54131096948E+02  0.00000000000E+00 0.  1.
         22    1    1    2    0    0  0.78261928946E+03 -0.69185458841E+03 -0.71346665596E+03  0.12649863212E+04  0.00000000000E+00 0.  1.
<mgrwt>
<rscale>  0 0.24700487E+04</rscale>
<asrwt>0</asrwt>
<pdfrwt beam="1">  1        2 0.18141564E+00 0.24700487E+04</pdfrwt>
<pdfrwt beam="2">  1       -2 0.19899841E+00 0.24700487E+04</pdfrwt>
<totfact> 0.23533287E+00</totfact>
</mgrwt>
</event>
<event>
 6    1  0.1603085E-006  0.2293035E+04  0.7818608E-02  0.8480672E-01
          2   -1    0    0  501    0  0.00000000000E+00  0.00000000000E+00  0.10495274569E+04  0.10495274569E+04  0.00000000000E+00 0. -1.
         -2   -1    0    0    0  501 -0.00000000000E+00 -0.00000000000E+00 -0.12524707976E+04  0.12524707976E+04  0.00000000000E+00 0.  1.
         23    2    1    2    0    0 -0.35176874138E+03 -0.74638612014E+03 -0.89814300629E+03  0.12230468827E+04  0.91374666883E+02 0.  0.
         13    1    3    3    0    0 -0.26610826388E+03 -0.62236001219E+03 -0.77001294582E+03  0.10252148700E+04  0.00000000000E+00 0.  1.
        -13    1    3    3    0    0 -0.85660477496E+02 -0.12402610795E+03 -0.12813006047E+03  0.19783201272E+03  0.00000000000E+00 0. -1.
         22    1    1    2    0    0  0.35176874138E+03  0.74638612014E+03  0.69519966554E+03  0.10789513718E+04  0.00000000000E+00 0. -1.
<mgrwt>
<rscale>  0 0.22930351E+04</rscale>
<asrwt>0</asrwt>
<pdfrwt beam="1">  1        2 0.16146576E+00 0.22930351E+04</pdfrwt>
<pdfrwt beam="2">  1       -2 0.19268781E+00 0.22930351E+04</pdfrwt>
<totfact> 0.31593229E+00</totfact>
</mgrwt>
</event>
<event>
 6    1  0.1603085E-006  0.3496863E+04  0.7818608E-02  0.8114534E-01
          2   -1    0    0  501    0  0.00000000000E+00  0.00000000000E+00  0.28302563967E+04  0.28302563967E+04  0.00000000000E+00 0. -1.
         -2   -1    0    0    0  501 -0.00000000000E+00 -0.00000000000E+00 -0.10801184497E+04  0.10801184497E+04  0.00000000000E+00 0.  1.
         23    2    1    2    0    0 -0.16711075678E+04  0.50861208968E+03  0.83022493083E+03  0.19361593774E+04  0.90293621396E+02 0.  0.
         13    1    3    3    0    0 -0.14461716539E+04  0.43485439937E+03  0.75073068096E+03  0.16864481482E+04  0.00000000000E+00 0.  1.
        -13    1    3    3    0    0 -0.22493591385E+03  0.73757690309E+02  0.79494249872E+02  0.24971122918E+03  0.00000000000E+00 0. -1.
         22    1    1    2    0    0  0.16711075678E+04 -0.50861208968E+03  0.91991301609E+03  0.19742154690E+04  0.00000000000E+00 0.  1.
<mgrwt>
<rscale>  0 0.34968627E+04</rscale>
<asrwt>0</asrwt>
<pdfrwt beam="1">  1        2 0.43542406E+00 0.34968627E+04</pdfrwt>
<pdfrwt beam="2">  1       -2 0.16617207E+00 0.34968627E+04</pdfrwt>
<totfact> 0.41345173E-01</totfact>
</mgrwt>
</event>
<event>
 6    1  0.1603085E-006  0.2520895E+04  0.7818608E-02  0.8395579E-01
          1   -1    0    0  501    0  0.00000000000E+00  0.00000000000E+00  0.14437686784E+04  0.14437686784E+04  0.00000000000E+00 0. -1.
         -1   -1    0    0    0  501 -0.00000000000E+00 -0.00000000000E+00 -0.11004036163E+04  0.11004036163E+04  0.00000000000E+00 0.  1.
         23    2    1    2    0    0  0.12271251129E+04 -0.13035735825E+02 -0.11104091102E+03  0.12355505918E+04  0.90825150211E+02 0.  0.
         13    1    3    3    0    0  0.60472048504E+03  0.25964959733E+02 -0.86649461074E+02  0.61144842241E+03  0.00000000000E+00 0. -1.
        -13    1    3    3    0    0  0.62240462782E+03 -0.39000695558E+02 -0.24391449944E+02  0.62410216937E+03  0.00000000000E+00 0.  1.
         22    1    1    2    0    0 -0.12271251129E+04  0.13035735825E+02  0.45440597310E+03  0.13086217029E+04  0.00000000000E+00 0. -1.
<mgrwt>
<rscale>  0 0.25208953E+04</rscale>
<asrwt>0</asrwt>
<pdfrwt beam="1">  1        1 0.22211826E+00 0.25208953E+04</pdfrwt>
<pdfrwt beam="2">  1       -1 0.16929286E+00 0.25208953E+04</pdfrwt>
<totfact> 0.15810647E+00</totfact>
</mgrwt>
</event>
<event>
 6    1  0.1603085E-006  0.2588019E+04  0.7818608E-02  0.8372282E-01
         -1   -1    0    0    0  501 -0.00000000000E+00  0.00000000000E+00  0.21640612329E+04  0.21640612329E+04  0.00000000000E+00 0. -1.
          1   -1    0    0  501    0  0.00000000000E+00 -0.00000000000E+00 -0.77375816348E+03  0.77375816348E+03  0.00000000000E+00 0.  1.
         23    2    1    2    0    0  0.98807225748E+03 -0.75734259573E+03  0.10899837874E+04  0.16571764857E+04  0.91184729222E+02 0.  0.
         11    1    3    3    0    0  0.92305993777E+03 -0.72252488659E+03  0.99978556160E+03  0.15406664239E+04  0.00000000000E+00 0.  1.
        -11    1    3    3    0    0  0.65012319714E+02 -0.34817709135E+02  0.90198225779E+02  0.11651006187E+03  0.00000000000E+00 0. -1.
         22    1    1    2    0    0 -0.98807225748E+03  0.75734259573E+03  0.30031928199E+03  0.12806429106E+04  0.00000000000E+00 0.  1.
<mgrwt>
<rscale>  0 0.25880186E+04</rscale>
<asrwt>0</asrwt>
<pdfrwt beam="1">  1        1 0.11903972E+00 0.25880186E+04</pdfrwt>
<pdfrwt beam="2">  1       -1 0.33293250E+00 0.25880186E+04</pdfrwt>
<totfact> 0.41409651E-01</totfact>
</mgrwt>
</event>
<event>
 6    1  0.1603085E-006  0.2778796E+04  0.7818608E-02  0.8309882E-01
         -1   -1    0    0    0  501 -0.00000000000E+00  0.00000000000E+00  0.10328095224E+04  0.10328095224E+04  0.00000000000E+00 0.  1.
          1   -1    0    0  501    0  0.00000000000E+00 -0.00000000000E+00 -0.18691018285E+04  0.18691018285E+04  0.00000000000E+00 0. -1.
         23    2    1    2    0    0  0.37179831373E+03  0.12862364808E+04 -0.36703825141E+02  0.13424306650E+04  0.90192288595E+02 0.  0.
         13    1    3    3    0    0  0.27974893400E+03  0.87822079039E+03  0.83763602826E+01  0.92173824167E+03  0.00000000000E+00 0. -1.
        -13    1    3    3    0    0  0.92049379733E+02  0.40801569042E+03 -0.45080185424E+02  0.42069242334E+03  0.00000000000E+00 0.  1.
         22    1    1    2    0    0 -0.37179831373E+03 -0.12862364808E+04 -0.79958848101E+03  0.15594806859E+04  0.00000000000E+00 0. -1.
<mgrwt>
<rscale>  0 0.27787955E+04</rscale>
<asrwt>0</asrwt>
<pdfrwt beam="1">  1        1 0.28755413E+00 0.27787955E+04</pdfrwt>
<pdfrwt beam="2">  1       -1 0.15889377E+00 0.27787955E+04</pdfrwt>
<totfact> 0.94485940E-01</totfact>
</mgrwt>
</event>
<event>
 6    1  0.1603085E-006  0.2978788E+04  0.7818608E-02  0.8249814E-01
         -2   -1    0    0    0  501 -0.00000000000E+00  0.00000000000E+00  0.11177259058E+04  0.11177259058E+04  0.00000000000E+00 0.  1.
          2   -1    0    0  501    0  0.00000000000E+00 -0.00000000000E+00 -0.19846493249E+04  0.19846493249E+04  0.00000000000E+00 0. -1.
         23    2    1    2    0    0  0.32176908510E+03 -0.13962788965E+04 -0.16287155868E+02  0.14360282820E+04  0.93711547579E+02 0.  0.
         13    1    3    3    0    0  0.24920099116E+03 -0.12031563653E+04 -0.32141933654E+02  0.12291132890E+04  0.00000000000E+00 0. -1.
        -13    1    3    3    0    0  0.72568093946E+02 -0.19312253124E+03  0.15854777786E+02  0.20691499295E+03  0.00000000000E+00 0.  1.
         22    1    1    2    0    0 -0.32176908510E+03  0.13962788965E+04 -0.85063626330E+03  0.16663469487E+04  0.00000000000E+00 0. -1.
<mgrwt>
<rscale>  0 0.29787876E+04</rscale>
<asrwt>0</asrwt>
<pdfrwt beam="1">  1        2 0.30533066E+00 0.29787876E+04</pdfrwt>
<pdfrwt beam="2">  1       -2 0.17195783E+00 0.29787876E+04</pdfrwt>
<totfact> 0.12062379E+00</totfact>
</mgrwt>
</event>
<event>
 6    1  0.1603085E-006  0.9360817E+03  0.7818608E-02  0.9381569E-01
          1   -1    0    0  501    0  0.00000000000E+00  0.00000000000E+00  0.11185520789E+04  0.11185520789E+04  0.00000000000E+00 0. -1.
         -1   -1    0    0    0  501 -0.00000000000E+00 -0.00000000000E+00 -0.19584446501E+03  0.19584446501E+03  0.00000000000E+00 0.  1.
         23    2    1    2    0    0 -0.10739889710E+03  0.22711925775E+03 -0.81724792879E+02  0.27902118197E+03  0.89756325027E+02 0.  0.
         13    1    3    3    0    0 -0.34655963925E+02  0.15807951972E+03 -0.24860565945E+02  0.16373215363E+03  0.00000000000E+00 0. -1.
        -13    1    3    3    0    0 -0.72742933172E+02  0.69039738020E+02 -0.56864226934E+02  0.11528902835E+03  0.00000000000E+00 0.  1.
         22    1    1    2    0    0  0.10739889710E+03 -0.22711925775E+03  0.10044324067E+04  0.10353753619E+04  0.00000000000E+00 0. -1.
<mgrwt>
<rscale>  0 0.93608169E+03</rscale>
<asrwt>0</asrwt>
<pdfrwt beam="1">  1        1 0.17208493E+00 0.93608169E+03</pdfrwt>
<pdfrwt beam="2">  1       -1 0.30129918E-01 0.93608169E+03</pdfrwt>
<totfact> 0.12491878E+02</totfact>
</mgrwt>
</event>
<event>
 6    1  0.1603085E-006  0.3370147E+04  0.7818608E-02  0.8145272E-01
         -2   -1    0    0    0  501 -0.00000000000E+00  0.00000000000E+00  0.12436856050E+04  0.12436856050E+04  0.00000000000E+00 0.  1.
          2   -1    0    0  501    0  0.00000000000E+00 -0.00000000000E+00 -0.22831114479E+04  0.22831114479E+04  0.00000000000E+00 0. -1.
         23    2    1    2    0    0  0.39353620402E+03  0.11852915718E+04  0.66206464146E+03  0.14161439023E+04  0.85715276257E+02 0.  0.
         11    1    3    3    0    0  0.16868212238E+03  0.38649965242E+03  0.20822708446E+03  0.47031283039E+03  0.00000000000E+00 0.  1.
        -11    1    3    3    0    0  0.22485408164E+03  0.79879191937E+03  0.45383755700E+03  0.94583107193E+03  0.00000000000E+00 0. -1.
         22    1    1    2    0    0 -0.39353620402E+03 -0.11852915718E+04 -0.17014904843E+04  0.21106531506E+04  0.00000000000E+00 0. -1.
<mgrwt>
<rscale>  0 0.33701471E+04</rscale>
<asrwt>0</asrwt>
<pdfrwt beam="1">  1        2 0.35124791E+00 0.33701471E+04</pdfrwt>
<pdfrwt beam="2">  1       -2 0.19133625E+00 0.33701471E+04</pdfrwt>
<totfact> 0.58439782E-01</totfact>
</mgrwt>
</event>
<event>
 6    1  0.1603085E-006  0.2901153E+04  0.7818608E-02  0.8272535E-01
         -4   -1    0    0    0  501 -0.00000000000E+00  0.00000000000E+00  0.11258150572E+04  0.11258150572E+04  0.00000000000E+00 0.  1.
          4   -1    0    0  501    0  0.00000000000E+00 -0.00000000000E+00 -0.18690206754E+04  0.18690206754E+04  0.00000000000E+00 0. -1.
         23    2    1    2    0    0 -0.12008405052E+04 -0.23272498683E+03  0.43019226212E+03  0.12998308878E+04  0.91192741662E+02 0.  0.
         13    1    3    3    0    0 -0.56623948546E+03 -0.80205603973E+02  0.23811018308E+03  0.61948087387E+03  0.00000000000E+00 0. -1.
        -13    1    3    3    0    0 -0.63460101970E+03 -0.15251938286E+03  0.19208207904E+03  0.68035001392E+03  0.00000000000E+00 0.  1.
         22    1    1    2    0    0  0.12008405052E+04  0.23272498683E+03 -0.11733978803E+04  0.16950048448E+04  0.00000000000E+00 0. -1.
<mgrwt>
<rscale>  0 0.29011526E+04</rscale>
<asrwt>0</asrwt>
<pdfrwt beam="1">  1        4 0.28754164E+00 0.29011526E+04</pdfrwt>
<pdfrwt beam="2">  1       -4 0.17320232E+00 0.29011526E+04</pdfrwt>
<totfact> 0.12709006E-02</totfact>
</mgrwt>
</event>
<event>
 6    1  0.1603085E-006  0.2186892E+04  0.7818608E-02  0.8523904E-01
         -1   -1    0    0    0  501 -0.00000000000E+00  0.00000000000E+00  0.11477255147E+04  0.11477255147E+04  0.00000000000E+00 0.  1.
          1   -1    0    0  501    0  0.00000000000E+00 -0.00000000000E+00 -0.10417335697E+04  0.10417335697E+04  0.00000000000E+00 0. -1.
         23    2    1    2    0    0  0.98478294472E+01  0.78735301047E+03 -0.70364522039E+03  0.10600636344E+04  0.92717689921E+02 0.  0.
         13    1    3    3    0    0 -0.39920364006E+02  0.38340201074E+03 -0.35855789383E+03  0.52645465192E+03  0.00000000000E+00 0. -1.
        -13    1    3    3    0    0  0.49768193453E+02  0.40395099973E+03 -0.34508732656E+03  0.53360898251E+03  0.00000000000E+00 0.  1.
         22    1    1    2    0    0 -0.98478294472E+01 -0.78735301047E+03  0.80963716538E+03  0.11293954500E+04  0.00000000000E+00 0.  1.
<mgrwt>
<rscale>  0 0.21868920E+04</rscale>
<asrwt>0</asrwt>
<pdfrwt beam="1">  1        1 0.16026670E+00 0.21868920E+04</pdfrwt>
<pdfrwt beam="2">  1       -1 0.17657316E+00 0.21868920E+04</pdfrwt>
<totfact> 0.28240781E+00</totfact>
</mgrwt>
</event>
<event>
 6    1  0.1603085E-006  0.5851975E+04  0.7818608E-02  0.7709031E-01
          1   -1    0    0  501    0  0.00000000000E+00  0.00000000000E+00  0.30461264516E+04  0.30461264516E+04  0.00000000000E+00 0. -1.
         -1   -1    0    0    0  501 -0.00000000000E+00 -0.00000000000E+00 -0.28105864168E+04  0.28105864168E+04  0.00000000000E+00 0.  1.
         23    2    1    2    0    0 -0.28792592519E+04  0.74152413622E+02 -0.39389238453E+03  0.29085240022E+04  0.93425054968E+02 0.  0.
         11    1    3    3    0    0 -0.54587597080E+03  0.22334585768E+00 -0.10898421318E+03  0.55664906728E+03  0.00000000000E+00 0.  1.
        -11    1    3    3    0    0 -0.23333832811E+04  0.73929067765E+02 -0.28490817135E+03  0.23518749349E+04  0.00000000000E+00 0. -1.
         22    1    1    2    0    0  0.28792592519E+04 -0.74152413622E+02  0.62943241931E+03  0.29481888661E+04  0.00000000000E+00 0.  1.
<mgrwt>
<rscale>  0 0.58519746E+04</rscale>
<asrwt>0</asrwt>
<pdfrwt beam="1">  1        1 0.46863484E+00 0.58519746E+04</pdfrwt>
<pdfrwt beam="2">  1       -1 0.43239791E+00 0.58519746E+04</pdfrwt>
<totfact> 0.16031432E-03</totfact>
</mgrwt>
</event>
<event>
 6    1  0.1603085E-006  0.1354890E+04  0.7818608E-02  0.8987135E-01
         -2   -1    0    0    0  501 -0.00000000000E+00  0.00000000000E+00  0.16502451303E+03  0.16502451303E+03  0.00000000000E+00 0.  1.
          2   -1    0    0  501    0  0.00000000000E+00 -0.00000000000E+00 -0.27809919831E+04  0.27809919831E+04  0.00000000000E+00 0. -1.
         23    2    1    2    0    0 -0.43047737143E+03 -0.26966088494E+03 -0.34939661204E+03  0.62322265796E+03  0.91108335040E+02 0.  0.
         11    1    3    3    0    0 -0.23504020637E+03 -0.93707909828E+02 -0.16639473323E+03  0.30284035105E+03  0.00000000000E+00 0. -1.
        -11    1    3    3    0    0 -0.19543716506E+03 -0.17595297512E+03 -0.18300187881E+03  0.32038230692E+03  0.00000000000E+00 0.  1.
         22    1    1    2    0    0  0.43047737143E+03  0.26966088494E+03 -0.22665708580E+04  0.23227938382E+04  0.00000000000E+00 0. -1.
<mgrwt>
<rscale>  0 0.13548902E+04</rscale>
<asrwt>0</asrwt>
<pdfrwt beam="1">  1        2 0.42784492E+00 0.13548902E+04</pdfrwt>
<pdfrwt beam="2">  1       -2 0.25388387E-01 0.13548902E+04</pdfrwt>
<totfact> 0.32574987E+01</totfact>
</mgrwt>
</event>
<event>
 6    1  0.1603085E-006  0.1665992E+04  0.7818608E-02  0.8781002E-01
          1   -1    0    0  501    0  0.00000000000E+00  0.00000000000E+00  0.57656698414E+03  0.57656698414E+03  0.00000000000E+00 0.  1.
         -1   -1    0    0    0  501 -0.00000000000E+00 -0.00000000000E+00 -0.12034717540E+04  0.12034717540E+04  0.00000000000E+00 0. -1.
         23    2    1    2    0    0 -0.69792108088E+02  0.71343343744E+03 -0.76249044815E+03  0.10504897787E+04  0.90988371299E+02 0.  0.
         11    1    3    3    0    0 -0.21937323371E+02  0.33213827160E+03 -0.29013847160E+03  0.44156246480E+03  0.00000000000E+00 0.  1.
        -11    1    3    3    0    0 -0.47854784717E+02  0.38129516584E+03 -0.47235197655E+03  0.60892731394E+03  0.00000000000E+00 0. -1.
         22    1    1    2    0    0  0.69792108088E+02 -0.71343343744E+03  0.13558567829E+03  0.72954895941E+03  0.00000000000E+00 0.  1.
<mgrwt>
<rscale>  0 0.16659917E+04</rscale>
<asrwt>0</asrwt>
<pdfrwt beam="1">  1        1 0.88702613E-01 0.16659917E+04</pdfrwt>
<pdfrwt beam="2">  1       -1 0.18514950E+00 0.16659917E+04</pdfrwt>
<totfact> 0.66173464E+00</totfact>
</mgrwt>
</event>
<event>
 6    1  0.1603085E-006  0.2177098E+04  0.7818608E-02  0.8528021E-01
         -2   -1    0    0    0  501 -0.00000000000E+00  0.00000000000E+00  0.28199543411E+03  0.28199543411E+03  0.00000000000E+00 0. -1.
          2   -1    0    0  501    0  0.00000000000E+00 -0.00000000000E+00 -0.42019779462E+04  0.42019779462E+04  0.00000000000E+00 0.  1.
         23    2    1    2    0    0  0.10305797372E+04  0.18296356408E+03 -0.13628269941E+04  0.17208927439E+04  0.92758609105E+02 0.  0.
         13    1    3    3    0    0  0.78713564991E+03  0.11393350288E+03 -0.98231368639E+03  0.12639238715E+04  0.00000000000E+00 0. -1.
        -13    1    3    3    0    0  0.24344408725E+03  0.69030061203E+02 -0.38051330774E+03  0.45696887239E+03  0.00000000000E+00 0.  1.
         22    1    1    2    0    0 -0.10305797372E+04 -0.18296356408E+03 -0.25571555180E+04  0.27630806365E+04  0.00000000000E+00 0.  1.
<mgrwt>
<rscale>  0 0.21770977E+04</rscale>
<asrwt>0</asrwt>
<pdfrwt beam="1">  1        2 0.64645810E+00 0.21770977E+04</pdfrwt>
<pdfrwt beam="2">  1       -2 0.43383916E-01 0.21770977E+04</pdfrwt>
<totfact> 0.10785403E+00</totfact>
</mgrwt>
</event>
<event>
 6    1  0.1603085E-006  0.5767077E+03  0.7818608E-02  0.9954944E-01
          1   -1    0    0  501    0  0.00000000000E+00  0.00000000000E+00  0.50622637728E+03  0.50622637728E+03  0.00000000000E+00 0.  1.
         -1   -1    0    0    0  501 -0.00000000000E+00 -0.00000000000E+00 -0.16425052381E+03  0.16425052381E+03  0.00000000000E+00 0. -1.
         23    2    1    2    0    0 -0.11010800064E+03 -0.24884494893E+02 -0.12443431167E+03  0.19060040444E+03  0.90008923778E+02 0.  0.
         11    1    3    3    0    0 -0.42002074665E+02  0.29636592506E+02 -0.73138419921E+02  0.89396478455E+02  0.00000000000E+00 0.  1.
        -11    1    3    3    0    0 -0.68105925975E+02 -0.54521087399E+02 -0.51295891753E+02  0.10120392599E+03  0.00000000000E+00 0. -1.
         22    1    1    2    0    0  0.11010800064E+03  0.24884494893E+02  0.46641016514E+03  0.47987649665E+03  0.00000000000E+00 0.  1.
<mgrwt>
<rscale>  0 0.57670772E+03</rscale>
<asrwt>0</asrwt>
<pdfrwt beam="1">  1        1 0.77880980E-01 0.57670772E+03</pdfrwt>
<pdfrwt beam="2">  1       -1 0.25269312E-01 0.57670772E+03</pdfrwt>
<totfact> 0.60449562E+02</totfact>
</mgrwt>
</event>
<event>
 6    1  0.1603085E-006  0.3807861E+04  0.7818608E-02  0.8044470E-01
         -2   -1    0    0    0  501 -0.00000000000E+00  0.00000000000E+00  0.22076510195E+04  0.22076510195E+04  0.00000000000E+00 0.  1.
          2   -1    0    0  501    0  0.00000000000E+00 -0.00000000000E+00 -0.16419950266E+04  0.16419950266E+04  0.00000000000E+00 0. -1.
         23    2    1    2    0    0  0.75728092073E+03 -0.39931941668E+03 -0.14350054966E+04  0.16735080024E+04  0.91966676403E+02 0.  0.
         11    1    3    3    0    0  0.20340961692E+03 -0.63460378010E+02 -0.37149269214E+03  0.42826336774E+03  0.00000000000E+00 0. -1.
        -11    1    3    3    0    0  0.55387130380E+03 -0.33585903867E+03 -0.10635128044E+04  0.12452446347E+04  0.00000000000E+00 0.  1.
         22    1    1    2    0    0 -0.75728092073E+03  0.39931941668E+03  0.20006614895E+04  0.21761380437E+04  0.00000000000E+00 0.  1.
<mgrwt>
<rscale>  0 0.38078613E+04</rscale>
<asrwt>0</asrwt>
<pdfrwt beam="1">  1        2 0.25261462E+00 0.38078613E+04</pdfrwt>
<pdfrwt beam="2">  1       -2 0.33963862E+00 0.38078613E+04</pdfrwt>
<totfact> 0.15297540E-01</totfact>
</mgrwt>
</event>
<event>
 6    1  0.1603085E-006  0.2364034E+04  0.7818608E-02  0.8453093E-01
          1   -1    0    0  501    0  0.00000000000E+00  0.00000000000E+00  0.11852311256E+04  0.11852311256E+04  0.00000000000E+00 0. -1.
         -1   -1    0    0    0  501 -0.00000000000E+00 -0.00000000000E+00 -0.11788114554E+04  0.11788114554E+04  0.00000000000E+00 0.  1.
         23    2    1    2    0    0  0.49198422676E+03 -0.10059812854E+04  0.37615554406E+03  0.11847413292E+04  0.89845411517E+02 0.  0.
         13    1    3    3    0    0  0.15300820419E+03 -0.37923033851E+03  0.10365706855E+03  0.42186721615E+03  0.00000000000E+00 0.  1.
        -13    1    3    3    0    0  0.33897602256E+03 -0.62675094685E+03  0.27249847551E+03  0.76287411308E+03  0.00000000000E+00 0. -1.
         22    1    1    2    0    0 -0.49198422676E+03  0.10059812854E+04 -0.36973587391E+03  0.11793012517E+04  0.00000000000E+00 0.  1.
<mgrwt>
<rscale>  0 0.23640339E+04</rscale>
<asrwt>0</asrwt>
<pdfrwt beam="1">  1        1 0.18234325E+00 0.23640339E+04</pdfrwt>
<pdfrwt beam="2">  1       -1 0.18135561E+00 0.23640339E+04</pdfrwt>
<totfact> 0.20041789E+00</totfact>
</mgrwt>
</event>
<event>
 6    1  0.1603085E-006  0.2505362E+04  0.7818608E-02  0.8401078E-01
          2   -1    0    0  501    0  0.00000000000E+00  0.00000000000E+00  0.16226114539E+04  0.16226114539E+04  0.00000000000E+00 0. -1.
         -2   -1    0    0    0  501 -0.00000000000E+00 -0.00000000000E+00 -0.96708935760E+03  0.96708935760E+03  0.00000000000E+00 0.  1.
         23    2    1    2    0    0 -0.45907768717E+03 -0.37581993186E+03 -0.81030795638E+03  0.10083562294E+04  0.90500592031E+02 0.  0.
         13    1    3    3    0    0 -0.29574966124E+03 -0.18666921638E+03 -0.49300926295E+03  0.60445958659E+03  0.00000000000E+00 0. -1.
        -13    1    3    3    0    0 -0.16332802593E+03 -0.18915071548E+03 -0.31729869342E+03  0.40389664280E+03  0.00000000000E+00 0.  1.
         22    1    1    2    0    0  0.45907768717E+03  0.37581993186E+03  0.14658300527E+04  0.15813445821E+04  0.00000000000E+00 0. -1.
<mgrwt>
<rscale>  0 0.25053625E+04</rscale>
<asrwt>0</asrwt>
<pdfrwt beam="1">  1        2 0.24963253E+00 0.25053625E+04</pdfrwt>
<pdfrwt beam="2">  1       -2 0.14878298E+00 0.25053625E+04</pdfrwt>
<totfact> 0.29568619E+00</totfact>
</mgrwt>
</event>
<event>
 6    1  0.1603085E-006  0.3700214E+04  0.7818608E-02  0.8067914E-01
         -1   -1    0    0    0  501 -0.00000000000E+00  0.00000000000E+00  0.17348249114E+04  0.17348249114E+04  0.00000000000E+00 0.  1.
          1   -1    0    0  501    0  0.00000000000E+00 -0.00000000000E+00 -0.19730500345E+04  0.19730500345E+04  0.00000000000E+00 0. -1.
         23    2    1    2    0    0  0.17074514630E+04  0.68145597783E+03 -0.31704042788E+03  0.18677704379E+04  0.90989162558E+02 0.  0.
         13    1    3    3    0    0  0.26560663974E+03  0.10911608309E+03 -0.83209799510E+02  0.29895999298E+03  0.00000000000E+00 0.  1.
        -13    1    3    3    0    0  0.14418448232E+04  0.57233989474E+03 -0.23383062836E+03  0.15688104449E+04  0.00000000000E+00 0. -1.
         22    1    1    2    0    0 -0.17074514630E+04 -0.68145597783E+03  0.78815304817E+02  0.18401045080E+04  0.00000000000E+00 0.  1.
<mgrwt>
<rscale>  0 0.37002142E+04</rscale>
<asrwt>0</asrwt>
<pdfrwt beam="1">  1        1 0.30354616E+00 0.37002142E+04</pdfrwt>
<pdfrwt beam="2">  1       -1 0.26689614E+00 0.37002142E+04</pdfrwt>
<totfact> 0.13497412E-01</totfact>
</mgrwt>
</event>
<event>
 6    1  0.1603085E-006  0.3480915E+04  0.7818608E-02  0.8118328E-01
         -1   -1    0    0    0  501 -0.00000000000E+00  0.00000000000E+00  0.21833001395E+04  0.21833001395E+04  0.00000000000E+00 0.  1.
          1   -1    0    0  501    0  0.00000000000E+00 -0.00000000000E+00 -0.13874374876E+04  0.13874374876E+04  0.00000000000E+00 0. -1.
         23    2    1    2    0    0 -0.10542237516E+04  0.12743771244E+04  0.95017753118E+03  0.19096422489E+04  0.92040232532E+02 0.  0.
         13    1    3    3    0    0 -0.87800824823E+03  0.11117870433E+04  0.80856434782E+03  0.16311790883E+04  0.00000000000E+00 0.  1.
        -13    1    3    3    0    0 -0.17621550333E+03  0.16259008107E+03  0.14161318336E+03  0.27846316055E+03  0.00000000000E+00 0. -1.
         22    1    1    2    0    0  0.10542237516E+04 -0.12743771244E+04 -0.15431487921E+03  0.16610953782E+04  0.00000000000E+00 0. -1.
<mgrwt>
<rscale>  0 0.34809151E+04</rscale>
<asrwt>0</asrwt>
<pdfrwt beam="1">  1        1 0.21345192E+00 0.34809151E+04</pdfrwt>
<pdfrwt beam="2">  1       -1 0.33589233E+00 0.34809151E+04</pdfrwt>
<totfact> 0.12333727E-01</totfact>
</mgrwt>
</event>
<event>
 6    1  0.1603085E-006  0.2644110E+04  0.7818608E-02  0.8353371E-01
         -2   -1    0    0    0  501 -0.00000000000E+00  0.00000000000E+00  0.23386653943E+04  0.23386653943E+04  0.00000000000E+00 0.  1.
          2   -1    0    0  501    0  0.00000000000E+00 -0.00000000000E+00 -0.74736189061E+03  0.74736189061E+03  0.00000000000E+00 0. -1.
         23    2    1    2    0    0  0.30549640391E+02  0.49601224033E+03  0.22245955268E+04  0.22810302603E+04  0.85512382127E+02 0.  0.
         13    1    3    3    0    0  0.10634138048E+02  0.15674618904E+02  0.16433210278E+03  0.16542012748E+03  0.00000000000E+00 0.  1.
        -13    1    3    3    0    0  0.19915502343E+02  0.48033762142E+03  0.20602634240E+04  0.21156101329E+04  0.00000000000E+00 0. -1.
         22    1    1    2    0    0 -0.30549640391E+02 -0.49601224033E+03 -0.63329202312E+03  0.80499702461E+03  0.00000000000E+00 0. -1.
<mgrwt>
<rscale>  0 0.26441100E+04</rscale>
<asrwt>0</asrwt>
<pdfrwt beam="1">  1        2 0.11497875E+00 0.26441100E+04</pdfrwt>
<pdfrwt beam="2">  1       -2 0.35979467E+00 0.26441100E+04</pdfrwt>
<totfact> 0.44790665E-01</totfact>
</mgrwt>
</event>
<event>
 6    1  0.1603085E-006  0.4106812E+04  0.7818608E-02  0.7983339E-01
         -1   -1    0    0    0  501 -0.00000000000E+00  0.00000000000E+00  0.12241013499E+04  0.12241013499E+04  0.00000000000E+00 0.  1.
          1   -1    0    0  501    0  0.00000000000E+00 -0.00000000000E+00 -0.34445476550E+04  0.34445476550E+04  0.00000000000E+00 0. -1.
         23    2    1    2    0    0  0.75701116483E+03 -0.99525286112E+03  0.73922200072E+03  0.14556705360E+04  0.94516569224E+02 0.  0.
         11    1    3    3    0    0  0.46644252899E+03 -0.67446216908E+03  0.51313637868E+03  0.96735556725E+03  0.00000000000E+00 0. -1.
        -11    1    3    3    0    0  0.29056863584E+03 -0.32079069204E+03  0.22608562204E+03  0.48831496878E+03  0.00000000000E+00 0.  1.
         22    1    1    2    0    0 -0.75701116483E+03  0.99525286112E+03 -0.29596683058E+04  0.32129784689E+04  0.00000000000E+00 0. -1.
<mgrwt>
<rscale>  0 0.41068116E+04</rscale>
<asrwt>0</asrwt>
<pdfrwt beam="1">  1        1 0.52993040E+00 0.41068116E+04</pdfrwt>
<pdfrwt beam="2">  1       -1 0.18832329E+00 0.41068116E+04</pdfrwt>
<totfact> 0.38860200E-02</totfact>
</mgrwt>
</event>
<event>
 6    1  0.1603085E-006  0.2818053E+04  0.7818608E-02  0.8297685E-01
          2   -1    0    0  501    0  0.00000000000E+00  0.00000000000E+00  0.37540497311E+04  0.37540497311E+04  0.00000000000E+00 0. -1.
         -2   -1    0    0    0  501 -0.00000000000E+00 -0.00000000000E+00 -0.52885715507E+03  0.52885715507E+03  0.00000000000E+00 0.  1.
         23    2    1    2    0    0  0.11738125194E+04 -0.49385587498E+03  0.70295828856E+03  0.14574166178E+04  0.90462071186E+02 0.  0.
         13    1    3    3    0    0  0.59144875033E+03 -0.22235070216E+03  0.39200740733E+03  0.74358675783E+03  0.00000000000E+00 0. -1.
        -13    1    3    3    0    0  0.58236376906E+03 -0.27150517283E+03  0.31095088122E+03  0.71382985992E+03  0.00000000000E+00 0.  1.
         22    1    1    2    0    0 -0.11738125194E+04  0.49385587498E+03  0.25222342875E+04  0.28254902684E+04  0.00000000000E+00 0.  1.
<mgrwt>
<rscale>  0 0.28180533E+04</rscale>
<asrwt>0</asrwt>
<pdfrwt beam="1">  1        2 0.57754610E+00 0.28180533E+04</pdfrwt>
<pdfrwt beam="2">  1       -2 0.81362642E-01 0.28180533E+04</pdfrwt>
<totfact> 0.61515629E-01</totfact>
</mgrwt>
</event>
<event>
 6    1  0.1603085E-006  0.3287172E+04  0.7818608E-02  0.8166167E-01
          1   -1    0    0  501    0  0.00000000000E+00  0.00000000000E+00  0.67326555127E+03  0.67326555127E+03  0.00000000000E+00 0. -1.
         -1   -1    0    0    0  501 -0.00000000000E+00 -0.00000000000E+00 -0.40123461502E+04  0.40123461502E+04  0.00000000000E+00 0.  1.
         23    2    1    2    0    0  0.53013998547E+03  0.15390326336E+04 -0.13563007854E+04  0.21202490292E+04  0.78957418047E+02 0.  0.
         11    1    3    3    0    0  0.91423860861E+02  0.32325087733E+03 -0.24681768152E+03  0.41685539452E+03  0.00000000000E+00 0. -1.
        -11    1    3    3    0    0  0.43871612460E+03  0.12157817562E+04 -0.11094831039E+04  0.17033936347E+04  0.00000000000E+00 0.  1.
         22    1    1    2    0    0 -0.53013998547E+03 -0.15390326336E+04 -0.19827798135E+04  0.25653626722E+04  0.00000000000E+00 0. -1.
<mgrwt>
<rscale>  0 0.32871717E+04</rscale>
<asrwt>0</asrwt>
<pdfrwt beam="1">  1        1 0.10357932E+00 0.32871717E+04</pdfrwt>
<pdfrwt beam="2">  1       -1 0.61728402E+00 0.32871717E+04</pdfrwt>
<totfact> 0.90191213E-03</totfact>
</mgrwt>
</event>
<event>
 6    1  0.1603085E-006  0.3012347E+04  0.7818608E-02  0.8240214E-01
          2   -1    0    0  501    0  0.00000000000E+00  0.00000000000E+00  0.31121544179E+04  0.31121544179E+04  0.00000000000E+00 0. -1.
         -2   -1    0    0    0  501 -0.00000000000E+00 -0.00000000000E+00 -0.72893494320E+03  0.72893494320E+03  0.00000000000E+00 0.  1.
         23    2    1    2    0    0 -0.13341396750E+04 -0.40276992006E+03  0.46896716958E+03  0.14732814786E+04  0.92064260203E+02 0.  0.
         11    1    3    3    0    0 -0.10939592509E+04 -0.36139552112E+03  0.36770272514E+03  0.12093629973E+04  0.00000000000E+00 0.  1.
        -11    1    3    3    0    0 -0.24018042413E+03 -0.41374398934E+02  0.10126444444E+03  0.26391848122E+03  0.00000000000E+00 0. -1.
         22    1    1    2    0    0  0.13341396750E+04  0.40276992006E+03  0.19142523051E+04  0.23678078825E+04  0.00000000000E+00 0. -1.
<mgrwt>
<rscale>  0 0.30123467E+04</rscale>
<asrwt>0</asrwt>
<pdfrwt beam="1">  1        2 0.47879298E+00 0.30123467E+04</pdfrwt>
<pdfrwt beam="2">  1       -2 0.11214384E+00 0.30123467E+04</pdfrwt>
<totfact> 0.79190976E-01</totfact>
</mgrwt>
</event>
<event>
 6    1  0.1603085E-006  0.1912419E+04  0.7818608E-02  0.8648699E-01
          2   -1    0    0  501    0  0.00000000000E+00  0.00000000000E+00  0.17997111321E+04  0.17997111321E+04  0.00000000000E+00 0. -1.
         -2   -1    0    0    0  501 -0.00000000000E+00 -0.00000000000E+00 -0.50804653085E+03  0.50804653085E+03  0.00000000000E+00 0.  1.
         23    2    1    2    0    0 -0.92570309312E+03 -0.18823691617E+03  0.80866566653E+03  0.12467923835E+04  0.90508199117E+02 0.  0.
         11    1    3    3    0    0 -0.39278925750E+03 -0.11809446617E+03  0.38253799264E+03  0.56086096277E+03  0.00000000000E+00 0.  1.
        -11    1    3    3    0    0 -0.53291383562E+03 -0.70142449993E+02  0.42612767389E+03  0.68593142073E+03  0.00000000000E+00 0. -1.
         22    1    1    2    0    0  0.92570309312E+03  0.18823691617E+03  0.48299893467E+03  0.10609652794E+04  0.00000000000E+00 0.  1.
<mgrwt>
<rscale>  0 0.19124194E+04</rscale>
<asrwt>0</asrwt>
<pdfrwt beam="1">  1        2 0.27687863E+00 0.19124194E+04</pdfrwt>
<pdfrwt beam="2">  1       -2 0.78161006E-01 0.19124194E+04</pdfrwt>
<totfact> 0.11761379E+01</totfact>
</mgrwt>
</event>
<event>
 6    1  0.1603085E-006  0.2496406E+04  0.7818608E-02  0.8404267E-01
          2   -1    0    0  501    0  0.00000000000E+00  0.00000000000E+00  0.23814989375E+04  0.23814989375E+04  0.00000000000E+00 0. -1.
         -2   -1    0    0    0  501 -0.00000000000E+00 -0.00000000000E+00 -0.65421426807E+03  0.65421426807E+03  0.00000000000E+00 0.  1.
         23    2    1    2    0    0 -0.52118320120E+03  0.10329702666E+04  0.30118393968E+03  0.11992974595E+04  0.94568123210E+02 0.  0.
         11    1    3    3    0    0 -0.16247087331E+03  0.32689181168E+03  0.50023029994E+02  0.36845263569E+03  0.00000000000E+00 0.  1.
        -11    1    3    3    0    0 -0.35871232788E+03  0.70607845495E+03  0.25116090968E+03  0.83084482382E+03  0.00000000000E+00 0. -1.
         22    1    1    2    0    0  0.52118320120E+03 -0.10329702666E+04  0.14261007297E+04  0.18364157460E+04  0.00000000000E+00 0. -1.
<mgrwt>
<rscale>  0 0.24964059E+04</rscale>
<asrwt>0</asrwt>
<pdfrwt beam="1">  1        2 0.36638445E+00 0.24964059E+04</pdfrwt>
<pdfrwt beam="2">  1       -2 0.10064835E+00 0.24964059E+04</pdfrwt>
<totfact> 0.29557187E+00</totfact>
</mgrwt>
</event>
<event>
 6    1  0.1603085E-006  0.4985616E+03  0.7818608E-02  0.1014155E+00
          2   -1    0    0  501    0  0.00000000000E+00  0.00000000000E+00  0.93236354223E+03  0.93236354223E+03  0.00000000000E+00 0.  1.
         -2   -1    0    0    0  501 -0.00000000000E+00 -0.00000000000E+00 -0.66648799626E+02  0.66648799626E+02  0.00000000000E+00 0. -1.
         23    2    1    2    0    0  0.13051792476E+03  0.20204805289E+03  0.47358584584E+03  0.53898689035E+03  0.91460211164E+02 0.  0.
         13    1    3    3    0    0 -0.66287296459E+01  0.36824675882E+02  0.11597754102E+03  0.12186380443E+03  0.00000000000E+00 0.  1.
        -13    1    3    3    0    0  0.13714665440E+03  0.16522337701E+03  0.35760830483E+03  0.41712308592E+03  0.00000000000E+00 0. -1.
         22    1    1    2    0    0 -0.13051792476E+03 -0.20204805289E+03  0.39212889676E+03  0.46002545151E+03  0.00000000000E+00 0. -1.
<mgrwt>
<rscale>  0 0.49856157E+03</rscale>
<asrwt>0</asrwt>
<pdfrwt beam="1">  1        2 0.14344054E+00 0.49856157E+03</pdfrwt>
<pdfrwt beam="2">  1       -2 0.10253662E-01 0.49856157E+03</pdfrwt>
<totfact> 0.18466213E+03</totfact>
</mgrwt>
</event>
<event>
 6    1  0.1603085E-006  0.1891874E+04  0.7818608E-02  0.8658912E-01
         -2   -1    0    0    0  501 -0.00000000000E+00  0.00000000000E+00  0.18045199761E+04  0.18045199761E+04  0.00000000000E+00 0.  1.
          2   -1    0    0  501    0  0.00000000000E+00 -0.00000000000E+00 -0.49586443422E+03  0.49586443422E+03  0.00000000000E+00 0. -1.
         23    2    1    2    0    0  0.32328042184E+02  0.31439880397E+03  0.17373623305E+04  0.17677670798E+04  0.81736594069E+02 0.  0.
         11    1    3    3    0    0  0.24873211132E+02  0.70660899880E+02  0.59294046931E+03  0.59765377899E+03  0.00000000000E+00 0. -1.
        -11    1    3    3    0    0  0.74548310524E+01  0.24373790409E+03  0.11444218612E+04  0.11701133008E+04  0.00000000000E+00 0.  1.
         22    1    1    2    0    0 -0.32328042184E+02 -0.31439880397E+03 -0.42870678856E+03  0.53261733056E+03  0.00000000000E+00 0. -1.
<mgrwt>
<rscale>  0 0.18918745E+04</rscale>
<asrwt>0</asrwt>
<pdfrwt beam="1">  1        2 0.76286837E-01 0.18918745E+04</pdfrwt>
<pdfrwt beam="2">  1       -2 0.27761845E+00 0.18918745E+04</pdfrwt>
<totfact> 0.25389915E+00</totfact>
</mgrwt>
</event>
<event>
 6    1  0.1603085E-006  0.2789997E+04  0.7818608E-02  0.8306381E-01
         -1   -1    0    0    0  501 -0.00000000000E+00  0.00000000000E+00  0.25114736411E+04  0.25114736411E+04  0.00000000000E+00 0.  1.
          1   -1    0    0  501    0  0.00000000000E+00 -0.00000000000E+00 -0.77485228572E+03  0.77485228572E+03  0.00000000000E+00 0. -1.
         23    2    1    2    0    0  0.59136392572E+03 -0.56792505413E+03  0.21964402510E+04  0.23462814723E+04  0.91852115975E+02 0.  0.
         11    1    3    3    0    0  0.10047250612E+02 -0.33502096193E+02  0.10926412595E+03  0.11472570294E+03  0.00000000000E+00 0.  1.
        -11    1    3    3    0    0  0.58131667511E+03 -0.53442295793E+03  0.20871761251E+04  0.22315557694E+04  0.00000000000E+00 0. -1.
         22    1    1    2    0    0 -0.59136392572E+03  0.56792505413E+03 -0.45981889562E+03  0.94004445454E+03  0.00000000000E+00 0. -1.
<mgrwt>
<rscale>  0 0.27899972E+04</rscale>
<asrwt>0</asrwt>
<pdfrwt beam="1">  1        1 0.11920804E+00 0.27899972E+04</pdfrwt>
<pdfrwt beam="2">  1       -1 0.38638056E+00 0.27899972E+04</pdfrwt>
<totfact> 0.17850518E-01</totfact>
</mgrwt>
</event>
<event>
 6    1  0.1603085E-006  0.6165173E+03  0.7818608E-02  0.9871718E-01
         -1   -1    0    0    0  501 -0.00000000000E+00  0.00000000000E+00  0.14245071101E+03  0.14245071101E+03  0.00000000000E+00 0.  1.
          1   -1    0    0  501    0  0.00000000000E+00 -0.00000000000E+00 -0.66706158131E+03  0.66706158131E+03  0.00000000000E+00 0. -1.
         23    2    1    2    0    0 -0.16166281957E+03 -0.53579150985E+02  0.59596260284E+02  0.20098656231E+03  0.88534125276E+02 0.  0.
         11    1    3    3    0    0 -0.23034551544E+02 -0.33213229775E+02  0.44410172630E+02  0.60049751290E+02  0.00000000000E+00 0.  1.
        -11    1    3    3    0    0 -0.13862826803E+03 -0.20365921209E+02  0.15186087653E+02  0.14093681102E+03  0.00000000000E+00 0. -1.
         22    1    1    2    0    0  0.16166281957E+03  0.53579150985E+02 -0.58420713058E+03  0.60852573000E+03  0.00000000000E+00 0. -1.
<mgrwt>
<rscale>  0 0.61651730E+03</rscale>
<asrwt>0</asrwt>
<pdfrwt beam="1">  1        1 0.10262486E+00 0.61651730E+03</pdfrwt>
<pdfrwt beam="2">  1       -1 0.21915494E-01 0.61651730E+03</pdfrwt>
<totfact> 0.51900732E+02</totfact>
</mgrwt>
</event>
<event>
 6    1  0.1603085E-006  0.4089885E+04  0.7818608E-02  0.7986655E-01
         -2   -1    0    0    0  501 -0.00000000000E+00  0.00000000000E+00  0.12032506264E+04  0.12032506264E+04  0.00000000000E+00 0.  1.
          2   -1    0    0  501    0  0.00000000000E+00 -0.00000000000E+00 -0.34754103203E+04  0.34754103203E+04  0.00000000000E+00 0. -1.
         23    2    1    2    0    0  0.77832725191E+03 -0.17250178689E+04 -0.25329585330E+03  0.19114798601E+04  0.90091660750E+02 0.  0.
         13    1    3    3    0    0  0.60104879120E+03 -0.12360992882E+04 -0.19132713767E+03  0.13877345472E+04  0.00000000000E+00 0. -1.
        -13    1    3    3    0    0  0.17727846071E+03 -0.48891858066E+03 -0.61968715631E+02  0.52374531297E+03  0.00000000000E+00 0.  1.
         22    1    1    2    0    0 -0.77832725191E+03  0.17250178689E+04 -0.20188638406E+04  0.27671810866E+04  0.00000000000E+00 0. -1.
<mgrwt>
<rscale>  0 0.40898849E+04</rscale>
<asrwt>0</asrwt>
<pdfrwt beam="1">  1        2 0.53467850E+00 0.40898849E+04</pdfrwt>
<pdfrwt beam="2">  1       -2 0.18511549E+00 0.40898849E+04</pdfrwt>
<totfact> 0.11059063E-01</totfact>
</mgrwt>
</event>
<event>
 6    1  0.1603085E-006  0.2462908E+04  0.7818608E-02  0.8416320E-01
         -2   -1    0    0    0  501 -0.00000000000E+00  0.00000000000E+00  0.19964476394E+04  0.19964476394E+04  0.00000000000E+00 0.  1.
          2   -1    0    0  501    0  0.00000000000E+00 -0.00000000000E+00 -0.75958866235E+03  0.75958866235E+03  0.00000000000E+00 0. -1.
         23    2    1    2    0    0 -0.97683358357E+03  0.52840535707E+02  0.14529236823E+04  0.17541980269E+04  0.96059974815E+02 0.  0.
         13    1    3    3    0    0 -0.86290874499E+03  0.66146553692E+02  0.13226116327E+04  0.15805974819E+04  0.00000000000E+00 0. -1.
        -13    1    3    3    0    0 -0.11392483858E+03 -0.13306017985E+02  0.13031204959E+03  0.17360054501E+03  0.00000000000E+00 0.  1.
         22    1    1    2    0    0  0.97683358357E+03 -0.52840535707E+02 -0.21606470522E+03  0.10018382749E+04  0.00000000000E+00 0.  1.
<mgrwt>
<rscale>  0 0.24629080E+04</rscale>
<asrwt>0</asrwt>
<pdfrwt beam="1">  1        2 0.11685980E+00 0.24629080E+04</pdfrwt>
<pdfrwt beam="2">  1       -2 0.30714579E+00 0.24629080E+04</pdfrwt>
<totfact> 0.94835229E-01</totfact>
</mgrwt>
</event>
<event>
 6    1  0.1603085E-006  0.6281390E+04  0.7818608E-02  0.7656459E-01
         -2   -1    0    0    0  501 -0.00000000000E+00  0.00000000000E+00  0.26677363096E+04  0.26677363096E+04  0.00000000000E+00 0.  1.
          2   -1    0    0  501    0  0.00000000000E+00 -0.00000000000E+00 -0.36975037994E+04  0.36975037994E+04  0.00000000000E+00 0. -1.
         23    2    1    2    0    0 -0.14975341648E+04 -0.28773707529E+03 -0.32965572827E+04  0.36332560014E+04  0.88645667073E+02 0.  0.
         11    1    3    3    0    0 -0.97328314035E+03 -0.17118484346E+03 -0.20407214815E+04  0.22674056733E+04  0.00000000000E+00 0. -1.
        -11    1    3    3    0    0 -0.52425102446E+03 -0.11655223183E+03 -0.12558358011E+04  0.13658503281E+04  0.00000000000E+00 0.  1.
         22    1    1    2    0    0  0.14975341648E+04  0.28773707529E+03  0.22667897928E+04  0.27319841076E+04  0.00000000000E+00 0.  1.
<mgrwt>
<rscale>  0 0.62813900E+04</rscale>
<asrwt>0</asrwt>
<pdfrwt beam="1">  1        2 0.56884674E+00 0.62813900E+04</pdfrwt>
<pdfrwt beam="2">  1       -2 0.41042097E+00 0.62813900E+04</pdfrwt>
<totfact> 0.24452250E-03</totfact>
</mgrwt>
</event>
<event>
 6    1  0.1603085E-006  0.2678733E+04  0.7818608E-02  0.8341938E-01
          1   -1    0    0  501    0  0.00000000000E+00  0.00000000000E+00  0.17873693332E+04  0.17873693332E+04  0.00000000000E+00 0.  1.
         -1   -1    0    0    0  501 -0.00000000000E+00 -0.00000000000E+00 -0.10036554374E+04  0.10036554374E+04  0.00000000000E+00 0. -1.
         23    2    1    2    0    0  0.44112156042E+03  0.97771087967E+03  0.12253861119E+04  0.16310328992E+04  0.90500826275E+02 0.  0.
         13    1    3    3    0    0  0.42665056153E+03  0.90931472679E+03  0.11687648386E+04  0.15410695059E+04  0.00000000000E+00 0. -1.
        -13    1    3    3    0    0  0.14470998890E+02  0.68396152885E+02  0.56621273340E+02  0.89963393294E+02  0.00000000000E+00 0.  1.
         22    1    1    2    0    0 -0.44112156042E+03 -0.97771087967E+03 -0.44167221611E+03  0.11599918714E+04  0.00000000000E+00 0. -1.
<mgrwt>
<rscale>  0 0.26787332E+04</rscale>
<asrwt>0</asrwt>
<pdfrwt beam="1">  1        1 0.27497990E+00 0.26787332E+04</pdfrwt>
<pdfrwt beam="2">  1       -1 0.15440853E+00 0.26787332E+04</pdfrwt>
<totfact> 0.11721935E+00</totfact>
</mgrwt>
</event>
<event>
 6    1  0.1603085E-006  0.4546735E+04  0.7818608E-02  0.7902506E-01
          2   -1    0    0  501    0  0.00000000000E+00  0.00000000000E+00  0.28970919153E+04  0.28970919153E+04  0.00000000000E+00 0. -1.
         -2   -1    0    0    0  501 -0.00000000000E+00 -0.00000000000E+00 -0.17839266230E+04  0.17839266230E+04  0.00000000000E+00 0.  1.
         23    2    1    2    0    0 -0.14079402949E+04  0.13544325897E+03 -0.12743491620E+04  0.19059751116E+04  0.90191955267E+02 0.  0.
         11    1    3    3    0    0 -0.43983661603E+03  0.26857779964E+02 -0.34550979784E+03  0.55995947134E+03  0.00000000000E+00 0. -1.
        -11    1    3    3    0    0 -0.96810367889E+03  0.10858547901E+03 -0.92883936417E+03  0.13460156402E+04  0.00000000000E+00 0.  1.
         22    1    1    2    0    0  0.14079402949E+04 -0.13544325897E+03  0.23875144543E+04  0.27750434267E+04  0.00000000000E+00 0. -1.
<mgrwt>
<rscale>  0 0.45467348E+04</rscale>
<asrwt>0</asrwt>
<pdfrwt beam="1">  1        2 0.44570645E+00 0.45467348E+04</pdfrwt>
<pdfrwt beam="2">  1       -2 0.27445025E+00 0.45467348E+04</pdfrwt>
<totfact> 0.69305622E-02</totfact>
</mgrwt>
</event>
<event>
 6    1  0.1603085E-006  0.1851620E+04  0.7818608E-02  0.8679320E-01
          2   -1    0    0  501    0  0.00000000000E+00  0.00000000000E+00  0.30608330875E+04  0.30608330875E+04  0.00000000000E+00 0.  1.
         -2   -1    0    0    0  501 -0.00000000000E+00 -0.00000000000E+00 -0.28002957345E+03  0.28002957345E+03  0.00000000000E+00 0. -1.
         23    2    1    2    0    0  0.87939846892E+03 -0.26793913374E+03  0.12345377941E+04  0.15419544578E+04  0.91689358348E+02 0.  0.
         13    1    3    3    0    0  0.34014261352E+03 -0.10155288629E+03  0.40362573335E+03  0.53751624986E+03  0.00000000000E+00 0. -1.
        -13    1    3    3    0    0  0.53925585541E+03 -0.16638624746E+03  0.83091206075E+03  0.10044382080E+04  0.00000000000E+00 0.  1.
         22    1    1    2    0    0 -0.87939846892E+03  0.26793913374E+03  0.15462657200E+04  0.17989082031E+04  0.00000000000E+00 0. -1.
<mgrwt>
<rscale>  0 0.18516196E+04</rscale>
<asrwt>0</asrwt>
<pdfrwt beam="1">  1        2 0.47089738E+00 0.18516196E+04</pdfrwt>
<pdfrwt beam="2">  1       -2 0.43081475E-01 0.18516196E+04</pdfrwt>
<totfact> 0.76843699E+00</totfact>
</mgrwt>
</event>
<event>
 6    1  0.1603085E-006  0.2325720E+04  0.7818608E-02  0.8467848E-01
         -1   -1    0    0    0  501 -0.00000000000E+00  0.00000000000E+00  0.86348535812E+03  0.86348535812E+03  0.00000000000E+00 0.  1.
          1   -1    0    0  501    0  0.00000000000E+00 -0.00000000000E+00 -0.15660298204E+04  0.15660298204E+04  0.00000000000E+00 0. -1.
         23    2    1    2    0    0  0.55961641660E+03  0.30751841790E+02  0.71038387859E+03  0.90948797287E+03  0.91689194147E+02 0.  0.
         11    1    3    3    0    0  0.11714276048E+03  0.44190606041E+02  0.16068913725E+03  0.20370624641E+03  0.00000000000E+00 0. -1.
        -11    1    3    3    0    0  0.44247365612E+03 -0.13438764251E+02  0.54969474134E+03  0.70578172646E+03  0.00000000000E+00 0.  1.
         22    1    1    2    0    0 -0.55961641660E+03 -0.30751841790E+02 -0.14129283408E+04  0.15200272056E+04  0.00000000000E+00 0. -1.
<mgrwt>
<rscale>  0 0.23257204E+04</rscale>
<asrwt>0</asrwt>
<pdfrwt beam="1">  1        1 0.24092766E+00 0.23257204E+04</pdfrwt>
<pdfrwt beam="2">  1       -1 0.13284390E+00 0.23257204E+04</pdfrwt>
<totfact> 0.25493687E+00</totfact>
</mgrwt>
</event>
<event>
 6    1  0.1603085E-006  0.1709638E+04  0.7818608E-02  0.8755887E-01
          1   -1    0    0  501    0  0.00000000000E+00  0.00000000000E+00  0.14247487877E+04  0.14247487877E+04  0.00000000000E+00 0. -1.
         -1   -1    0    0    0  501 -0.00000000000E+00 -0.00000000000E+00 -0.51287299616E+03  0.51287299616E+03  0.00000000000E+00 0.  1.
         23    2    1    2    0    0 -0.18922343012E+03  0.54367000065E+03  0.11696567623E+04  0.13068812627E+04  0.91973458919E+02 0.  0.
         13    1    3    3    0    0 -0.52644767584E+02  0.23667008099E+03  0.57163593543E+03  0.62092820959E+03  0.00000000000E+00 0. -1.
        -13    1    3    3    0    0 -0.13657866253E+03  0.30699991966E+03  0.59802082690E+03  0.68595305316E+03  0.00000000000E+00 0.  1.
         22    1    1    2    0    0  0.18922343012E+03 -0.54367000065E+03 -0.25778097076E+03  0.63074052114E+03  0.00000000000E+00 0.  1.
<mgrwt>
<rscale>  0 0.17096376E+04</rscale>
<asrwt>0</asrwt>
<pdfrwt beam="1">  1        1 0.21919212E+00 0.17096376E+04</pdfrwt>
<pdfrwt beam="2">  1       -1 0.78903538E-01 0.17096376E+04</pdfrwt>
<totfact> 0.11274802E+01</totfact>
</mgrwt>
</event>
<event>
 6    1  0.1603085E-006  0.4092710E+04  0.7818608E-02  0.7986101E-01
         -1   -1    0    0    0  501 -0.00000000000E+00  0.00000000000E+00  0.28083649864E+04  0.28083649864E+04  0.00000000000E+00 0.  1.
          1   -1    0    0  501    0  0.00000000000E+00 -0.00000000000E+00 -0.14911052870E+04  0.14911052870E+04  0.00000000000E+00 0. -1.
         23    2    1    2    0    0  0.20098105344E+04  0.29964528016E+03  0.90077282705E+03  0.22252024525E+04  0.10492182999E+03 0.  0.
         13    1    3    3    0    0  0.66156607779E+03  0.56687434865E+02  0.26526735875E+03  0.71501742089E+03  0.00000000000E+00 0.  1.
        -13    1    3    3    0    0  0.13482444566E+04  0.24295784529E+03  0.63550546830E+03  0.15101850316E+04  0.00000000000E+00 0. -1.
         22    1    1    2    0    0 -0.20098105344E+04 -0.29964528016E+03  0.41648687237E+03  0.20742678209E+04  0.00000000000E+00 0.  1.
<mgrwt>
<rscale>  0 0.40927096E+04</rscale>
<asrwt>0</asrwt>
<pdfrwt beam="1">  1        1 0.22940081E+00 0.40927096E+04</pdfrwt>
<pdfrwt beam="2">  1       -1 0.43205615E+00 0.40927096E+04</pdfrwt>
<totfact> 0.22178612E-02</totfact>
</mgrwt>
</event>
<event>
 6    1  0.1603085E-006  0.1648266E+04  0.7818608E-02  0.8791433E-01
         -2   -1    0    0    0  501 -0.00000000000E+00  0.00000000000E+00  0.28513267594E+03  0.28513267594E+03  0.00000000000E+00 0.  1.
          2   -1    0    0  501    0  0.00000000000E+00 -0.00000000000E+00 -0.23820335055E+04  0.23820335055E+04  0.00000000000E+00 0. -1.
         23    2    1    2    0    0 -0.61362151101E+03 -0.26935380236E+03 -0.18211945940E+04  0.19425305779E+04  0.87134763874E+02 0.  0.
         13    1    3    3    0    0 -0.32531901114E+03 -0.12590226606E+03 -0.82949904853E+03  0.89986249568E+03  0.00000000000E+00 0. -1.
        -13    1    3    3    0    0 -0.28830249986E+03 -0.14345153629E+03 -0.99169554547E+03  0.10426680822E+04  0.00000000000E+00 0.  1.
         22    1    1    2    0    0  0.61362151101E+03  0.26935380236E+03 -0.27570623551E+03  0.72463560354E+03  0.00000000000E+00 0.  1.
<mgrwt>
<rscale>  0 0.16482665E+04</rscale>
<asrwt>0</asrwt>
<pdfrwt beam="1">  1        2 0.36646672E+00 0.16482665E+04</pdfrwt>
<pdfrwt beam="2">  1       -2 0.43866562E-01 0.16482665E+04</pdfrwt>
<totfact> 0.19191841E+01</totfact>
</mgrwt>
</event>
<event>
 6    1  0.1603085E-006  0.3347267E+04  0.7818608E-02  0.8150971E-01
         -2   -1    0    0    0  501 -0.00000000000E+00  0.00000000000E+00  0.28022468500E+04  0.28022468500E+04  0.00000000000E+00 0.  1.
          2   -1    0    0  501    0  0.00000000000E+00 -0.00000000000E+00 -0.99957257829E+03  0.99957257829E+03  0.00000000000E+00 0. -1.
         23    2    1    2    0    0  0.17625683171E+03  0.15666549150E+04  0.26823595689E+03  0.16018251020E+04  0.91755302346E+02 0.  0.
         13    1    3    3    0    0  0.60007851669E+02  0.83240484542E+03  0.11009984456E+03  0.84179614202E+03  0.00000000000E+00 0. -1.
        -13    1    3    3    0    0  0.11624898004E+03  0.73425006960E+03  0.15813611233E+03  0.76002896003E+03  0.00000000000E+00 0.  1.
         22    1    1    2    0    0 -0.17625683171E+03 -0.15666549150E+04  0.15344383148E+04  0.21999943262E+04  0.00000000000E+00 0.  1.
<mgrwt>
<rscale>  0 0.33472670E+04</rscale>
<asrwt>0</asrwt>
<pdfrwt beam="1">  1        2 0.15378040E+00 0.33472670E+04</pdfrwt>
<pdfrwt beam="2">  1       -2 0.43111490E+00 0.33472670E+04</pdfrwt>
<totfact> 0.96959632E-02</totfact>
</mgrwt>
</event>
<event>
 6    1  0.1603085E-006  0.1790509E+04  0.7818608E-02  0.8711363E-01
         -1   -1    0    0    0  501 -0.00000000000E+00  0.00000000000E+00  0.42367244715E+03  0.42367244715E+03  0.00000000000E+00 0.  1.
          1   -1    0    0  501    0  0.00000000000E+00 -0.00000000000E+00 -0.18917456710E+04  0.18917456710E+04  0.00000000000E+00 0. -1.
         23    2    1    2    0    0 -0.57746250305E+03  0.47183307140E+03 -0.10035736070E+03  0.75761964852E+03  0.88467747125E+02 0.  0.
         11    1    3    3    0    0 -0.33302498732E+03  0.30974895065E+03 -0.28773415941E+02  0.45571697804E+03  0.00000000000E+00 0. -1.
        -11    1    3    3    0    0 -0.24443751573E+03  0.16208412074E+03 -0.71583944759E+02  0.30190267048E+03  0.00000000000E+00 0.  1.
         22    1    1    2    0    0  0.57746250305E+03 -0.47183307140E+03 -0.13677158631E+04  0.15577984696E+04  0.00000000000E+00 0. -1.
<mgrwt>
<rscale>  0 0.17905089E+04</rscale>
<asrwt>0</asrwt>
<pdfrwt beam="1">  1        1 0.29103779E+00 0.17905089E+04</pdfrwt>
<pdfrwt beam="2">  1       -1 0.65180377E-01 0.17905089E+04</pdfrwt>
<totfact> 0.79537299E+00</totfact>
</mgrwt>
</event>
<event>
 6    1  0.1603085E-006  0.1771472E+04  0.7818608E-02  0.8721619E-01
          1   -1    0    0  501    0  0.00000000000E+00  0.00000000000E+00  0.52720525040E+03  0.52720525040E+03  0.00000000000E+00 0. -1.
         -1   -1    0    0    0  501 -0.00000000000E+00 -0.00000000000E+00 -0.14880885619E+04  0.14880885619E+04  0.00000000000E+00 0.  1.
         23    2    1    2    0    0  0.59601304716E+03 -0.17420212661E+03 -0.11964724927E+04  0.13511551252E+04  0.92172737141E+02 0.  0.
         11    1    3    3    0    0  0.37619597954E+03 -0.15188286662E+03 -0.73567255614E+03  0.84012256847E+03  0.00000000000E+00 0.  1.
        -11    1    3    3    0    0  0.21981706761E+03 -0.22319259996E+02 -0.46079993652E+03  0.51103255677E+03  0.00000000000E+00 0. -1.
         22    1    1    2    0    0 -0.59601304716E+03  0.17420212661E+03  0.23558918119E+03  0.66413868702E+03  0.00000000000E+00 0. -1.
<mgrwt>
<rscale>  0 0.17714718E+04</rscale>
<asrwt>0</asrwt>
<pdfrwt beam="1">  1        1 0.81108503E-01 0.17714718E+04</pdfrwt>
<pdfrwt beam="2">  1       -1 0.22893669E+00 0.17714718E+04</pdfrwt>
<totfact> 0.37359855E+00</totfact>
</mgrwt>
</event>
<event>
 6    1  0.1603085E-006  0.1131823E+04  0.7818608E-02  0.9174718E-01
          1   -1    0    0  501    0  0.00000000000E+00  0.00000000000E+00  0.17228081095E+04  0.17228081095E+04  0.00000000000E+00 0. -1.
         -1   -1    0    0    0  501 -0.00000000000E+00 -0.00000000000E+00 -0.18589184376E+03  0.18589184376E+03  0.00000000000E+00 0.  1.
         23    2    1    2    0    0 -0.35384594790E+03  0.39277802261E+03  0.10980342210E+04  0.12216053607E+04  0.84610738449E+02 0.  0.
         11    1    3    3    0    0 -0.85903339368E+02  0.14483519570E+03  0.39631512688E+03  0.43060689431E+03  0.00000000000E+00 0.  1.
        -11    1    3    3    0    0 -0.26794260853E+03  0.24794282691E+03  0.70171909408E+03  0.79099846642E+03  0.00000000000E+00 0. -1.
         22    1    1    2    0    0  0.35384594790E+03 -0.39277802261E+03  0.43888204482E+03  0.68709459258E+03  0.00000000000E+00 0.  1.
<mgrwt>
<rscale>  0 0.11318233E+04</rscale>
<asrwt>0</asrwt>
<pdfrwt beam="1">  1        1 0.26504739E+00 0.11318233E+04</pdfrwt>
<pdfrwt beam="2">  1       -1 0.28598746E-01 0.11318233E+04</pdfrwt>
<totfact> 0.50769313E+01</totfact>
</mgrwt>
</event>
<event>
 6    1  0.1603085E-006  0.3542367E+04  0.7818608E-02  0.8103822E-01
          1   -1    0    0  501    0  0.00000000000E+00  0.00000000000E+00  0.21443832065E+04  0.21443832065E+04  0.00000000000E+00 0. -1.
         -1   -1    0    0    0  501 -0.00000000000E+00 -0.00000000000E+00 -0.14629336593E+04  0.14629336593E+04  0.00000000000E+00 0.  1.
         23    2    1    2    0    0  0.89896220154E+03  0.22135460158E+03 -0.11951887728E+04  0.15147341831E+04  0.93875148409E+02 0.  0.
         11    1    3    3    0    0  0.32394196525E+03  0.57074171273E+02 -0.48918613800E+03  0.58949040322E+03  0.00000000000E+00 0.  1.
        -11    1    3    3    0    0  0.57502023629E+03  0.16428043031E+03 -0.70600263479E+03  0.92524377991E+03  0.00000000000E+00 0. -1.
         22    1    1    2    0    0 -0.89896220154E+03 -0.22135460158E+03  0.18766383200E+04  0.20925826826E+04  0.00000000000E+00 0. -1.
<mgrwt>
<rscale>  0 0.35423667E+04</rscale>
<asrwt>0</asrwt>
<pdfrwt beam="1">  1        1 0.32990511E+00 0.35423667E+04</pdfrwt>
<pdfrwt beam="2">  1       -1 0.22506672E+00 0.35423667E+04</pdfrwt>
<totfact> 0.19674310E-01</totfact>
</mgrwt>
</event>
<event>
 6    1  0.1603085E-006  0.2035122E+04  0.7818608E-02  0.8590374E-01
         -1   -1    0    0    0  501 -0.00000000000E+00  0.00000000000E+00  0.50463701979E+03  0.50463701979E+03  0.00000000000E+00 0.  1.
          1   -1    0    0  501    0  0.00000000000E+00 -0.00000000000E+00 -0.20518310300E+04  0.20518310300E+04  0.00000000000E+00 0. -1.
         23    2    1    2    0    0 -0.90529824049E+03 -0.30080092235E+03 -0.12156570239E+04  0.15465359370E+04  0.62492444409E+02 0.  0.
         11    1    3    3    0    0 -0.24533635422E+03 -0.10757446555E+03 -0.31959856983E+03  0.41701970958E+03  0.00000000000E+00 0.  1.
        -11    1    3    3    0    0 -0.65996188627E+03 -0.19322645680E+03 -0.89605845404E+03  0.11295162274E+04  0.00000000000E+00 0. -1.
         22    1    1    2    0    0  0.90529824049E+03  0.30080092235E+03 -0.33153698633E+03  0.10099321128E+04  0.00000000000E+00 0.  1.
<mgrwt>
<rscale>  0 0.20351215E+04</rscale>
<asrwt>0</asrwt>
<pdfrwt beam="1">  1        1 0.31566631E+00 0.20351215E+04</pdfrwt>
<pdfrwt beam="2">  1       -1 0.77636464E-01 0.20351215E+04</pdfrwt>
<totfact> 0.42249043E+00</totfact>
</mgrwt>
</event>
<event>
 6    1  0.1603085E-006  0.3493890E+04  0.7818608E-02  0.8115239E-01
          2   -1    0    0  501    0  0.00000000000E+00  0.00000000000E+00  0.21070361139E+04  0.21070361139E+04  0.00000000000E+00 0. -1.
         -2   -1    0    0    0  501 -0.00000000000E+00 -0.00000000000E+00 -0.14483934211E+04  0.14483934211E+04  0.00000000000E+00 0.  1.
         23    2    1    2    0    0  0.55560580993E+03 -0.14889846250E+04  0.10646330856E+04  0.19151243108E+04  0.92111288087E+02 0.  0.
         13    1    3    3    0    0  0.24749394709E+03 -0.59476396972E+03  0.47773060627E+03  0.80201244734E+03  0.00000000000E+00 0.  1.
        -13    1    3    3    0    0  0.30811186284E+03 -0.89422065532E+03  0.58690247932E+03  0.11131118635E+04  0.00000000000E+00 0. -1.
         22    1    1    2    0    0 -0.55560580993E+03  0.14889846250E+04 -0.40599039279E+03  0.16403052242E+04  0.00000000000E+00 0.  1.
<mgrwt>
<rscale>  0 0.34938902E+04</rscale>
<asrwt>0</asrwt>
<pdfrwt beam="1">  1        2 0.32415940E+00 0.34938902E+04</pdfrwt>
<pdfrwt beam="2">  1       -2 0.22282976E+00 0.34938902E+04</pdfrwt>
<totfact> 0.45405374E-01</totfact>
</mgrwt>
</event>
<event>
 6    1  0.1603085E-006  0.3396969E+04  0.7818608E-02  0.8138651E-01
          2   -1    0    0  501    0  0.00000000000E+00  0.00000000000E+00  0.25799077415E+04  0.25799077415E+04  0.00000000000E+00 0. -1.
         -2   -1    0    0    0  501 -0.00000000000E+00 -0.00000000000E+00 -0.11181986765E+04  0.11181986765E+04  0.00000000000E+00 0.  1.
         23    2    1    2    0    0  0.15597657148E+04 -0.77157139701E+02  0.14549398259E+04  0.21364188270E+04  0.92807317485E+02 0.  0.
         11    1    3    3    0    0  0.50539079373E+03 -0.51295257895E+02  0.42622102530E+03  0.66311041334E+03  0.00000000000E+00 0.  1.
        -11    1    3    3    0    0  0.10543749210E+04 -0.25861881806E+02  0.10287188006E+04  0.14733084137E+04  0.00000000000E+00 0. -1.
         22    1    1    2    0    0 -0.15597657148E+04  0.77157139701E+02  0.67692390097E+01  0.15616875910E+04  0.00000000000E+00 0.  1.
<mgrwt>
<rscale>  0 0.33969689E+04</rscale>
<asrwt>0</asrwt>
<pdfrwt beam="1">  1        2 0.39690888E+00 0.33969689E+04</pdfrwt>
<pdfrwt beam="2">  1       -2 0.17203057E+00 0.33969689E+04</pdfrwt>
<totfact> 0.53412886E-01</totfact>
</mgrwt>
</event>
<event>
 6    1  0.1603085E-006  0.3539035E+04  0.7818608E-02  0.8104601E-01
         -2   -1    0    0    0  501 -0.00000000000E+00  0.00000000000E+00  0.18095951055E+04  0.18095951055E+04  0.00000000000E+00 0.  1.
          2   -1    0    0  501    0  0.00000000000E+00 -0.00000000000E+00 -0.17303277836E+04  0.17303277836E+04  0.00000000000E+00 0. -1.
         23    2    1    2    0    0 -0.28427278131E+03  0.17437860113E+04  0.11094558504E+03  0.17728337064E+04  0.95025051132E+02 0.  0.
         13    1    3    3    0    0 -0.11826368927E+03  0.60140130512E+03 -0.21529295524E+01  0.61292288676E+03  0.00000000000E+00 0.  1.
        -13    1    3    3    0    0 -0.16600909204E+03  0.11423847061E+04  0.11309851459E+03  0.11599108196E+04  0.00000000000E+00 0. -1.
         22    1    1    2    0    0  0.28427278131E+03 -0.17437860113E+04 -0.31678263092E+02  0.17670891827E+04  0.00000000000E+00 0.  1.
<mgrwt>
<rscale>  0 0.35390353E+04</rscale>
<asrwt>0</asrwt>
<pdfrwt beam="1">  1        2 0.26620427E+00 0.35390353E+04</pdfrwt>
<pdfrwt beam="2">  1       -2 0.27839925E+00 0.35390353E+04</pdfrwt>
<totfact> 0.33278969E-01</totfact>
</mgrwt>
</event>
<event>
 6    1  0.1603085E-006  0.3389922E+04  0.7818608E-02  0.8140384E-01
         -1   -1    0    0    0  501 -0.00000000000E+00  0.00000000000E+00  0.40049927565E+04  0.40049927565E+04  0.00000000000E+00 0.  1.
          1   -1    0    0  501    0  0.00000000000E+00 -0.00000000000E+00 -0.71732767192E+03  0.71732767192E+03  0.00000000000E+00 0. -1.
         23    2    1    2    0    0 -0.17762407162E+03 -0.86212131737E+03 -0.37090832672E+03  0.95934781590E+03  0.89284760013E+02 0.  0.
         11    1    3    3    0    0 -0.97396851875E+02 -0.44375095202E+03 -0.23932532421E+03  0.51349553550E+03  0.00000000000E+00 0. -1.
        -11    1    3    3    0    0 -0.80227219748E+02 -0.41837036535E+03 -0.13158300251E+03  0.44585228040E+03  0.00000000000E+00 0.  1.
         22    1    1    2    0    0  0.17762407162E+03  0.86212131737E+03  0.36585734113E+04  0.37629726125E+04  0.00000000000E+00 0.  1.
<mgrwt>
<rscale>  0 0.33899216E+04</rscale>
<asrwt>0</asrwt>
<pdfrwt beam="1">  1        1 0.11035811E+00 0.33899216E+04</pdfrwt>
<pdfrwt beam="2">  1       -1 0.61615272E+00 0.33899216E+04</pdfrwt>
<totfact> 0.82083446E-03</totfact>
</mgrwt>
</event>
<event>
 6    1  0.1603085E-006  0.4984502E+04  0.7818608E-02  0.7830902E-01
         -2   -1    0    0    0  501 -0.00000000000E+00  0.00000000000E+00  0.29757437700E+04  0.29757437700E+04  0.00000000000E+00 0.  1.
          2   -1    0    0  501    0  0.00000000000E+00 -0.00000000000E+00 -0.20873155410E+04  0.20873155410E+04  0.00000000000E+00 0. -1.
         23    2    1    2    0    0 -0.45878745448E+03  0.24429252359E+04  0.61572653273E+03  0.25625122005E+04  0.94762743991E+02 0.  0.
         11    1    3    3    0    0 -0.22297252441E+03  0.93890910984E+03  0.24458408365E+03  0.99553424711E+03  0.00000000000E+00 0.  1.
        -11    1    3    3    0    0 -0.23581493007E+03  0.15040161261E+04  0.37114244907E+03  0.15669779534E+04  0.00000000000E+00 0. -1.
         22    1    1    2    0    0  0.45878745448E+03 -0.24429252359E+04  0.27270169623E+03  0.25005471105E+04  0.00000000000E+00 0.  1.
<mgrwt>
<rscale>  0 0.49845025E+04</rscale>
<asrwt>0</asrwt>
<pdfrwt beam="1">  1        2 0.32112547E+00 0.49845025E+04</pdfrwt>
<pdfrwt beam="2">  1       -2 0.45780673E+00 0.49845025E+04</pdfrwt>
<totfact> 0.13462664E-02</totfact>
</mgrwt>
</event>
<event>
 6    1  0.1603085E-006  0.1085261E+04  0.7818608E-02  0.9219678E-01
          2   -1    0    0  501    0  0.00000000000E+00  0.00000000000E+00  0.21131836255E+04  0.21131836255E+04  0.00000000000E+00 0. -1.
         -2   -1    0    0    0  501 -0.00000000000E+00 -0.00000000000E+00 -0.13933846620E+03  0.13933846620E+03  0.00000000000E+00 0.  1.
         23    2    1    2    0    0 -0.27044137855E+03  0.26125531122E+03  0.17946737693E+04  0.18359944650E+04  0.92891658451E+02 0.  0.
         11    1    3    3    0    0 -0.21811770462E+03  0.15935731939E+03  0.11571482429E+04  0.11882601333E+04  0.00000000000E+00 0. -1.
        -11    1    3    3    0    0 -0.52323673931E+02  0.10189799183E+03  0.63752552643E+03  0.64773433168E+03  0.00000000000E+00 0.  1.
         22    1    1    2    0    0  0.27044137855E+03 -0.26125531122E+03  0.17917139002E+03  0.41652762679E+03  0.00000000000E+00 0.  1.
<mgrwt>
<rscale>  0 0.10852608E+04</rscale>
<asrwt>0</asrwt>
<pdfrwt beam="1">  1        2 0.32510515E+00 0.10852608E+04</pdfrwt>
<pdfrwt beam="2">  1       -2 0.21436689E-01 0.10852608E+04</pdfrwt>
<totfact> 0.10893571E+02</totfact>
</mgrwt>
</event>
<event>
 6    1  0.1603085E-006  0.1800009E+04  0.7818608E-02  0.8706295E-01
         -1   -1    0    0    0  501 -0.00000000000E+00  0.00000000000E+00  0.12261156072E+04  0.12261156072E+04  0.00000000000E+00 0.  1.
          1   -1    0    0  501    0  0.00000000000E+00 -0.00000000000E+00 -0.66062960459E+03  0.66062960459E+03  0.00000000000E+00 0. -1.
         23    2    1    2    0    0  0.19634376930E+02 -0.40976339713E+03  0.11204405721E+04  0.11966248422E+04  0.90732501311E+02 0.  0.
         13    1    3    3    0    0 -0.27587662647E+02 -0.63853466335E+02  0.22610475117E+03  0.23656225987E+03  0.00000000000E+00 0. -1.
        -13    1    3    3    0    0  0.47222039577E+02 -0.34590993080E+03  0.89433582097E+03  0.96006258229E+03  0.00000000000E+00 0.  1.
         22    1    1    2    0    0 -0.19634376930E+02  0.40976339713E+03 -0.55495456950E+03  0.69012036964E+03  0.00000000000E+00 0. -1.
<mgrwt>
<rscale>  0 0.18000092E+04</rscale>
<asrwt>0</asrwt>
<pdfrwt beam="1">  1        1 0.10163532E+00 0.18000092E+04</pdfrwt>
<pdfrwt beam="2">  1       -1 0.18863317E+00 0.18000092E+04</pdfrwt>
<totfact> 0.50672322E+00</totfact>
</mgrwt>
</event>
<event>
 6    1  0.1603085E-006  0.2631802E+04  0.7818608E-02  0.8357478E-01
          2   -1    0    0  501    0  0.00000000000E+00  0.00000000000E+00  0.16459090560E+04  0.16459090560E+04  0.00000000000E+00 0. -1.
         -2   -1    0    0    0  501 -0.00000000000E+00 -0.00000000000E+00 -0.10520598958E+04  0.10520598958E+04  0.00000000000E+00 0.  1.
         23    2    1    2    0    0 -0.12041144329E+04  0.17936134299E+03 -0.21041931484E+03  0.12388905308E+04  0.92257251341E+02 0.  0.
         11    1    3    3    0    0 -0.90535748160E+03  0.97935880610E+02 -0.17383338881E+03  0.92708233359E+03  0.00000000000E+00 0.  1.
        -11    1    3    3    0    0 -0.29875695126E+03  0.81425462376E+02 -0.36585926027E+02  0.31180819719E+03  0.00000000000E+00 0. -1.
         22    1    1    2    0    0  0.12041144329E+04 -0.17936134299E+03  0.80426847500E+03  0.14590784210E+04  0.00000000000E+00 0. -1.
<mgrwt>
<rscale>  0 0.26318016E+04</rscale>
<asrwt>0</asrwt>
<pdfrwt beam="1">  1        2 0.25321678E+00 0.26318016E+04</pdfrwt>
<pdfrwt beam="2">  1       -2 0.16185537E+00 0.26318016E+04</pdfrwt>
<totfact> 0.22640266E+00</totfact>
</mgrwt>
</event>
<event>
 6    1  0.1603085E-006  0.3424745E+04  0.7818608E-02  0.8131860E-01
         -1   -1    0    0    0  501 -0.00000000000E+00  0.00000000000E+00  0.16353629169E+04  0.16353629169E+04  0.00000000000E+00 0.  1.
          1   -1    0    0  501    0  0.00000000000E+00 -0.00000000000E+00 -0.17930088710E+04  0.17930088710E+04  0.00000000000E+00 0. -1.
         23    2    1    2    0    0 -0.70258060155E+02  0.38752434349E+03 -0.17458530328E+04  0.17920609871E+04  0.91479275158E+02 0.  0.
         11    1    3    3    0    0  0.13263687666E+02  0.15049004531E+03 -0.57273191897E+03  0.59232172858E+03  0.00000000000E+00 0.  1.
        -11    1    3    3    0    0 -0.83521747821E+02  0.23703429818E+03 -0.11731211138E+04  0.11997392586E+04  0.00000000000E+00 0. -1.
         22    1    1    2    0    0  0.70258060155E+02 -0.38752434349E+03  0.15882070787E+04  0.16363108007E+04  0.00000000000E+00 0.  1.
<mgrwt>
<rscale>  0 0.34247454E+04</rscale>
<asrwt>0</asrwt>
<pdfrwt beam="1">  1        1 0.27584752E+00 0.34247454E+04</pdfrwt>
<pdfrwt beam="2">  1       -1 0.25159429E+00 0.34247454E+04</pdfrwt>
<totfact> 0.23018186E-01</totfact>
</mgrwt>
</event>
<event>
 6    1  0.2026221E-006  0.3089102E+04  0.7818608E-02  0.8218735E-01
         -2   -1    0    0    0  501 -0.00000000000E+00  0.00000000000E+00  0.11021436680E+04  0.11021436680E+04  0.00000000000E+00 0.  1.
          2   -1    0    0  501    0  0.00000000000E+00 -0.00000000000E+00 -0.21645426939E+04  0.21645426939E+04  0.00000000000E+00 0. -1.
         23    2    1    2    0    0 -0.76220104469E+03  0.33072189144E+03 -0.19068529929E+04  0.20820218929E+04  0.91648370321E+02 0.  0.
         11    1    3    3    0    0 -0.32205083540E+03  0.14309863039E+03 -0.69793560017E+03  0.78186191913E+03  0.00000000000E+00 0. -1.
        -11    1    3    3    0    0 -0.44015020929E+03  0.18762326105E+03 -0.12089173927E+04  0.13001599737E+04  0.00000000000E+00 0.  1.
         22    1    1    2    0    0  0.76220104469E+03 -0.33072189144E+03  0.84445396696E+03  0.11846644691E+04  0.00000000000E+00 0.  1.
<mgrwt>
<rscale>  0 0.30891015E+04</rscale>
<asrwt>0</asrwt>
<pdfrwt beam="1">  1        2 0.33300657E+00 0.30891015E+04</pdfrwt>
<pdfrwt beam="2">  1       -2 0.16956056E+00 0.30891015E+04</pdfrwt>
<totfact> 0.98627852E-01</totfact>
</mgrwt>
</event>
<event>
 6    1  0.1603085E-006  0.2538383E+04  0.7818608E-02  0.8389437E-01
         -2   -1    0    0    0  501 -0.00000000000E+00  0.00000000000E+00  0.10073026674E+04  0.10073026674E+04  0.00000000000E+00 0.  1.
          2   -1    0    0  501    0  0.00000000000E+00 -0.00000000000E+00 -0.15991694349E+04  0.15991694349E+04  0.00000000000E+00 0. -1.
         23    2    1    2    0    0  0.86006981981E+03  0.92189047936E+03 -0.43135711515E+03  0.13355018039E+04  0.88847940532E+02 0.  0.
         11    1    3    3    0    0  0.61142966376E+03  0.60291284138E+03 -0.27106428902E+03  0.90045875908E+03  0.00000000000E+00 0.  1.
        -11    1    3    3    0    0  0.24864015605E+03  0.31897763798E+03 -0.16029282613E+03  0.43504304482E+03  0.00000000000E+00 0. -1.
         22    1    1    2    0    0 -0.86006981981E+03 -0.92189047936E+03 -0.16050965234E+03  0.12709702984E+04  0.00000000000E+00 0.  1.
<mgrwt>
<rscale>  0 0.25383835E+04</rscale>
<asrwt>0</asrwt>
<pdfrwt beam="1">  1        2 0.24602606E+00 0.25383835E+04</pdfrwt>
<pdfrwt beam="2">  1       -2 0.15496964E+00 0.25383835E+04</pdfrwt>
<totfact> 0.27266566E+00</totfact>
</mgrwt>
</event>
<event>
 6    1  0.1603085E-006  0.3116442E+04  0.7818608E-02  0.8211240E-01
          2   -1    0    0  501    0  0.00000000000E+00  0.00000000000E+00  0.29116906435E+04  0.29116906435E+04  0.00000000000E+00 0. -1.
         -2   -1    0    0    0  501 -0.00000000000E+00 -0.00000000000E+00 -0.83389796130E+03  0.83389796130E+03  0.00000000000E+00 0.  1.
         23    2    1    2    0    0  0.12634158255E+04 -0.89441165141E+03  0.12404965540E+04  0.19856861767E+04  0.89028880595E+02 0.  0.
         11    1    3    3    0    0  0.38675783881E+03 -0.32010880270E+03  0.37948714140E+03  0.62933438007E+03  0.00000000000E+00 0. -1.
        -11    1    3    3    0    0  0.87665798664E+03 -0.57430284871E+03  0.86100941263E+03  0.13563517966E+04  0.00000000000E+00 0.  1.
         22    1    1    2    0    0 -0.12634158255E+04  0.89441165141E+03  0.83729612816E+03  0.17599024281E+04  0.00000000000E+00 0.  1.
<mgrwt>
<rscale>  0 0.31164421E+04</rscale>
<asrwt>0</asrwt>
<pdfrwt beam="1">  1        2 0.44795240E+00 0.31164421E+04</pdfrwt>
<pdfrwt beam="2">  1       -2 0.12829199E+00 0.31164421E+04</pdfrwt>
<totfact> 0.75194601E-01</totfact>
</mgrwt>
</event>
<event>
 6    1  0.1603085E-006  0.1273992E+04  0.7818608E-02  0.9050448E-01
         -1   -1    0    0    0  501 -0.00000000000E+00  0.00000000000E+00  0.72127745276E+03  0.72127745276E+03  0.00000000000E+00 0.  1.
          1   -1    0    0  501    0  0.00000000000E+00 -0.00000000000E+00 -0.56256259361E+03  0.56256259361E+03  0.00000000000E+00 0. -1.
         23    2    1    2    0    0  0.19971320681E+03  0.11453882008E+03 -0.51524504967E+03  0.57164171376E+03  0.91061964708E+02 0.  0.
         13    1    3    3    0    0  0.12211845280E+03  0.87264248254E+02 -0.22892113755E+03  0.27373865777E+03  0.00000000000E+00 0.  1.
        -13    1    3    3    0    0  0.77594754015E+02  0.27274571830E+02 -0.28632391211E+03  0.29790305599E+03  0.00000000000E+00 0. -1.
         22    1    1    2    0    0 -0.19971320681E+03 -0.11453882008E+03  0.67395990882E+03  0.71219833262E+03  0.00000000000E+00 0.  1.
<mgrwt>
<rscale>  0 0.12739917E+04</rscale>
<asrwt>0</asrwt>
<pdfrwt beam="1">  1        1 0.86548091E-01 0.12739917E+04</pdfrwt>
<pdfrwt beam="2">  1       -1 0.11096576E+00 0.12739917E+04</pdfrwt>
<totfact> 0.27658120E+01</totfact>
</mgrwt>
</event>
<event>
 6    1  0.1603085E-006  0.1535237E+04  0.7818608E-02  0.8861353E-01
          2   -1    0    0  501    0  0.00000000000E+00  0.00000000000E+00  0.90104955659E+03  0.90104955659E+03  0.00000000000E+00 0. -1.
         -2   -1    0    0    0  501 -0.00000000000E+00 -0.00000000000E+00 -0.65394654344E+03  0.65394654344E+03  0.00000000000E+00 0.  1.
         23    2    1    2    0    0 -0.57558768228E+03  0.30921009380E+03 -0.27873144050E+03  0.71629833878E+03  0.92087089848E+02 0.  0.
         11    1    3    3    0    0 -0.28124976859E+03  0.19612644719E+03 -0.11989633668E+03  0.36323841643E+03  0.00000000000E+00 0.  1.
        -11    1    3    3    0    0 -0.29433791369E+03  0.11308364660E+03 -0.15883510383E+03  0.35305992235E+03  0.00000000000E+00 0. -1.
         22    1    1    2    0    0  0.57558768228E+03 -0.30921009380E+03  0.52583445365E+03  0.83869776126E+03  0.00000000000E+00 0. -1.
<mgrwt>
<rscale>  0 0.15352371E+04</rscale>
<asrwt>0</asrwt>
<pdfrwt beam="1">  1        2 0.13862301E+00 0.15352371E+04</pdfrwt>
<pdfrwt beam="2">  1       -2 0.10060716E+00 0.15352371E+04</pdfrwt>
<totfact> 0.22972822E+01</totfact>
</mgrwt>
</event>
<event>
 6    1  0.1603085E-006  0.2343741E+04  0.7818608E-02  0.8460872E-01
         -1   -1    0    0    0  501 -0.00000000000E+00  0.00000000000E+00  0.15170560217E+04  0.15170560217E+04  0.00000000000E+00 0.  1.
          1   -1    0    0  501    0  0.00000000000E+00 -0.00000000000E+00 -0.90522707225E+03  0.90522707225E+03  0.00000000000E+00 0. -1.
         23    2    1    2    0    0  0.13108434039E+03  0.10199793222E+04 -0.27034033058E+03  0.10673795695E+04  0.93136077894E+02 0.  0.
         13    1    3    3    0    0  0.18790656566E+02  0.13736545034E+03 -0.42367595044E+01  0.13870942957E+03  0.00000000000E+00 0. -1.
        -13    1    3    3    0    0  0.11229368382E+03  0.88261387185E+03 -0.26610357107E+03  0.92867013991E+03  0.00000000000E+00 0.  1.
         22    1    1    2    0    0 -0.13108434039E+03 -0.10199793222E+04  0.88216927999E+03  0.13549035244E+04  0.00000000000E+00 0.  1.
<mgrwt>
<rscale>  0 0.23437408E+04</rscale>
<asrwt>0</asrwt>
<pdfrwt beam="1">  1        1 0.13926570E+00 0.23437408E+04</pdfrwt>
<pdfrwt beam="2">  1       -1 0.23339323E+00 0.23437408E+04</pdfrwt>
<totfact> 0.14541267E+00</totfact>
</mgrwt>
</event>
<event>
 6    1  0.2037368E-006  0.3182791E+04  0.7818608E-02  0.8193377E-01
          1   -1    0    0  501    0  0.00000000000E+00  0.00000000000E+00  0.11530149997E+04  0.11530149997E+04  0.00000000000E+00 0. -1.
         -1   -1    0    0    0  501 -0.00000000000E+00 -0.00000000000E+00 -0.21964500054E+04  0.21964500054E+04  0.00000000000E+00 0.  1.
         23    2    1    2    0    0  0.62722854850E+03 -0.13578703801E+03 -0.20531469997E+04  0.21530653717E+04  0.91783008459E+02 0.  0.
         13    1    3    3    0    0  0.43727040618E+03 -0.53940552381E+02 -0.14480187132E+04  0.15135630760E+04  0.00000000000E+00 0.  1.
        -13    1    3    3    0    0  0.18995814233E+03 -0.81846485632E+02 -0.60512828653E+03  0.63950229570E+03  0.00000000000E+00 0. -1.
         22    1    1    2    0    0 -0.62722854850E+03  0.13578703801E+03  0.10097119941E+04  0.11963996334E+04  0.00000000000E+00 0. -1.
<mgrwt>
<rscale>  0 0.31827911E+04</rscale>
<asrwt>0</asrwt>
<pdfrwt beam="1">  1        1 0.17738693E+00 0.31827911E+04</pdfrwt>
<pdfrwt beam="2">  1       -1 0.33791538E+00 0.31827911E+04</pdfrwt>
<totfact> 0.18102664E-01</totfact>
</mgrwt>
</event>
<event>
 6    1  0.1603085E-006  0.3870312E+04  0.7818608E-02  0.8031232E-01
         -2   -1    0    0    0  501 -0.00000000000E+00  0.00000000000E+00  0.97943881433E+03  0.97943881433E+03  0.00000000000E+00 0.  1.
          2   -1    0    0  501    0  0.00000000000E+00 -0.00000000000E+00 -0.38234432086E+04  0.38234432086E+04  0.00000000000E+00 0. -1.
         23    2    1    2    0    0  0.13275035856E+04 -0.12070211080E+04 -0.23190964959E+04  0.29334719483E+04  0.88788453506E+02 0.  0.
         11    1    3    3    0    0  0.24940136273E+03 -0.18377487266E+03 -0.38290988372E+03  0.49253854936E+03  0.00000000000E+00 0.  1.
        -11    1    3    3    0    0  0.10781022229E+04 -0.10232462354E+04 -0.19361866122E+04  0.24409333990E+04  0.00000000000E+00 0. -1.
         22    1    1    2    0    0 -0.13275035856E+04  0.12070211080E+04 -0.52490789835E+03  0.18694100745E+04  0.00000000000E+00 0.  1.
<mgrwt>
<rscale>  0 0.38703120E+04</rscale>
<asrwt>0</asrwt>
<pdfrwt beam="1">  1        2 0.58822202E+00 0.38703120E+04</pdfrwt>
<pdfrwt beam="2">  1       -2 0.15068290E+00 0.38703120E+04</pdfrwt>
<totfact> 0.11090743E-01</totfact>
</mgrwt>
</event>
<event>
 6    1  0.1603085E-006  0.2602603E+04  0.7818608E-02  0.8367318E-01
          2   -1    0    0  501    0  0.00000000000E+00  0.00000000000E+00  0.76365538530E+03  0.76365538530E+03  0.00000000000E+00 0.  1.
         -2   -1    0    0    0  501 -0.00000000000E+00 -0.00000000000E+00 -0.22174727227E+04  0.22174727227E+04  0.00000000000E+00 0. -1.
         23    2    1    2    0    0  0.58181421739E+03 -0.17906678402E+03 -0.20431424919E+04  0.21338519816E+04  0.91215900330E+02 0.  0.
         13    1    3    3    0    0  0.65696486323E+02 -0.27845213161E+02 -0.35535434205E+03  0.36244736531E+03  0.00000000000E+00 0.  1.
        -13    1    3    3    0    0  0.51611773106E+03 -0.15122157085E+03 -0.16877881498E+04  0.17714046163E+04  0.00000000000E+00 0. -1.
         22    1    1    2    0    0 -0.58181421739E+03  0.17906678402E+03  0.58932515449E+03  0.84727612642E+03  0.00000000000E+00 0.  1.
<mgrwt>
<rscale>  0 0.26026025E+04</rscale>
<asrwt>0</asrwt>
<pdfrwt beam="1">  1        2 0.11748544E+00 0.26026025E+04</pdfrwt>
<pdfrwt beam="2">  1       -2 0.34114965E+00 0.26026025E+04</pdfrwt>
<totfact> 0.57301571E-01</totfact>
</mgrwt>
</event>
<event>
 6    1  0.1603085E-006  0.1705890E+04  0.7818608E-02  0.8758012E-01
          1   -1    0    0  501    0  0.00000000000E+00  0.00000000000E+00  0.57990069563E+03  0.57990069563E+03  0.00000000000E+00 0. -1.
         -1   -1    0    0    0  501 -0.00000000000E+00 -0.00000000000E+00 -0.12545510797E+04  0.12545510797E+04  0.00000000000E+00 0.  1.
         23    2    1    2    0    0  0.82465240144E+03 -0.48586893295E+02 -0.55437617661E+03  0.99965949313E+03  0.97846244790E+02 0.  0.
         13    1    3    3    0    0  0.72104113537E+03 -0.15373237464E+02 -0.50332882051E+03  0.87947515990E+03  0.00000000000E+00 0. -1.
        -13    1    3    3    0    0  0.10361126606E+03 -0.33213655831E+02 -0.51047356105E+02  0.12018433323E+03  0.00000000000E+00 0.  1.
         22    1    1    2    0    0 -0.82465240144E+03  0.48586893295E+02 -0.12027420743E+03  0.83479228217E+03  0.00000000000E+00 0. -1.
<mgrwt>
<rscale>  0 0.17058898E+04</rscale>
<asrwt>0</asrwt>
<pdfrwt beam="1">  1        1 0.89215492E-01 0.17058898E+04</pdfrwt>
<pdfrwt beam="2">  1       -1 0.19300786E+00 0.17058898E+04</pdfrwt>
<totfact> 0.57582462E+00</totfact>
</mgrwt>
</event>
<event>
 6    1  0.2448111E-006  0.2914611E+04  0.7818608E-02  0.8268543E-01
         -2   -1    0    0    0  501 -0.00000000000E+00  0.00000000000E+00  0.11787102051E+04  0.11787102051E+04  0.00000000000E+00 0. -1.
          2   -1    0    0  501    0  0.00000000000E+00 -0.00000000000E+00 -0.18017487528E+04  0.18017487528E+04  0.00000000000E+00 0.  1.
         23    2    1    2    0    0 -0.76264139952E+03  0.31324727438E+02 -0.15795876452E+04  0.17566986388E+04  0.91048535001E+02 0.  0.
         13    1    3    3    0    0 -0.29250560878E+03  0.55872548024E+02 -0.62755045777E+03  0.69462281120E+03  0.00000000000E+00 0. -1.
        -13    1    3    3    0    0 -0.47013579074E+03 -0.24547820586E+02 -0.95203718743E+03  0.10620758276E+04  0.00000000000E+00 0.  1.
         22    1    1    2    0    0  0.76264139952E+03 -0.31324727438E+02  0.95654909749E+03  0.12237603191E+04  0.00000000000E+00 0. -1.
<mgrwt>
<rscale>  0 0.29146112E+04</rscale>
<asrwt>0</asrwt>
<pdfrwt beam="1">  1        2 0.27719211E+00 0.29146112E+04</pdfrwt>
<pdfrwt beam="2">  1       -2 0.18134003E+00 0.29146112E+04</pdfrwt>
<totfact> 0.13175756E+00</totfact>
</mgrwt>
</event>
<event>
 6    1  0.1603085E-006  0.1203717E+04  0.7818608E-02  0.9109610E-01
          1   -1    0    0  501    0  0.00000000000E+00  0.00000000000E+00  0.13173712663E+04  0.13173712663E+04  0.00000000000E+00 0. -1.
         -1   -1    0    0    0  501 -0.00000000000E+00 -0.00000000000E+00 -0.27496689347E+03  0.27496689347E+03  0.00000000000E+00 0.  1.
         23    2    1    2    0    0  0.29270327223E+03 -0.29236173375E+03 -0.48089624232E+02  0.42600726909E+03  0.89548827009E+02 0.  0.
         11    1    3    3    0    0  0.71297956387E+02 -0.77486724611E+02  0.26513870024E+02  0.10858442052E+03  0.00000000000E+00 0.  1.
        -11    1    3    3    0    0  0.22140531584E+03 -0.21487500914E+03 -0.74603494256E+02  0.31742284857E+03  0.00000000000E+00 0. -1.
         22    1    1    2    0    0 -0.29270327223E+03  0.29236173375E+03  0.10904939970E+04  0.11663308906E+04  0.00000000000E+00 0. -1.
<mgrwt>
<rscale>  0 0.12037167E+04</rscale>
<asrwt>0</asrwt>
<pdfrwt beam="1">  1        1 0.20267250E+00 0.12037167E+04</pdfrwt>
<pdfrwt beam="2">  1       -1 0.42302600E-01 0.12037167E+04</pdfrwt>
<totfact> 0.47770477E+01</totfact>
</mgrwt>
</event>
<event>
 6    1  0.1603085E-006  0.4248314E+04  0.7818608E-02  0.7956245E-01
         -2   -1    0    0    0  501 -0.00000000000E+00  0.00000000000E+00  0.27006178678E+04  0.27006178678E+04  0.00000000000E+00 0.  1.
          2   -1    0    0  501    0  0.00000000000E+00 -0.00000000000E+00 -0.16707445867E+04  0.16707445867E+04  0.00000000000E+00 0. -1.
         23    2    1    2    0    0  0.10164100853E+04 -0.11294438436E+03  0.24299806909E+04  0.26375381685E+04  0.77172123905E+02 0.  0.
         11    1    3    3    0    0  0.23137344602E+03 -0.46692026789E+02  0.49823734291E+03  0.55132047555E+03  0.00000000000E+00 0. -1.
        -11    1    3    3    0    0  0.78503663929E+03 -0.66252357572E+02  0.19317433480E+04  0.20862176930E+04  0.00000000000E+00 0.  1.
         22    1    1    2    0    0 -0.10164100853E+04  0.11294438436E+03 -0.14001074098E+04  0.17338242859E+04  0.00000000000E+00 0. -1.
<mgrwt>
<rscale>  0 0.42483139E+04</rscale>
<asrwt>0</asrwt>
<pdfrwt beam="1">  1        2 0.25703763E+00 0.42483139E+04</pdfrwt>
<pdfrwt beam="2">  1       -2 0.41547967E+00 0.42483139E+04</pdfrwt>
<totfact> 0.46235187E-02</totfact>
</mgrwt>
</event>
<event>
 6    1  0.1603085E-006  0.4123589E+04  0.7818608E-02  0.7980068E-01
         -1   -1    0    0    0  501 -0.00000000000E+00  0.00000000000E+00  0.19977156602E+04  0.19977156602E+04  0.00000000000E+00 0.  1.
          1   -1    0    0  501    0  0.00000000000E+00 -0.00000000000E+00 -0.21279288936E+04  0.21279288936E+04  0.00000000000E+00 0. -1.
         23    2    1    2    0    0  0.13127946831E+04 -0.10307020992E+04  0.11441680111E+04  0.20256863985E+04  0.92240177243E+02 0.  0.
         13    1    3    3    0    0  0.38819631911E+03 -0.25419558365E+03  0.30430342532E+03  0.55489850566E+03  0.00000000000E+00 0.  1.
        -13    1    3    3    0    0  0.92459836403E+03 -0.77650651551E+03  0.83986458579E+03  0.14707878929E+04  0.00000000000E+00 0. -1.
         22    1    1    2    0    0 -0.13127946831E+04  0.10307020992E+04 -0.12743812446E+04  0.20999581553E+04  0.00000000000E+00 0. -1.
<mgrwt>
<rscale>  0 0.41235892E+04</rscale>
<asrwt>0</asrwt>
<pdfrwt beam="1">  1        1 0.32737368E+00 0.41235892E+04</pdfrwt>
<pdfrwt beam="2">  1       -1 0.30734087E+00 0.41235892E+04</pdfrwt>
<totfact> 0.55927801E-02</totfact>
</mgrwt>
</event>
<event>
 6    1  0.1603085E-006  0.1926959E+04  0.7818608E-02  0.8641552E-01
          3   -1    0    0  501    0  0.00000000000E+00  0.00000000000E+00  0.24410388980E+04  0.24410388980E+04  0.00000000000E+00 0. -1.
         -3   -1    0    0    0  501 -0.00000000000E+00 -0.00000000000E+00 -0.38028601899E+03  0.38028601899E+03  0.00000000000E+00 0.  1.
         23    2    1    2    0    0  0.85684939493E+03 -0.56641205546E+02  0.39974573858E+03  0.95147363083E+03  0.90035009289E+02 0.  0.
         13    1    3    3    0    0  0.45198526665E+03  0.13079571586E+02  0.19447004837E+03  0.49221982506E+03  0.00000000000E+00 0.  1.
        -13    1    3    3    0    0  0.40486412828E+03 -0.69720777132E+02  0.20527569020E+03  0.45925380578E+03  0.00000000000E+00 0. -1.
         22    1    1    2    0    0 -0.85684939493E+03  0.56641205546E+02  0.16610071404E+04  0.18698512861E+04  0.00000000000E+00 0. -1.
<mgrwt>
<rscale>  0 0.19269592E+04</rscale>
<asrwt>0</asrwt>
<pdfrwt beam="1">  1        3 0.37554444E+00 0.19269592E+04</pdfrwt>
<pdfrwt beam="2">  1       -3 0.58505543E-01 0.19269592E+04</pdfrwt>
<totfact> 0.10546980E-01</totfact>
</mgrwt>
</event>
<event>
 6    1  0.1603085E-006  0.1947783E+04  0.7818608E-02  0.8631430E-01
         -1   -1    0    0    0  501 -0.00000000000E+00  0.00000000000E+00  0.54615929537E+03  0.54615929537E+03  0.00000000000E+00 0. -1.
          1   -1    0    0  501    0  0.00000000000E+00 -0.00000000000E+00 -0.17366088374E+04  0.17366088374E+04  0.00000000000E+00 0.  1.
         23    2    1    2    0    0  0.52685771042E+03 -0.63683609140E+03 -0.11954521208E+04  0.14562306079E+04  0.91447010773E+02 0.  0.
         13    1    3    3    0    0  0.25177845027E+03 -0.37575026786E+03 -0.65272001533E+03  0.79411842331E+03  0.00000000000E+00 0.  1.
        -13    1    3    3    0    0  0.27507926016E+03 -0.26108582354E+03 -0.54273210549E+03  0.66211218456E+03  0.00000000000E+00 0. -1.
         22    1    1    2    0    0 -0.52685771042E+03  0.63683609140E+03  0.50025787441E+01  0.82653752494E+03  0.00000000000E+00 0. -1.
<mgrwt>
<rscale>  0 0.19477834E+04</rscale>
<asrwt>0</asrwt>
<pdfrwt beam="1">  1        1 0.26717059E+00 0.19477834E+04</pdfrwt>
<pdfrwt beam="2">  1       -1 0.84024506E-01 0.19477834E+04</pdfrwt>
<totfact> 0.58852385E+00</totfact>
</mgrwt>
</event>
<event>
 6    1  0.1603085E-006  0.5628012E+04  0.7818608E-02  0.7738316E-01
          2   -1    0    0  501    0  0.00000000000E+00  0.00000000000E+00  0.22899422273E+04  0.22899422273E+04  0.00000000000E+00 0. -1.
         -2   -1    0    0    0  501 -0.00000000000E+00 -0.00000000000E+00 -0.34580038941E+04  0.34580038941E+04  0.00000000000E+00 0.  1.
         23    2    1    2    0    0 -0.11452683904E+04  0.26768009718E+03  0.20258943629E+04  0.23443234278E+04  0.91170414208E+02 0.  0.
         13    1    3    3    0    0 -0.19424394604E+03  0.10953608264E+02  0.32668133115E+03  0.38022543870E+03  0.00000000000E+00 0.  1.
        -13    1    3    3    0    0 -0.95102444432E+03  0.25672648891E+03  0.16992130317E+04  0.19640979891E+04  0.00000000000E+00 0. -1.
         22    1    1    2    0    0  0.11452683904E+04 -0.26768009718E+03 -0.31939560297E+04  0.34036226935E+04  0.00000000000E+00 0.  1.
<mgrwt>
<rscale>  0 0.56280118E+04</rscale>
<asrwt>0</asrwt>
<pdfrwt beam="1">  1        2 0.35229880E+00 0.56280118E+04</pdfrwt>
<pdfrwt beam="2">  1       -2 0.53200060E+00 0.56280118E+04</pdfrwt>
<totfact> 0.34412291E-03</totfact>
</mgrwt>
</event>
<event>
 6    1  0.1603085E-006  0.7711630E+03  0.7818608E-02  0.9602722E-01
          1   -1    0    0  501    0  0.00000000000E+00  0.00000000000E+00  0.28615039844E+04  0.28615039844E+04  0.00000000000E+00 0. -1.
         -1   -1    0    0    0  501 -0.00000000000E+00 -0.00000000000E+00 -0.51956279947E+02  0.51956279947E+02  0.00000000000E+00 0.  1.
         23    2    1    2    0    0  0.63071285374E+02 -0.35299801051E+03  0.94502367500E+03  0.10147671773E+04  0.89983861391E+02 0.  0.
         13    1    3    3    0    0  0.53784626777E+02 -0.17880379527E+03  0.37943201828E+03  0.42288561075E+03  0.00000000000E+00 0.  1.
        -13    1    3    3    0    0  0.92866585966E+01 -0.17419421525E+03  0.56559165672E+03  0.59188156653E+03  0.00000000000E+00 0. -1.
         22    1    1    2    0    0 -0.63071285374E+02  0.35299801051E+03  0.18645240295E+04  0.18986930871E+04  0.00000000000E+00 0.  1.
<mgrwt>
<rscale>  0 0.77116302E+03</rscale>
<asrwt>0</asrwt>
<pdfrwt beam="1">  1        1 0.44023126E+00 0.77116302E+03</pdfrwt>
<pdfrwt beam="2">  1       -1 0.79932761E-02 0.77116302E+03</pdfrwt>
<totfact> 0.71037925E+01</totfact>
</mgrwt>
</event>
<event>
 6    1  0.1603085E-006  0.1247386E+04  0.7818608E-02  0.9072362E-01
          1   -1    0    0  501    0  0.00000000000E+00  0.00000000000E+00  0.42033379080E+03  0.42033379080E+03  0.00000000000E+00 0. -1.
         -1   -1    0    0    0  501 -0.00000000000E+00 -0.00000000000E+00 -0.92543765257E+03  0.92543765257E+03  0.00000000000E+00 0.  1.
         23    2    1    2    0    0 -0.91260123471E+02  0.54342957337E+03 -0.56154130347E+03  0.79184970145E+03  0.89739639182E+02 0.  0.
         13    1    3    3    0    0 -0.77668636033E+02  0.30352328655E+03 -0.26632929109E+03  0.41120565876E+03  0.00000000000E+00 0.  1.
        -13    1    3    3    0    0 -0.13591487437E+02  0.23990628681E+03 -0.29521201238E+03  0.38064404269E+03  0.00000000000E+00 0. -1.
         22    1    1    2    0    0  0.91260123471E+02 -0.54342957337E+03  0.56437441703E+02  0.55392174192E+03  0.00000000000E+00 0. -1.
<mgrwt>
<rscale>  0 0.12473856E+04</rscale>
<asrwt>0</asrwt>
<pdfrwt beam="1">  1        1 0.64666737E-01 0.12473856E+04</pdfrwt>
<pdfrwt beam="2">  1       -1 0.14237502E+00 0.12473856E+04</pdfrwt>
<totfact> 0.22210357E+01</totfact>
</mgrwt>
</event>
<event>
 6    1  0.1603085E-006  0.2728058E+04  0.7818608E-02  0.8325958E-01
         -3   -1    0    0    0  501 -0.00000000000E+00  0.00000000000E+00  0.59886454002E+03  0.59886454002E+03  0.00000000000E+00 0.  1.
          3   -1    0    0  501    0  0.00000000000E+00 -0.00000000000E+00 -0.31068374352E+04  0.31068374352E+04  0.00000000000E+00 0. -1.
         23    2    1    2    0    0  0.29413239196E+03  0.39542323817E+03 -0.29808669755E+04  0.30226923028E+04  0.90705186334E+02 0.  0.
         13    1    3    3    0    0  0.21948825073E+03  0.22376776131E+03 -0.19291556238E+04  0.19544535104E+04  0.00000000000E+00 0. -1.
        -13    1    3    3    0    0  0.74644141226E+02  0.17165547686E+03 -0.10517113516E+04  0.10682387925E+04  0.00000000000E+00 0.  1.
         22    1    1    2    0    0 -0.29413239196E+03 -0.39542323817E+03  0.47289408034E+03  0.68300967234E+03  0.00000000000E+00 0.  1.
<mgrwt>
<rscale>  0 0.27280577E+04</rscale>
<asrwt>0</asrwt>
<pdfrwt beam="1">  1        3 0.47797499E+00 0.27280577E+04</pdfrwt>
<pdfrwt beam="2">  1       -3 0.92133006E-01 0.27280577E+04</pdfrwt>
<totfact> 0.10597569E-02</totfact>
</mgrwt>
</event>
<event>
 6    1  0.1603085E-006  0.1520591E+04  0.7818608E-02  0.8870875E-01
         -1   -1    0    0    0  501 -0.00000000000E+00  0.00000000000E+00  0.41679425790E+03  0.41679425790E+03  0.00000000000E+00 0.  1.
          1   -1    0    0  501    0  0.00000000000E+00 -0.00000000000E+00 -0.13868926361E+04  0.13868926361E+04  0.00000000000E+00 0. -1.
         23    2    1    2    0    0  0.60197263335E+03  0.25419549613E+03 -0.31420840570E+02  0.65996405990E+03  0.87056818169E+02 0.  0.
         11    1    3    3    0    0  0.18841263266E+03  0.12250772100E+03  0.92061580983E+00  0.22474053791E+03  0.00000000000E+00 0.  1.
        -11    1    3    3    0    0  0.41356000069E+03  0.13168777513E+03 -0.32341456380E+02  0.43522352199E+03  0.00000000000E+00 0. -1.
         22    1    1    2    0    0 -0.60197263335E+03 -0.25419549613E+03 -0.93867753760E+03  0.11437228341E+04  0.00000000000E+00 0. -1.
<mgrwt>
<rscale>  0 0.15205905E+04</rscale>
<asrwt>0</asrwt>
<pdfrwt beam="1">  1        1 0.21336810E+00 0.15205905E+04</pdfrwt>
<pdfrwt beam="2">  1       -1 0.64122192E-01 0.15205905E+04</pdfrwt>
<totfact> 0.18691837E+01</totfact>
</mgrwt>
</event>
<event>
 6    1  0.1603085E-006  0.1694258E+04  0.7818608E-02  0.8764646E-01
          1   -1    0    0  501    0  0.00000000000E+00  0.00000000000E+00  0.78051889800E+03  0.78051889800E+03  0.00000000000E+00 0.  1.
         -1   -1    0    0    0  501 -0.00000000000E+00 -0.00000000000E+00 -0.91942386123E+03  0.91942386123E+03  0.00000000000E+00 0. -1.
         23    2    1    2    0    0  0.33111113366E+03  0.77301936777E+03 -0.15052246792E+03  0.85891452415E+03  0.88789755439E+02 0.  0.
         13    1    3    3    0    0  0.19670772963E+03  0.38586161616E+03 -0.11154206535E+03  0.44724126606E+03  0.00000000000E+00 0.  1.
        -13    1    3    3    0    0  0.13440340403E+03  0.38715775161E+03 -0.38980402572E+02  0.41167325810E+03  0.00000000000E+00 0. -1.
         22    1    1    2    0    0 -0.33111113366E+03 -0.77301936777E+03  0.11617504697E+02  0.84102823508E+03  0.00000000000E+00 0.  1.
<mgrwt>
<rscale>  0 0.16942582E+04</rscale>
<asrwt>0</asrwt>
<pdfrwt beam="1">  1        1 0.12007983E+00 0.16942582E+04</pdfrwt>
<pdfrwt beam="2">  1       -1 0.14144982E+00 0.16942582E+04</pdfrwt>
<totfact> 0.89345323E+00</totfact>
</mgrwt>
</event>
<event>
 6    1  0.1603085E-006  0.3176835E+04  0.7818608E-02  0.8194962E-01
          2   -1    0    0  501    0  0.00000000000E+00  0.00000000000E+00  0.14566071755E+04  0.14566071755E+04  0.00000000000E+00 0. -1.
         -2   -1    0    0    0  501 -0.00000000000E+00 -0.00000000000E+00 -0.17321553336E+04  0.17321553336E+04  0.00000000000E+00 0.  1.
         23    2    1    2    0    0  0.36422003265E+03 -0.22221561818E+03 -0.16722928376E+04  0.17283065143E+04  0.91891564078E+02 0.  0.
         11    1    3    3    0    0  0.61140968306E+02 -0.71389383700E+02 -0.27621427316E+03  0.29176872144E+03  0.00000000000E+00 0.  1.
        -11    1    3    3    0    0  0.30307906434E+03 -0.15082623449E+03 -0.13960785645E+04  0.14365377929E+04  0.00000000000E+00 0. -1.
         22    1    1    2    0    0 -0.36422003265E+03  0.22221561818E+03  0.13967446795E+04  0.14604559949E+04  0.00000000000E+00 0. -1.
<mgrwt>
<rscale>  0 0.31768348E+04</rscale>
<asrwt>0</asrwt>
<pdfrwt beam="1">  1        2 0.22409341E+00 0.31768348E+04</pdfrwt>
<pdfrwt beam="2">  1       -2 0.26648544E+00 0.31768348E+04</pdfrwt>
<totfact> 0.57713524E-01</totfact>
</mgrwt>
</event>
<event>
 6    1  0.1603085E-006  0.2561616E+04  0.7818608E-02  0.8381358E-01
          2   -1    0    0  501    0  0.00000000000E+00  0.00000000000E+00  0.16208592509E+04  0.16208592509E+04  0.00000000000E+00 0. -1.
         -2   -1    0    0    0  501 -0.00000000000E+00 -0.00000000000E+00 -0.10120983787E+04  0.10120983787E+04  0.00000000000E+00 0.  1.
         23    2    1    2    0    0  0.46692157992E+03 -0.11835050839E+04  0.44158345025E+03  0.13497396685E+04  0.90006576038E+02 0.  0.
         13    1    3    3    0    0  0.13910491326E+03 -0.42475153021E+03  0.11938714663E+03  0.46262007100E+03  0.00000000000E+00 0. -1.
        -13    1    3    3    0    0  0.32781666665E+03 -0.75875355366E+03  0.32219630362E+03  0.88711959746E+03  0.00000000000E+00 0.  1.
         22    1    1    2    0    0 -0.46692157992E+03  0.11835050839E+04  0.16717742189E+03  0.12832179611E+04  0.00000000000E+00 0. -1.
<mgrwt>
<rscale>  0 0.25616159E+04</rscale>
<asrwt>0</asrwt>
<pdfrwt beam="1">  1        2 0.24936296E+00 0.25616159E+04</pdfrwt>
<pdfrwt beam="2">  1       -2 0.15570744E+00 0.25616159E+04</pdfrwt>
<totfact> 0.26127889E+00</totfact>
</mgrwt>
</event>
<event>
 6    1  0.1603085E-006  0.2276250E+04  0.7818608E-02  0.8487345E-01
          2   -1    0    0  501    0  0.00000000000E+00  0.00000000000E+00  0.99164058605E+03  0.99164058605E+03  0.00000000000E+00 0. -1.
         -2   -1    0    0    0  501 -0.00000000000E+00 -0.00000000000E+00 -0.13062480751E+04  0.13062480751E+04  0.00000000000E+00 0.  1.
         23    2    1    2    0    0  0.45155042692E+03 -0.10100674697E+04  0.10418216745E+03  0.11148760417E+04  0.89222099620E+02 0.  0.
         13    1    3    3    0    0  0.30174656018E+03 -0.57850931687E+03  0.41738031087E+02  0.65380890138E+03  0.00000000000E+00 0.  1.
        -13    1    3    3    0    0  0.14980386674E+03 -0.43155815281E+03  0.62444136361E+02  0.46106714035E+03  0.00000000000E+00 0. -1.
         22    1    1    2    0    0 -0.45155042692E+03  0.10100674697E+04 -0.41878965650E+03  0.11830126194E+04  0.00000000000E+00 0.  1.
<mgrwt>
<rscale>  0 0.22762501E+04</rscale>
<asrwt>0</asrwt>
<pdfrwt beam="1">  1        2 0.15256009E+00 0.22762501E+04</pdfrwt>
<pdfrwt beam="2">  1       -2 0.20096124E+00 0.22762501E+04</pdfrwt>
<totfact> 0.30359395E+00</totfact>
</mgrwt>
</event>
<event>
 6    1  0.1603085E-006  0.3369599E+04  0.7818608E-02  0.8145408E-01
          2   -1    0    0  501    0  0.00000000000E+00  0.00000000000E+00  0.38220061235E+04  0.38220061235E+04  0.00000000000E+00 0.  1.
         -2   -1    0    0    0  501 -0.00000000000E+00 -0.00000000000E+00 -0.74268575142E+03  0.74268575142E+03  0.00000000000E+00 0. -1.
         23    2    1    2    0    0  0.91483554398E+03 -0.14360703661E+03 -0.36389826932E+03  0.99912015835E+03  0.90951013759E+02 0.  0.
         13    1    3    3    0    0  0.52290022413E+03 -0.78685680321E+02 -0.15933774257E+03  0.55227221267E+03  0.00000000000E+00 0. -1.
        -13    1    3    3    0    0  0.39193531985E+03 -0.64921356291E+02 -0.20456052674E+03  0.44684794567E+03  0.00000000000E+00 0.  1.
         22    1    1    2    0    0 -0.91483554398E+03  0.14360703661E+03  0.34432186414E+04  0.35655717165E+04  0.00000000000E+00 0.  1.
<mgrwt>
<rscale>  0 0.33695991E+04</rscale>
<asrwt>0</asrwt>
<pdfrwt beam="1">  1        2 0.58800093E+00 0.33695991E+04</pdfrwt>
<pdfrwt beam="2">  1       -2 0.11425935E+00 0.33695991E+04</pdfrwt>
<totfact> 0.23458265E-01</totfact>
</mgrwt>
</event>
<event>
 6    1  0.1603085E-006  0.1239694E+04  0.7818608E-02  0.9078805E-01
          2   -1    0    0  501    0  0.00000000000E+00  0.00000000000E+00  0.19632820763E+04  0.19632820763E+04  0.00000000000E+00 0. -1.
         -2   -1    0    0    0  501 -0.00000000000E+00 -0.00000000000E+00 -0.19569797519E+03  0.19569797519E+03  0.00000000000E+00 0.  1.
         23    2    1    2    0    0  0.52793362723E+03 -0.12893070871E+03  0.13954470731E+04  0.15003276317E+04  0.91506428483E+02 0.  0.
         13    1    3    3    0    0  0.79310312276E+01  0.71653710233E+01  0.56762204408E+02  0.57759775341E+02  0.00000000000E+00 0.  1.
        -13    1    3    3    0    0  0.52000259600E+03 -0.13609607973E+03  0.13386848687E+04  0.14425678564E+04  0.00000000000E+00 0. -1.
         22    1    1    2    0    0 -0.52793362723E+03  0.12893070871E+03  0.37213702807E+03  0.65865241977E+03  0.00000000000E+00 0.  1.
<mgrwt>
<rscale>  0 0.12396940E+04</rscale>
<asrwt>0</asrwt>
<pdfrwt beam="1">  1        2 0.30204338E+00 0.12396940E+04</pdfrwt>
<pdfrwt beam="2">  1       -2 0.30107382E-01 0.12396940E+04</pdfrwt>
<totfact> 0.70269774E+01</totfact>
</mgrwt>
</event>
<event>
 6    1  0.1603085E-006  0.1172342E+04  0.7818608E-02  0.9137416E-01
         -2   -1    0    0    0  501 -0.00000000000E+00  0.00000000000E+00  0.28640050874E+03  0.28640050874E+03  0.00000000000E+00 0.  1.
          2   -1    0    0  501    0  0.00000000000E+00 -0.00000000000E+00 -0.11997061748E+04  0.11997061748E+04  0.00000000000E+00 0. -1.
         23    2    1    2    0    0 -0.33758892745E+03 -0.42108024052E+03 -0.18147087321E+03  0.57678989775E+03  0.92087216413E+02 0.  0.
         13    1    3    3    0    0 -0.56963517157E+02 -0.13461033538E+03 -0.57161203380E+02  0.15694644899E+03  0.00000000000E+00 0. -1.
        -13    1    3    3    0    0 -0.28062541030E+03 -0.28646990514E+03 -0.12430966983E+03  0.41984344876E+03  0.00000000000E+00 0.  1.
         22    1    1    2    0    0  0.33758892745E+03  0.42108024052E+03 -0.73183479289E+03  0.90931678582E+03  0.00000000000E+00 0. -1.
<mgrwt>
<rscale>  0 0.11723420E+04</rscale>
<asrwt>0</asrwt>
<pdfrwt beam="1">  1        2 0.18457018E+00 0.11723420E+04</pdfrwt>
<pdfrwt beam="2">  1       -2 0.44061617E-01 0.11723420E+04</pdfrwt>
<totfact> 0.91443949E+01</totfact>
</mgrwt>
</event>
<event>
 6    1  0.1603085E-006  0.6882554E+03  0.7818608E-02  0.9737530E-01
          2   -1    0    0  501    0  0.00000000000E+00  0.00000000000E+00  0.14524289457E+03  0.14524289457E+03  0.00000000000E+00 0. -1.
         -2   -1    0    0    0  501 -0.00000000000E+00 -0.00000000000E+00 -0.81535060934E+03  0.81535060934E+03  0.00000000000E+00 0.  1.
         23    2    1    2    0    0  0.75107079622E+01  0.28314435443E+03 -0.85764593898E+02  0.31122148489E+03  0.96312568800E+02 0.  0.
         11    1    3    3    0    0 -0.44176844969E+02  0.12099551740E+03 -0.42228328100E+02  0.13555346014E+03  0.00000000000E+00 0. -1.
        -11    1    3    3    0    0  0.51687552931E+02  0.16214883703E+03 -0.43536265798E+02  0.17566802475E+03  0.00000000000E+00 0.  1.
         22    1    1    2    0    0 -0.75107079622E+01 -0.28314435443E+03 -0.58434312087E+03  0.64937201903E+03  0.00000000000E+00 0.  1.
<mgrwt>
<rscale>  0 0.68825543E+03</rscale>
<asrwt>0</asrwt>
<pdfrwt beam="1">  1        2 0.22345061E-01 0.68825543E+03</pdfrwt>
<pdfrwt beam="2">  1       -2 0.12543855E+00 0.68825543E+03</pdfrwt>
<totfact> 0.11999816E+02</totfact>
</mgrwt>
</event>
<event>
 6    1  0.1603085E-006  0.2249672E+04  0.7818608E-02  0.8498033E-01
          1   -1    0    0  501    0  0.00000000000E+00  0.00000000000E+00  0.83191600003E+03  0.83191600003E+03  0.00000000000E+00 0. -1.
         -1   -1    0    0    0  501 -0.00000000000E+00 -0.00000000000E+00 -0.15208941771E+04  0.15208941771E+04  0.00000000000E+00 0.  1.
         23    2    1    2    0    0 -0.54054384160E+03  0.81818034700E+03  0.22708585715E+03  0.10108787185E+04  0.93279536927E+02 0.  0.
         11    1    3    3    0    0 -0.69913252204E+02  0.93214036949E+02  0.58027437476E+02  0.13016874824E+03  0.00000000000E+00 0. -1.
        -11    1    3    3    0    0 -0.47063058940E+03  0.72496631006E+03  0.16905841967E+03  0.88070997023E+03  0.00000000000E+00 0.  1.
         22    1    1    2    0    0  0.54054384160E+03 -0.81818034700E+03 -0.91606403418E+03  0.13419314586E+04  0.00000000000E+00 0. -1.
<mgrwt>
<rscale>  0 0.22496722E+04</rscale>
<asrwt>0</asrwt>
<pdfrwt beam="1">  1        1 0.12798708E+00 0.22496722E+04</pdfrwt>
<pdfrwt beam="2">  1       -1 0.23398372E+00 0.22496722E+04</pdfrwt>
<totfact> 0.16730603E+00</totfact>
</mgrwt>
</event>
<event>
 6    1  0.2320614E-006  0.2802669E+04  0.7818608E-02  0.8302440E-01
          2   -1    0    0  501    0  0.00000000000E+00  0.00000000000E+00  0.21015861625E+04  0.21015861625E+04  0.00000000000E+00 0. -1.
         -2   -1    0    0    0  501 -0.00000000000E+00 -0.00000000000E+00 -0.93440751306E+03  0.93440751306E+03  0.00000000000E+00 0.  1.
         23    2    1    2    0    0  0.10385912136E+03  0.77249210567E+03  0.18438193510E+04  0.20038244019E+04  0.90064776929E+02 0.  0.
         13    1    3    3    0    0  0.86583222959E+02  0.34104864627E+03  0.87771743128E+03  0.94562081343E+03  0.00000000000E+00 0. -1.
        -13    1    3    3    0    0  0.17275898405E+02  0.43144345940E+03  0.96610191973E+03  0.10582035885E+04  0.00000000000E+00 0.  1.
         22    1    1    2    0    0 -0.10385912136E+03 -0.77249210567E+03 -0.67664070159E+03  0.10321692736E+04  0.00000000000E+00 0.  1.
<mgrwt>
<rscale>  0 0.28026687E+04</rscale>
<asrwt>0</asrwt>
<pdfrwt beam="1">  1        2 0.32332095E+00 0.28026687E+04</pdfrwt>
<pdfrwt beam="2">  1       -2 0.14375500E+00 0.28026687E+04</pdfrwt>
<totfact> 0.17098878E+00</totfact>
</mgrwt>
</event>
<event>
 6    1  0.1603085E-006  0.1470436E+04  0.7818608E-02  0.8904354E-01
         -2   -1    0    0    0  501 -0.00000000000E+00  0.00000000000E+00  0.27057852496E+03  0.27057852496E+03  0.00000000000E+00 0.  1.
          2   -1    0    0  501    0  0.00000000000E+00 -0.00000000000E+00 -0.19977390243E+04  0.19977390243E+04  0.00000000000E+00 0. -1.
         23    2    1    2    0    0 -0.12942227163E+03  0.49843521507E+03 -0.16703876247E+04  0.17502336301E+04  0.89079488030E+02 0.  0.
         11    1    3    3    0    0 -0.11661502036E+03  0.43499892442E+03 -0.13426670509E+04  0.14161842878E+04  0.00000000000E+00 0.  1.
        -11    1    3    3    0    0 -0.12807251276E+02  0.63436290649E+02 -0.32772057373E+03  0.33404934231E+03  0.00000000000E+00 0. -1.
         22    1    1    2    0    0  0.12942227163E+03 -0.49843521507E+03 -0.56772874667E+02  0.51808391918E+03  0.00000000000E+00 0.  1.
<mgrwt>
<rscale>  0 0.14704357E+04</rscale>
<asrwt>0</asrwt>
<pdfrwt beam="1">  1        2 0.30734447E+00 0.14704357E+04</pdfrwt>
<pdfrwt beam="2">  1       -2 0.41627464E-01 0.14704357E+04</pdfrwt>
<totfact> 0.35493143E+01</totfact>
</mgrwt>
</event>
<event>
 6    1  0.1603085E-006  0.1139603E+04  0.7818608E-02  0.9167429E-01
          1   -1    0    0  501    0  0.00000000000E+00  0.00000000000E+00  0.56183874553E+03  0.56183874553E+03  0.00000000000E+00 0. -1.
         -1   -1    0    0    0  501 -0.00000000000E+00 -0.00000000000E+00 -0.57787681942E+03  0.57787681942E+03  0.00000000000E+00 0.  1.
         23    2    1    2    0    0 -0.40295868184E+03 -0.93617143078E+02 -0.39455608159E+03  0.57898768896E+03  0.91718993117E+02 0.  0.
         13    1    3    3    0    0 -0.31418957478E+03 -0.70904315694E+02 -0.35454586436E+03  0.47900446847E+03  0.00000000000E+00 0.  1.
        -13    1    3    3    0    0 -0.88769107060E+02 -0.22712827384E+02 -0.40010217237E+02  0.99983220489E+02  0.00000000000E+00 0. -1.
         22    1    1    2    0    0  0.40295868184E+03  0.93617143078E+02  0.37851800771E+03  0.56072787599E+03  0.00000000000E+00 0. -1.
<mgrwt>
<rscale>  0 0.11396027E+04</rscale>
<asrwt>0</asrwt>
<pdfrwt beam="1">  1        1 0.86436730E-01 0.11396027E+04</pdfrwt>
<pdfrwt beam="2">  1       -1 0.88904126E-01 0.11396027E+04</pdfrwt>
<totfact> 0.46448690E+01</totfact>
</mgrwt>
</event>
<event>
 6    1  0.1603085E-006  0.1680809E+04  0.7818608E-02  0.8772386E-01
         -2   -1    0    0    0  501 -0.00000000000E+00  0.00000000000E+00  0.24899911484E+04  0.24899911484E+04  0.00000000000E+00 0.  1.
          2   -1    0    0  501    0  0.00000000000E+00 -0.00000000000E+00 -0.28364757305E+03  0.28364757305E+03  0.00000000000E+00 0. -1.
         23    2    1    2    0    0  0.45078033123E+03 -0.31686430710E+03  0.21481628205E+04  0.22195711296E+04  0.91030761621E+02 0.  0.
         13    1    3    3    0    0  0.18599968659E+03 -0.16018811569E+03  0.11077612211E+04  0.11346325568E+04  0.00000000000E+00 0.  1.
        -13    1    3    3    0    0  0.26478064464E+03 -0.15667619140E+03  0.10404015994E+04  0.10849385728E+04  0.00000000000E+00 0. -1.
         22    1    1    2    0    0 -0.45078033123E+03  0.31686430710E+03  0.58180754801E+02  0.55406759187E+03  0.00000000000E+00 0. -1.
<mgrwt>
<rscale>  0 0.16808093E+04</rscale>
<asrwt>0</asrwt>
<pdfrwt beam="1">  1        2 0.43638090E-01 0.16808093E+04</pdfrwt>
<pdfrwt beam="2">  1       -2 0.38307555E+00 0.16808093E+04</pdfrwt>
<totfact> 0.10717312E+00</totfact>
</mgrwt>
</event>
<event>
 6    1  0.1603085E-006  0.2141814E+04  0.7818608E-02  0.8543044E-01
          2   -1    0    0  501    0  0.00000000000E+00  0.00000000000E+00  0.16927657889E+04  0.16927657889E+04  0.00000000000E+00 0. -1.
         -2   -1    0    0    0  501 -0.00000000000E+00 -0.00000000000E+00 -0.67749604413E+03  0.67749604413E+03  0.00000000000E+00 0.  1.
         23    2    1    2    0    0 -0.39108102738E+03  0.65503526231E+03 -0.32012052287E+03  0.83231426184E+03  0.90853268745E+02 0.  0.
         13    1    3    3    0    0 -0.24293493353E+03  0.45824335980E+03 -0.25264746014E+03  0.57691862325E+03  0.00000000000E+00 0. -1.
        -13    1    3    3    0    0 -0.14814609385E+03  0.19679190251E+03 -0.67473062731E+02  0.25539563859E+03  0.00000000000E+00 0.  1.
         22    1    1    2    0    0  0.39108102738E+03 -0.65503526231E+03  0.13353902676E+04  0.15379475712E+04  0.00000000000E+00 0. -1.
<mgrwt>
<rscale>  0 0.21418143E+04</rscale>
<asrwt>0</asrwt>
<pdfrwt beam="1">  1        2 0.26042551E+00 0.21418143E+04</pdfrwt>
<pdfrwt beam="2">  1       -2 0.10423016E+00 0.21418143E+04</pdfrwt>
<totfact> 0.68019409E+00</totfact>
</mgrwt>
</event>
<event>
 6    1  0.1603085E-006  0.2327847E+04  0.7818608E-02  0.8467022E-01
         -1   -1    0    0    0  501 -0.00000000000E+00  0.00000000000E+00  0.12391470928E+04  0.12391470928E+04  0.00000000000E+00 0.  1.
          1   -1    0    0  501    0  0.00000000000E+00 -0.00000000000E+00 -0.10932662151E+04  0.10932662151E+04  0.00000000000E+00 0. -1.
         23    2    1    2    0    0  0.77272235363E+03 -0.42786990511E+03  0.82985558578E+03  0.12152768378E+04  0.89805387830E+02 0.  0.
         13    1    3    3    0    0  0.48051913226E+02 -0.46677312723E+02  0.42554634788E+02  0.79364065103E+02  0.00000000000E+00 0. -1.
        -13    1    3    3    0    0  0.72467044040E+03 -0.38119259238E+03  0.78730095099E+03  0.11359127727E+04  0.00000000000E+00 0.  1.
         22    1    1    2    0    0 -0.77272235363E+03  0.42786990511E+03 -0.68397470806E+03  0.11171364701E+04  0.00000000000E+00 0. -1.
<mgrwt>
<rscale>  0 0.23278468E+04</rscale>
<asrwt>0</asrwt>
<pdfrwt beam="1">  1        1 0.16819480E+00 0.23278468E+04</pdfrwt>
<pdfrwt beam="2">  1       -1 0.19063801E+00 0.23278468E+04</pdfrwt>
<totfact> 0.20229826E+00</totfact>
</mgrwt>
</event>
<event>
 6    1  0.1603085E-006  0.3165825E+04  0.7818608E-02  0.8197902E-01
          2   -1    0    0  501    0  0.00000000000E+00  0.00000000000E+00  0.17422847931E+04  0.17422847931E+04  0.00000000000E+00 0.  1.
         -2   -1    0    0    0  501 -0.00000000000E+00 -0.00000000000E+00 -0.14381181995E+04  0.14381181995E+04  0.00000000000E+00 0. -1.
         23    2    1    2    0    0 -0.14429390094E+04  0.62591173312E+03 -0.14659836430E+02  0.15755700496E+04  0.91474520750E+02 0.  0.
         11    1    3    3    0    0 -0.75716921353E+03  0.37758386865E+03 -0.14790409415E+02  0.84622311005E+03  0.00000000000E+00 0. -1.
        -11    1    3    3    0    0 -0.68576979587E+03  0.24832786447E+03  0.13057298516E+00  0.72934693956E+03  0.00000000000E+00 0.  1.
         22    1    1    2    0    0  0.14429390094E+04 -0.62591173312E+03  0.31882642994E+03  0.16048329430E+04  0.00000000000E+00 0.  1.
<mgrwt>
<rscale>  0 0.31658247E+04</rscale>
<asrwt>0</asrwt>
<pdfrwt beam="1">  1        2 0.26804381E+00 0.31658247E+04</pdfrwt>
<pdfrwt beam="2">  1       -2 0.22124895E+00 0.31658247E+04</pdfrwt>
<totfact> 0.76140164E-01</totfact>
</mgrwt>
</event>
<event>
 6    1  0.1603085E-006  0.1583295E+04  0.7818608E-02  0.8830877E-01
          2   -1    0    0  501    0  0.00000000000E+00  0.00000000000E+00  0.15626525686E+04  0.15626525686E+04  0.00000000000E+00 0. -1.
         -2   -1    0    0    0  501 -0.00000000000E+00 -0.00000000000E+00 -0.40105247108E+03  0.40105247108E+03  0.00000000000E+00 0.  1.
         23    2    1    2    0    0 -0.14082584799E+02 -0.67018728634E+03  0.10990204031E+04  0.12904550593E+04  0.89883789509E+02 0.  0.
         13    1    3    3    0    0  0.16801098625E+02 -0.59242654275E+03  0.96248969230E+03  0.11303264543E+04  0.00000000000E+00 0. -1.
        -13    1    3    3    0    0 -0.30883683424E+02 -0.77760743594E+02  0.13653071081E+03  0.16012860500E+03  0.00000000000E+00 0.  1.
         22    1    1    2    0    0  0.14082584799E+02  0.67018728634E+03  0.62579694427E+02  0.67324998041E+03  0.00000000000E+00 0.  1.
<mgrwt>
<rscale>  0 0.15832949E+04</rscale>
<asrwt>0</asrwt>
<pdfrwt beam="1">  1        2 0.24040808E+00 0.15832949E+04</pdfrwt>
<pdfrwt beam="2">  1       -2 0.61700381E-01 0.15832949E+04</pdfrwt>
<totfact> 0.27422154E+01</totfact>
</mgrwt>
</event>
<event>
 6    1  0.1603085E-006  0.2847177E+04  0.7818608E-02  0.8288770E-01
          1   -1    0    0  501    0  0.00000000000E+00  0.00000000000E+00  0.84637251466E+03  0.84637251466E+03  0.00000000000E+00 0. -1.
         -1   -1    0    0    0  501 -0.00000000000E+00 -0.00000000000E+00 -0.23944585338E+04  0.23944585338E+04  0.00000000000E+00 0.  1.
         23    2    1    2    0    0 -0.10042701523E+04 -0.22632660457E+03 -0.18917804907E+04  0.21555162737E+04  0.87376829746E+02 0.  0.
         11    1    3    3    0    0 -0.51421857851E+03 -0.15784969481E+03 -0.10169308709E+04  0.11504284718E+04  0.00000000000E+00 0. -1.
        -11    1    3    3    0    0 -0.49005157374E+03 -0.68476909765E+02 -0.87484961981E+03  0.10050878018E+04  0.00000000000E+00 0.  1.
         22    1    1    2    0    0  0.10042701523E+04  0.22632660457E+03  0.34369447155E+03  0.10853147748E+04  0.00000000000E+00 0. -1.
<mgrwt>
<rscale>  0 0.28471768E+04</rscale>
<asrwt>0</asrwt>
<pdfrwt beam="1">  1        1 0.13021116E+00 0.28471768E+04</pdfrwt>
<pdfrwt beam="2">  1       -1 0.36837823E+00 0.28471768E+04</pdfrwt>
<totfact> 0.20370536E-01</totfact>
</mgrwt>
</event>
<event>
 6    1  0.1603085E-006  0.2939957E+04  0.7818608E-02  0.8261087E-01
          2   -1    0    0  501    0  0.00000000000E+00  0.00000000000E+00  0.26013194934E+04  0.26013194934E+04  0.00000000000E+00 0. -1.
         -2   -1    0    0    0  501 -0.00000000000E+00 -0.00000000000E+00 -0.83066954164E+03  0.83066954164E+03  0.00000000000E+00 0.  1.
         23    2    1    2    0    0  0.32595688350E+03 -0.10943140298E+04 -0.19203374292E+03  0.11613286969E+04  0.89645401908E+02 0.  0.
         13    1    3    3    0    0  0.82127911643E+02 -0.17474212147E+03 -0.49870329096E+02  0.19941627970E+03  0.00000000000E+00 0. -1.
        -13    1    3    3    0    0  0.24382897185E+03 -0.91957190836E+03 -0.14216341382E+03  0.96191241721E+03  0.00000000000E+00 0.  1.
         22    1    1    2    0    0 -0.32595688350E+03  0.10943140298E+04  0.19626836947E+04  0.22706603382E+04  0.00000000000E+00 0. -1.
<mgrwt>
<rscale>  0 0.29399571E+04</rscale>
<asrwt>0</asrwt>
<pdfrwt beam="1">  1        2 0.40020300E+00 0.29399571E+04</pdfrwt>
<pdfrwt beam="2">  1       -2 0.12779532E+00 0.29399571E+04</pdfrwt>
<totfact> 0.11847747E+00</totfact>
</mgrwt>
</event>
<event>
 6    1  0.1603085E-006  0.3248331E+04  0.7818608E-02  0.8176168E-01
         -2   -1    0    0    0  501 -0.00000000000E+00  0.00000000000E+00  0.41841923882E+04  0.41841923882E+04  0.00000000000E+00 0.  1.
          2   -1    0    0  501    0  0.00000000000E+00 -0.00000000000E+00 -0.63044753211E+03  0.63044753211E+03  0.00000000000E+00 0. -1.
         23    2    1    2    0    0  0.15150015131E+04  0.13987047106E+02  0.91595350288E+03  0.17727049366E+04  0.89926360849E+02 0.  0.
         11    1    3    3    0    0  0.28237400228E+03 -0.12474358533E+02  0.13468700440E+03  0.31309946652E+03  0.00000000000E+00 0. -1.
        -11    1    3    3    0    0  0.12326275109E+04  0.26461405639E+02  0.78126649848E+03  0.14596054700E+04  0.00000000000E+00 0.  1.
         22    1    1    2    0    0 -0.15150015131E+04 -0.13987047106E+02  0.26377913532E+04  0.30419349837E+04  0.00000000000E+00 0.  1.
<mgrwt>
<rscale>  0 0.32483311E+04</rscale>
<asrwt>0</asrwt>
<pdfrwt beam="1">  1        2 0.96991930E-01 0.32483311E+04</pdfrwt>
<pdfrwt beam="2">  1       -2 0.64372189E+00 0.32483311E+04</pdfrwt>
<totfact> 0.13677194E-02</totfact>
</mgrwt>
</event>
<event>
 6    1  0.1603085E-006  0.5806314E+03  0.7818608E-02  0.9946425E-01
         -3   -1    0    0    0  501 -0.00000000000E+00  0.00000000000E+00  0.49111040920E+03  0.49111040920E+03  0.00000000000E+00 0.  1.
          3   -1    0    0  501    0  0.00000000000E+00 -0.00000000000E+00 -0.17161765957E+03  0.17161765957E+03  0.00000000000E+00 0. -1.
         23    2    1    2    0    0 -0.20595267288E+03  0.48736676030E+02 -0.50804583447E+02  0.23621677708E+03  0.91790484367E+02 0.  0.
         11    1    3    3    0    0 -0.34995859557E+02  0.19492395467E+02 -0.48311502589E+02  0.62758783844E+02  0.00000000000E+00 0.  1.
        -11    1    3    3    0    0 -0.17095681332E+03  0.29244280564E+02 -0.24930808580E+01  0.17345799324E+03  0.00000000000E+00 0. -1.
         22    1    1    2    0    0  0.20595267288E+03 -0.48736676030E+02  0.37029733307E+03  0.42651129169E+03  0.00000000000E+00 0.  1.
<mgrwt>
<rscale>  0 0.58063145E+03</rscale>
<asrwt>0</asrwt>
<pdfrwt beam="1">  1        3 0.26402717E-01 0.58063145E+03</pdfrwt>
<pdfrwt beam="2">  1       -3 0.75555447E-01 0.58063145E+03</pdfrwt>
<totfact> 0.59740315E+01</totfact>
</mgrwt>
</event>
<event>
 6    1  0.1603085E-006  0.1919276E+04  0.7818608E-02  0.8645320E-01
          1   -1    0    0  501    0  0.00000000000E+00  0.00000000000E+00  0.31012862852E+04  0.31012862852E+04  0.00000000000E+00 0. -1.
         -1   -1    0    0    0  501 -0.00000000000E+00 -0.00000000000E+00 -0.29694306458E+03  0.29694306458E+03  0.00000000000E+00 0.  1.
         23    2    1    2    0    0  0.59472693183E+03 -0.35178416769E+03  0.23150367546E+03  0.73421817315E+03  0.89611103916E+02 0.  0.
         13    1    3    3    0    0  0.37207758550E+03 -0.17266261319E+03  0.15392212863E+03  0.43811657045E+03  0.00000000000E+00 0. -1.
        -13    1    3    3    0    0  0.22264934633E+03 -0.17912155451E+03  0.77581546836E+02  0.29610160270E+03  0.00000000000E+00 0.  1.
         22    1    1    2    0    0 -0.59472693183E+03  0.35178416769E+03  0.25728395452E+04  0.26640111767E+04  0.00000000000E+00 0. -1.
<mgrwt>
<rscale>  0 0.19192764E+04</rscale>
<asrwt>0</asrwt>
<pdfrwt beam="1">  1        1 0.47712094E+00 0.19192764E+04</pdfrwt>
<pdfrwt beam="2">  1       -1 0.45683551E-01 0.19192764E+04</pdfrwt>
<totfact> 0.22457665E+00</totfact>
</mgrwt>
</event>
<event>
 6    1  0.1603085E-006  0.4538275E+04  0.7818608E-02  0.7903970E-01
          1   -1    0    0  501    0  0.00000000000E+00  0.00000000000E+00  0.25897277131E+04  0.25897277131E+04  0.00000000000E+00 0. -1.
         -1   -1    0    0    0  501 -0.00000000000E+00 -0.00000000000E+00 -0.19882337348E+04  0.19882337348E+04  0.00000000000E+00 0.  1.
         23    2    1    2    0    0 -0.16143090722E+04  0.97965459697E+03 -0.96677502036E+03  0.21233363112E+04  0.90477845263E+02 0.  0.
         11    1    3    3    0    0 -0.12501509469E+04  0.72941259640E+03 -0.77291517462E+03  0.16408284471E+04  0.00000000000E+00 0.  1.
        -11    1    3    3    0    0 -0.36415812530E+03  0.25024200057E+03 -0.19385984574E+03  0.48250786404E+03  0.00000000000E+00 0. -1.
         22    1    1    2    0    0  0.16143090722E+04 -0.97965459697E+03  0.15682689987E+04  0.24546251368E+04  0.00000000000E+00 0. -1.
<mgrwt>
<rscale>  0 0.45382746E+04</rscale>
<asrwt>0</asrwt>
<pdfrwt beam="1">  1        1 0.39841965E+00 0.45382746E+04</pdfrwt>
<pdfrwt beam="2">  1       -1 0.30588211E+00 0.45382746E+04</pdfrwt>
<totfact> 0.26580039E-02</totfact>
</mgrwt>
</event>
<event>
 6    1  0.1603085E-006  0.1768700E+04  0.7818608E-02  0.8723124E-01
         -1   -1    0    0    0  501 -0.00000000000E+00  0.00000000000E+00  0.78680280007E+03  0.78680280007E+03  0.00000000000E+00 0.  1.
          1   -1    0    0  501    0  0.00000000000E+00 -0.00000000000E+00 -0.99399149279E+03  0.99399149279E+03  0.00000000000E+00 0. -1.
         23    2    1    2    0    0 -0.12183473316E+03  0.11428668228E+03  0.76808841162E+03  0.79131433946E+03  0.91178000725E+02 0.  0.
         13    1    3    3    0    0 -0.90561815829E+02  0.57285043103E+02  0.29659935620E+03  0.31536359452E+03  0.00000000000E+00 0.  1.
        -13    1    3    3    0    0 -0.31272917332E+02  0.57001639174E+02  0.47148905542E+03  0.47595074494E+03  0.00000000000E+00 0. -1.
         22    1    1    2    0    0  0.12183473316E+03 -0.11428668228E+03 -0.97527710434E+03  0.98947995341E+03  0.00000000000E+00 0. -1.
<mgrwt>
<rscale>  0 0.17687004E+04</rscale>
<asrwt>0</asrwt>
<pdfrwt beam="1">  1        1 0.15292177E+00 0.17687004E+04</pdfrwt>
<pdfrwt beam="2">  1       -1 0.12104659E+00 0.17687004E+04</pdfrwt>
<totfact> 0.87716059E+00</totfact>
</mgrwt>
</event>
<event>
 6    1  0.1603085E-006  0.2494701E+04  0.7818608E-02  0.8404876E-01
          2   -1    0    0  501    0  0.00000000000E+00  0.00000000000E+00  0.31302510486E+04  0.31302510486E+04  0.00000000000E+00 0.  1.
         -2   -1    0    0    0  501 -0.00000000000E+00 -0.00000000000E+00 -0.49704746036E+03  0.49704746036E+03  0.00000000000E+00 0. -1.
         23    2    1    2    0    0 -0.14254563205E+02 -0.12247339689E+04  0.99060479062E+03  0.15783213746E+04  0.98102106976E+02 0.  0.
         13    1    3    3    0    0  0.37312968376E+02 -0.33398386593E+03  0.25243958425E+03  0.42031324510E+03  0.00000000000E+00 0.  1.
        -13    1    3    3    0    0 -0.51567531581E+02 -0.89075010292E+03  0.73816520637E+03  0.11580081295E+04  0.00000000000E+00 0. -1.
         22    1    1    2    0    0  0.14254563205E+02  0.12247339689E+04  0.16425987977E+04  0.20489771343E+04  0.00000000000E+00 0. -1.
<mgrwt>
<rscale>  0 0.24947011E+04</rscale>
<asrwt>0</asrwt>
<pdfrwt beam="1">  1        2 0.48157707E+00 0.24947011E+04</pdfrwt>
<pdfrwt beam="2">  1       -2 0.76468842E-01 0.24947011E+04</pdfrwt>
<totfact> 0.19645700E+00</totfact>
</mgrwt>
</event>
<event>
 6    1  0.1603085E-006  0.1954780E+04  0.7818608E-02  0.8628059E-01
          2   -1    0    0  501    0  0.00000000000E+00  0.00000000000E+00  0.24478314438E+04  0.24478314438E+04  0.00000000000E+00 0. -1.
         -2   -1    0    0    0  501 -0.00000000000E+00 -0.00000000000E+00 -0.39026036827E+03  0.39026036827E+03  0.00000000000E+00 0.  1.
         23    2    1    2    0    0 -0.75427999989E+02 -0.82994839200E+03  0.17666009621E+04  0.19553872615E+04  0.90314266948E+02 0.  0.
         13    1    3    3    0    0 -0.30870643346E+02 -0.25862340956E+03  0.45953060695E+03  0.52821155167E+03  0.00000000000E+00 0.  1.
        -13    1    3    3    0    0 -0.44557356643E+02 -0.57132498244E+03  0.13070703551E+04  0.14271757099E+04  0.00000000000E+00 0. -1.
         22    1    1    2    0    0  0.75427999989E+02  0.82994839200E+03  0.29097011341E+03  0.88270455050E+03  0.00000000000E+00 0.  1.
<mgrwt>
<rscale>  0 0.19547804E+04</rscale>
<asrwt>0</asrwt>
<pdfrwt beam="1">  1        2 0.37658944E+00 0.19547804E+04</pdfrwt>
<pdfrwt beam="2">  1       -2 0.60040058E-01 0.19547804E+04</pdfrwt>
<totfact> 0.90037999E+00</totfact>
</mgrwt>
</event>
<event>
 6    1  0.1603085E-006  0.1668046E+04  0.7818608E-02  0.8779802E-01
          2   -1    0    0  501    0  0.00000000000E+00  0.00000000000E+00  0.20928162119E+04  0.20928162119E+04  0.00000000000E+00 0. -1.
         -2   -1    0    0    0  501 -0.00000000000E+00 -0.00000000000E+00 -0.33237246559E+03  0.33237246559E+03  0.00000000000E+00 0.  1.
         23    2    1    2    0    0  0.40128414746E+03  0.72214105291E+03  0.10200139801E+04  0.13157956425E+04  0.91504022155E+02 0.  0.
         11    1    3    3    0    0  0.23326831610E+03  0.37627832218E+03  0.60958670999E+03  0.75338930178E+03  0.00000000000E+00 0. -1.
        -11    1    3    3    0    0  0.16801583136E+03  0.34586273073E+03  0.41042727009E+03  0.56240634076E+03  0.00000000000E+00 0.  1.
         22    1    1    2    0    0 -0.40128414746E+03 -0.72214105291E+03  0.74042976626E+03  0.11093930350E+04  0.00000000000E+00 0.  1.
<mgrwt>
<rscale>  0 0.16680461E+04</rscale>
<asrwt>0</asrwt>
<pdfrwt beam="1">  1        2 0.32197172E+00 0.16680461E+04</pdfrwt>
<pdfrwt beam="2">  1       -2 0.51134227E-01 0.16680461E+04</pdfrwt>
<totfact> 0.20453731E+01</totfact>
</mgrwt>
</event>
<event>
 6    1  0.1603085E-006  0.2038878E+04  0.7818608E-02  0.8588657E-01
         -1   -1    0    0    0  501 -0.00000000000E+00  0.00000000000E+00  0.10769358536E+04  0.10769358536E+04  0.00000000000E+00 0.  1.
          1   -1    0    0  501    0  0.00000000000E+00 -0.00000000000E+00 -0.96501157592E+03  0.96501157592E+03  0.00000000000E+00 0. -1.
         23    2    1    2    0    0  0.22186363763E+03  0.46120556846E+03 -0.82449356696E+03  0.97479587990E+03  0.92213423280E+02 0.  0.
         13    1    3    3    0    0  0.39640514071E+02  0.58196078576E+02 -0.17860684870E+03  0.19198583365E+03  0.00000000000E+00 0. -1.
        -13    1    3    3    0    0  0.18222312356E+03  0.40300948988E+03 -0.64588671826E+03  0.78281004625E+03  0.00000000000E+00 0.  1.
         22    1    1    2    0    0 -0.22186363763E+03 -0.46120556846E+03  0.93641784465E+03  0.10671515496E+04  0.00000000000E+00 0.  1.
<mgrwt>
<rscale>  0 0.20388777E+04</rscale>
<asrwt>0</asrwt>
<pdfrwt beam="1">  1        1 0.14846332E+00 0.20388777E+04</pdfrwt>
<pdfrwt beam="2">  1       -1 0.16568244E+00 0.20388777E+04</pdfrwt>
<totfact> 0.39485290E+00</totfact>
</mgrwt>
</event>
<event>
 6    1  0.1603085E-006  0.2492959E+04  0.7818608E-02  0.8405498E-01
          2   -1    0    0  501    0  0.00000000000E+00  0.00000000000E+00  0.11899717761E+04  0.11899717761E+04  0.00000000000E+00 0. -1.
         -2   -1    0    0    0  501 -0.00000000000E+00 -0.00000000000E+00 -0.13056706232E+04  0.13056706232E+04  0.00000000000E+00 0.  1.
         23    2    1    2    0    0  0.19046474297E+03 -0.11079160040E+03  0.11689723163E+04  0.11922116972E+04  0.79503820941E+02 0.  0.
         11    1    3    3    0    0  0.15583221586E+03 -0.75716115369E+02  0.72045595472E+03  0.74099486659E+03  0.00000000000E+00 0. -1.
        -11    1    3    3    0    0  0.34632527105E+02 -0.35075485029E+02  0.44851636159E+03  0.45121683058E+03  0.00000000000E+00 0.  1.
         22    1    1    2    0    0 -0.19046474297E+03  0.11079160040E+03 -0.12846711634E+04  0.13034307021E+04  0.00000000000E+00 0.  1.
<mgrwt>
<rscale>  0 0.24929590E+04</rscale>
<asrwt>0</asrwt>
<pdfrwt beam="1">  1        2 0.18307258E+00 0.24929590E+04</pdfrwt>
<pdfrwt beam="2">  1       -2 0.20087240E+00 0.24929590E+04</pdfrwt>
<totfact> 0.22494408E+00</totfact>
</mgrwt>
</event>
<event>
 6    1  0.1603085E-006  0.1937478E+04  0.7818608E-02  0.8636423E-01
         -1   -1    0    0    0  501 -0.00000000000E+00  0.00000000000E+00  0.10064639991E+04  0.10064639991E+04  0.00000000000E+00 0.  1.
          1   -1    0    0  501    0  0.00000000000E+00 -0.00000000000E+00 -0.93242804648E+03  0.93242804648E+03  0.00000000000E+00 0. -1.
         23    2    1    2    0    0 -0.11528942468E+03  0.39275372575E+03  0.91337524004E+03  0.10050625215E+04  0.91373970779E+02 0.  0.
         13    1    3    3    0    0 -0.24420423931E+02  0.20448009192E+03  0.38062954716E+03  0.43276704735E+03  0.00000000000E+00 0.  1.
        -13    1    3    3    0    0 -0.90869000752E+02  0.18827363383E+03  0.53274569288E+03  0.57229547419E+03  0.00000000000E+00 0. -1.
         22    1    1    2    0    0  0.11528942468E+03 -0.39275372575E+03 -0.83933928743E+03  0.93382952403E+03  0.00000000000E+00 0. -1.
<mgrwt>
<rscale>  0 0.19374780E+04</rscale>
<asrwt>0</asrwt>
<pdfrwt beam="1">  1        1 0.14345047E+00 0.19374780E+04</pdfrwt>
<pdfrwt beam="2">  1       -1 0.15484062E+00 0.19374780E+04</pdfrwt>
<totfact> 0.51109692E+00</totfact>
</mgrwt>
</event>
<event>
 6    1  0.1603085E-006  0.1909482E+04  0.7818608E-02  0.8650151E-01
         -2   -1    0    0    0  501 -0.00000000000E+00  0.00000000000E+00  0.78825683223E+03  0.78825683223E+03  0.00000000000E+00 0.  1.
          2   -1    0    0  501    0  0.00000000000E+00 -0.00000000000E+00 -0.11563881313E+04  0.11563881313E+04  0.00000000000E+00 0. -1.
         23    2    1    2    0    0 -0.76654395689E+03  0.47611322816E+03  0.12613889380E+03  0.91577351019E+03  0.91960086727E+02 0.  0.
         11    1    3    3    0    0 -0.42949067589E+03  0.28261350885E+03  0.11567396648E+03  0.52698491684E+03  0.00000000000E+00 0. -1.
        -11    1    3    3    0    0 -0.33705328100E+03  0.19349971932E+03  0.10464927319E+02  0.38878859334E+03  0.00000000000E+00 0.  1.
         22    1    1    2    0    0  0.76654395689E+03 -0.47611322816E+03 -0.49427019283E+03  0.10288714533E+04  0.00000000000E+00 0. -1.
<mgrwt>
<rscale>  0 0.19094825E+04</rscale>
<asrwt>0</asrwt>
<pdfrwt beam="1">  1        2 0.17790587E+00 0.19094825E+04</pdfrwt>
<pdfrwt beam="2">  1       -2 0.12127028E+00 0.19094825E+04</pdfrwt>
<totfact> 0.97418925E+00</totfact>
</mgrwt>
</event>
<event>
 6    1  0.1603085E-006  0.2021001E+04  0.7818608E-02  0.8596865E-01
          2   -1    0    0  501    0  0.00000000000E+00  0.00000000000E+00  0.85722447933E+03  0.85722447933E+03  0.00000000000E+00 0. -1.
         -2   -1    0    0    0  501 -0.00000000000E+00 -0.00000000000E+00 -0.11911828938E+04  0.11911828938E+04  0.00000000000E+00 0.  1.
         23    2    1    2    0    0  0.81571040468E+03  0.26360137787E+03  0.37103139143E+03  0.93850657707E+03  0.90890874413E+02 0.  0.
         13    1    3    3    0    0  0.46334095007E+03  0.19461461128E+03  0.23112571486E+03  0.55315348594E+03  0.00000000000E+00 0. -1.
        -13    1    3    3    0    0  0.35236945460E+03  0.68986766594E+02  0.13990567658E+03  0.38535309113E+03  0.00000000000E+00 0.  1.
         22    1    1    2    0    0 -0.81571040468E+03 -0.26360137787E+03 -0.70498980593E+03  0.11099007961E+04  0.00000000000E+00 0.  1.
<mgrwt>
<rscale>  0 0.20210009E+04</rscale>
<asrwt>0</asrwt>
<pdfrwt beam="1">  1        2 0.13188069E+00 0.20210009E+04</pdfrwt>
<pdfrwt beam="2">  1       -2 0.18325891E+00 0.20210009E+04</pdfrwt>
<totfact> 0.50085613E+00</totfact>
</mgrwt>
</event>
<event>
 6    1  0.1603085E-006  0.2300989E+04  0.7818608E-02  0.8477531E-01
          2   -1    0    0  501    0  0.00000000000E+00  0.00000000000E+00  0.10458886873E+04  0.10458886873E+04  0.00000000000E+00 0. -1.
         -2   -1    0    0    0  501 -0.00000000000E+00 -0.00000000000E+00 -0.12655620417E+04  0.12655620417E+04  0.00000000000E+00 0.  1.
         23    2    1    2    0    0 -0.32937135680E+02  0.90418987801E+03 -0.82167408017E+03  0.12246899162E+04  0.77928855311E+02 0.  0.
         13    1    3    3    0    0 -0.34720588204E+02  0.57979716169E+03 -0.47952178065E+03  0.75320077407E+03  0.00000000000E+00 0. -1.
        -13    1    3    3    0    0  0.17834525240E+01  0.32439271632E+03 -0.34215229951E+03  0.47148914215E+03  0.00000000000E+00 0.  1.
         22    1    1    2    0    0  0.32937135680E+02 -0.90418987801E+03  0.60200072576E+03  0.10867608128E+04  0.00000000000E+00 0. -1.
<mgrwt>
<rscale>  0 0.23009885E+04</rscale>
<asrwt>0</asrwt>
<pdfrwt beam="1">  1        2 0.16090595E+00 0.23009885E+04</pdfrwt>
<pdfrwt beam="2">  1       -2 0.19470185E+00 0.23009885E+04</pdfrwt>
<totfact> 0.30772720E+00</totfact>
</mgrwt>
</event>
<event>
 6    1  0.1603085E-006  0.1411247E+04  0.7818608E-02  0.8945717E-01
         -3   -1    0    0    0  501 -0.00000000000E+00  0.00000000000E+00  0.82332575727E+03  0.82332575727E+03  0.00000000000E+00 0.  1.
          3   -1    0    0  501    0  0.00000000000E+00 -0.00000000000E+00 -0.60474788146E+03  0.60474788146E+03  0.00000000000E+00 0. -1.
         23    2    1    2    0    0 -0.18325688102E+03  0.28369752128E+03 -0.51377140287E+03  0.62159807555E+03  0.91409764818E+02 0.  0.
         11    1    3    3    0    0 -0.93527991811E+01  0.15352818122E+02 -0.84080406352E+02  0.85980803724E+02  0.00000000000E+00 0. -1.
        -11    1    3    3    0    0 -0.17390408184E+03  0.26834470316E+03 -0.42969099652E+03  0.53561727183E+03  0.00000000000E+00 0.  1.
         22    1    1    2    0    0  0.18325688102E+03 -0.28369752128E+03  0.73234927868E+03  0.80647556318E+03  0.00000000000E+00 0.  1.
<mgrwt>
<rscale>  0 0.14112470E+04</rscale>
<asrwt>0</asrwt>
<pdfrwt beam="1">  1        3 0.93038136E-01 0.14112470E+04</pdfrwt>
<pdfrwt beam="2">  1       -3 0.12666550E+00 0.14112470E+04</pdfrwt>
<totfact> 0.13041032E+00</totfact>
</mgrwt>
</event>
<event>
 6    1  0.1603085E-006  0.2208048E+04  0.7818608E-02  0.8515086E-01
          1   -1    0    0  501    0  0.00000000000E+00  0.00000000000E+00  0.18063209306E+04  0.18063209306E+04  0.00000000000E+00 0. -1.
         -1   -1    0    0    0  501 -0.00000000000E+00 -0.00000000000E+00 -0.67477998773E+03  0.67477998773E+03  0.00000000000E+00 0.  1.
         23    2    1    2    0    0  0.64071939073E+03  0.74554980259E+03  0.68789613368E+01  0.98737054825E+03  0.92127268755E+02 0.  0.
         11    1    3    3    0    0  0.55749138341E+03  0.64834120967E+03 -0.25201867659E+02  0.85544029649E+03  0.00000000000E+00 0. -1.
        -11    1    3    3    0    0  0.83228007318E+02  0.97208592916E+02  0.32080828996E+02  0.13193025175E+03  0.00000000000E+00 0.  1.
         22    1    1    2    0    0 -0.64071939073E+03 -0.74554980259E+03  0.11246619816E+04  0.14937303701E+04  0.00000000000E+00 0. -1.
<mgrwt>
<rscale>  0 0.22080482E+04</rscale>
<asrwt>0</asrwt>
<pdfrwt beam="1">  1        1 0.27789553E+00 0.22080482E+04</pdfrwt>
<pdfrwt beam="2">  1       -1 0.10381231E+00 0.22080482E+04</pdfrwt>
<totfact> 0.32124934E+00</totfact>
</mgrwt>
</event>
<event>
 6    1  0.1603085E-006  0.3135805E+04  0.7818608E-02  0.8205980E-01
          1   -1    0    0  501    0  0.00000000000E+00  0.00000000000E+00  0.11907787746E+04  0.11907787746E+04  0.00000000000E+00 0. -1.
         -1   -1    0    0    0  501 -0.00000000000E+00 -0.00000000000E+00 -0.20644625677E+04  0.20644625677E+04  0.00000000000E+00 0.  1.
         23    2    1    2    0    0 -0.28253892580E+03 -0.13380273877E+04 -0.12305799481E+04  0.18419047227E+04  0.90224521443E+02 0.  0.
         13    1    3    3    0    0 -0.68589575138E+02 -0.19057607705E+03 -0.16099804055E+03  0.25873565665E+03  0.00000000000E+00 0. -1.
        -13    1    3    3    0    0 -0.21394935066E+03 -0.11474513106E+04 -0.10695819075E+04  0.15831690661E+04  0.00000000000E+00 0.  1.
         22    1    1    2    0    0  0.28253892580E+03  0.13380273877E+04  0.35689615503E+03  0.14133366196E+04  0.00000000000E+00 0. -1.
<mgrwt>
<rscale>  0 0.31358050E+04</rscale>
<asrwt>0</asrwt>
<pdfrwt beam="1">  1        1 0.18319674E+00 0.31358050E+04</pdfrwt>
<pdfrwt beam="2">  1       -1 0.31760962E+00 0.31358050E+04</pdfrwt>
<totfact> 0.23158945E-01</totfact>
</mgrwt>
</event>
<event>
 6    1  0.1603085E-006  0.2858232E+04  0.7818608E-02  0.8285414E-01
         -1   -1    0    0    0  501 -0.00000000000E+00  0.00000000000E+00  0.92673130522E+03  0.92673130522E+03  0.00000000000E+00 0.  1.
          1   -1    0    0  501    0  0.00000000000E+00 -0.00000000000E+00 -0.22038451459E+04  0.22038451459E+04  0.00000000000E+00 0. -1.
         23    2    1    2    0    0  0.62755942121E+03 -0.52654736164E+03  0.64130717884E+03  0.10445701809E+04  0.93643013682E+02 0.  0.
         11    1    3    3    0    0  0.49542196605E+03 -0.36867377174E+03  0.45705489004E+03  0.76828539419E+03  0.00000000000E+00 0. -1.
        -11    1    3    3    0    0  0.13213745516E+03 -0.15787358991E+03  0.18425228880E+03  0.27628478672E+03  0.00000000000E+00 0.  1.
         22    1    1    2    0    0 -0.62755942121E+03  0.52654736164E+03 -0.19184210195E+04  0.20860062702E+04  0.00000000000E+00 0. -1.
<mgrwt>
<rscale>  0 0.28582318E+04</rscale>
<asrwt>0</asrwt>
<pdfrwt beam="1">  1        1 0.33905309E+00 0.28582318E+04</pdfrwt>
<pdfrwt beam="2">  1       -1 0.14257405E+00 0.28582318E+04</pdfrwt>
<totfact> 0.74514547E-01</totfact>
</mgrwt>
</event>
<event>
 6    1  0.1603085E-006  0.1872542E+04  0.7818608E-02  0.8668646E-01
          1   -1    0    0  501    0  0.00000000000E+00  0.00000000000E+00  0.19227384639E+04  0.19227384639E+04  0.00000000000E+00 0. -1.
         -1   -1    0    0    0  501 -0.00000000000E+00 -0.00000000000E+00 -0.45591392936E+03  0.45591392936E+03  0.00000000000E+00 0.  1.
         23    2    1    2    0    0  0.70746628132E+03  0.28897446874E+03  0.14173980552E+04  0.16128470919E+04  0.90794890068E+02 0.  0.
         11    1    3    3    0    0  0.36135277413E+03  0.18231423284E+03  0.68076903125E+03  0.79199796766E+03  0.00000000000E+00 0. -1.
        -11    1    3    3    0    0  0.34611350719E+03  0.10666023590E+03  0.73662902397E+03  0.82084912422E+03  0.00000000000E+00 0.  1.
         22    1    1    2    0    0 -0.70746628132E+03 -0.28897446874E+03  0.49426479336E+02  0.76580530139E+03  0.00000000000E+00 0.  1.
<mgrwt>
<rscale>  0 0.18725419E+04</rscale>
<asrwt>0</asrwt>
<pdfrwt beam="1">  1        1 0.29580591E+00 0.18725419E+04</pdfrwt>
<pdfrwt beam="2">  1       -1 0.70140605E-01 0.18725419E+04</pdfrwt>
<totfact> 0.64790476E+00</totfact>
</mgrwt>
</event>
<event>
 6    1  0.1603085E-006  0.1682517E+04  0.7818608E-02  0.8771399E-01
          2   -1    0    0  501    0  0.00000000000E+00  0.00000000000E+00  0.28493089802E+04  0.28493089802E+04  0.00000000000E+00 0. -1.
         -2   -1    0    0    0  501 -0.00000000000E+00 -0.00000000000E+00 -0.24838172413E+03  0.24838172413E+03  0.00000000000E+00 0.  1.
         23    2    1    2    0    0 -0.70405767445E+03  0.19603434633E+03  0.20622616994E+04  0.21897880357E+04  0.90120198804E+02 0.  0.
         11    1    3    3    0    0 -0.31652409936E+03  0.11324357174E+03  0.83489870832E+03  0.90003747987E+03  0.00000000000E+00 0. -1.
        -11    1    3    3    0    0 -0.38753357509E+03  0.82790774589E+02  0.12273629911E+04  0.12897505558E+04  0.00000000000E+00 0.  1.
         22    1    1    2    0    0  0.70405767445E+03 -0.19603434633E+03  0.53866555662E+03  0.90790266867E+03  0.00000000000E+00 0.  1.
<mgrwt>
<rscale>  0 0.16825175E+04</rscale>
<asrwt>0</asrwt>
<pdfrwt beam="1">  1        2 0.43835521E+00 0.16825175E+04</pdfrwt>
<pdfrwt beam="2">  1       -2 0.38212575E-01 0.16825175E+04</pdfrwt>
<totfact> 0.13348763E+01</totfact>
</mgrwt>
</event>
<event>
 6    1  0.1603085E-006  0.3464052E+04  0.7818608E-02  0.8122362E-01
         -1   -1    0    0    0  501 -0.00000000000E+00  0.00000000000E+00  0.12898892481E+04  0.12898892481E+04  0.00000000000E+00 0.  1.
          1   -1    0    0  501    0  0.00000000000E+00 -0.00000000000E+00 -0.23257145665E+04  0.23257145665E+04  0.00000000000E+00 0. -1.
         23    2    1    2    0    0 -0.34483980102E+03 -0.16824124557E+04 -0.74280906473E+03  0.18733969715E+04  0.91786417827E+02 0.  0.
         13    1    3    3    0    0 -0.26905369443E+03 -0.13127824222E+04 -0.62044110448E+03  0.14767311004E+04  0.00000000000E+00 0.  1.
        -13    1    3    3    0    0 -0.75786106587E+02 -0.36963003348E+03 -0.12236796025E+03  0.39666587110E+03  0.00000000000E+00 0. -1.
         22    1    1    2    0    0  0.34483980102E+03  0.16824124557E+04 -0.29301625362E+03  0.17422068432E+04  0.00000000000E+00 0. -1.
<mgrwt>
<rscale>  0 0.34640521E+04</rscale>
<asrwt>0</asrwt>
<pdfrwt beam="1">  1        1 0.35780224E+00 0.34640521E+04</pdfrwt>
<pdfrwt beam="2">  1       -1 0.19844450E+00 0.34640521E+04</pdfrwt>
<totfact> 0.22560124E-01</totfact>
</mgrwt>
</event>
<event>
 6    1  0.1603085E-006  0.2540241E+04  0.7818608E-02  0.8388788E-01
          2   -1    0    0  501    0  0.00000000000E+00  0.00000000000E+00  0.12514046504E+04  0.12514046504E+04  0.00000000000E+00 0. -1.
         -2   -1    0    0    0  501 -0.00000000000E+00 -0.00000000000E+00 -0.12891163386E+04  0.12891163386E+04  0.00000000000E+00 0.  1.
         23    2    1    2    0    0 -0.11030899415E+04 -0.59509928026E+03 -0.21400082133E+03  0.12748083712E+04  0.91593992029E+02 0.  0.
         13    1    3    3    0    0 -0.38595036275E+03 -0.22293898174E+03 -0.33736162528E+02  0.44698724897E+03  0.00000000000E+00 0. -1.
        -13    1    3    3    0    0 -0.71713957879E+03 -0.37216029852E+03 -0.18026465880E+03  0.82782112227E+03  0.00000000000E+00 0.  1.
         22    1    1    2    0    0  0.11030899415E+04  0.59509928026E+03  0.17628913313E+03  0.12657126178E+04  0.00000000000E+00 0. -1.
<mgrwt>
<rscale>  0 0.25402411E+04</rscale>
<asrwt>0</asrwt>
<pdfrwt beam="1">  1        2 0.19252379E+00 0.25402411E+04</pdfrwt>
<pdfrwt beam="2">  1       -2 0.19832559E+00 0.25402411E+04</pdfrwt>
<totfact> 0.21408726E+00</totfact>
</mgrwt>
</event>
<event>
 6    1  0.1603085E-006  0.8784470E+03  0.7818608E-02  0.9452932E-01
         -1   -1    0    0    0  501 -0.00000000000E+00  0.00000000000E+00  0.63417969190E+03  0.63417969190E+03  0.00000000000E+00 0.  1.
          1   -1    0    0  501    0  0.00000000000E+00 -0.00000000000E+00 -0.30419971379E+03  0.30419971379E+03  0.00000000000E+00 0. -1.
         23    2    1    2    0    0  0.10029922815E+03 -0.25454797937E+03 -0.18814308699E+03  0.35245610050E+03  0.11820690601E+03 0.  0.
         11    1    3    3    0    0  0.65896200594E+02 -0.39009626786E+02 -0.72471530935E+02  0.10543331082E+03  0.00000000000E+00 0.  1.
        -11    1    3    3    0    0  0.34403027556E+02 -0.21553835259E+03 -0.11567155606E+03  0.24702278968E+03  0.00000000000E+00 0. -1.
         22    1    1    2    0    0 -0.10029922815E+03  0.25454797937E+03  0.51812306511E+03  0.58592330519E+03  0.00000000000E+00 0.  1.
<mgrwt>
<rscale>  0 0.87844700E+03</rscale>
<asrwt>0</asrwt>
<pdfrwt beam="1">  1        1 0.46799956E-01 0.87844700E+03</pdfrwt>
<pdfrwt beam="2">  1       -1 0.97566106E-01 0.87844700E+03</pdfrwt>
<totfact> 0.87624938E+01</totfact>
</mgrwt>
</event>
<event>
 6    1  0.1603085E-006  0.1421438E+04  0.7818608E-02  0.8938445E-01
          1   -1    0    0  501    0  0.00000000000E+00  0.00000000000E+00  0.12919183037E+04  0.12919183037E+04  0.00000000000E+00 0. -1.
         -1   -1    0    0    0  501 -0.00000000000E+00 -0.00000000000E+00 -0.39098550376E+03  0.39098550376E+03  0.00000000000E+00 0.  1.
         23    2    1    2    0    0  0.68370754474E+03  0.10414972601E+03  0.63050424713E+03  0.94031726416E+03  0.91420891850E+02 0.  0.
         13    1    3    3    0    0  0.44659939426E+03  0.87404230091E+02  0.46533723831E+03  0.65086808475E+03  0.00000000000E+00 0. -1.
        -13    1    3    3    0    0  0.23710815048E+03  0.16745495915E+02  0.16516700882E+03  0.28944917941E+03  0.00000000000E+00 0.  1.
         22    1    1    2    0    0 -0.68370754474E+03 -0.10414972601E+03  0.27042855286E+03  0.74258654335E+03  0.00000000000E+00 0.  1.
<mgrwt>
<rscale>  0 0.14214378E+04</rscale>
<asrwt>0</asrwt>
<pdfrwt beam="1">  1        1 0.19875666E+00 0.14214378E+04</pdfrwt>
<pdfrwt beam="2">  1       -1 0.60151617E-01 0.14214378E+04</pdfrwt>
<totfact> 0.25006202E+01</totfact>
</mgrwt>
</event>
<event>
 6    1  0.1603085E-006  0.1156353E+04  0.7818608E-02  0.9151942E-01
          2   -1    0    0  501    0  0.00000000000E+00  0.00000000000E+00  0.21861793974E+04  0.21861793974E+04  0.00000000000E+00 0. -1.
         -2   -1    0    0    0  501 -0.00000000000E+00 -0.00000000000E+00 -0.15290980472E+03  0.15290980472E+03  0.00000000000E+00 0.  1.
         23    2    1    2    0    0  0.22960676066E+03  0.11183687406E+03  0.20641004807E+04  0.20818397228E+04  0.91209023506E+02 0.  0.
         11    1    3    3    0    0  0.13439927141E+03  0.27356386956E+02  0.12993763844E+04  0.13065950117E+04  0.00000000000E+00 0.  1.
        -11    1    3    3    0    0  0.95207489245E+02  0.84480487102E+02  0.76472409626E+03  0.77524471112E+03  0.00000000000E+00 0. -1.
         22    1    1    2    0    0 -0.22960676066E+03 -0.11183687406E+03 -0.30830888058E+02  0.25724947930E+03  0.00000000000E+00 0.  1.
<mgrwt>
<rscale>  0 0.11563533E+04</rscale>
<asrwt>0</asrwt>
<pdfrwt beam="1">  1        2 0.33633527E+00 0.11563533E+04</pdfrwt>
<pdfrwt beam="2">  1       -2 0.23524587E-01 0.11563533E+04</pdfrwt>
<totfact> 0.83581985E+01</totfact>
</mgrwt>
</event>
<event>
 6    1  0.1603085E-006  0.3334220E+04  0.7818608E-02  0.8154242E-01
         -2   -1    0    0    0  501 -0.00000000000E+00  0.00000000000E+00  0.17581868048E+04  0.17581868048E+04  0.00000000000E+00 0.  1.
          2   -1    0    0  501    0  0.00000000000E+00 -0.00000000000E+00 -0.15807508434E+04  0.15807508434E+04  0.00000000000E+00 0. -1.
         23    2    1    2    0    0 -0.34943836155E+03  0.10088084779E+04 -0.11917980068E+04  0.16026763277E+04  0.91581704319E+02 0.  0.
         11    1    3    3    0    0 -0.86430892771E+02  0.32785469181E+03 -0.42993921943E+03  0.54754609903E+03  0.00000000000E+00 0.  1.
        -11    1    3    3    0    0 -0.26300746878E+03  0.68095378609E+03 -0.76185878741E+03  0.10551302286E+04  0.00000000000E+00 0. -1.
         22    1    1    2    0    0  0.34943836155E+03 -0.10088084779E+04  0.13692339682E+04  0.17362613206E+04  0.00000000000E+00 0.  1.
<mgrwt>
<rscale>  0 0.33342197E+04</rscale>
<asrwt>0</asrwt>
<pdfrwt beam="1">  1        2 0.24319244E+00 0.33342197E+04</pdfrwt>
<pdfrwt beam="2">  1       -2 0.27049028E+00 0.33342197E+04</pdfrwt>
<totfact> 0.45832019E-01</totfact>
</mgrwt>
</event>
<event>
 6    1  0.1603085E-006  0.1463044E+04  0.7818608E-02  0.8909407E-01
          2   -1    0    0  501    0  0.00000000000E+00  0.00000000000E+00  0.14709443920E+04  0.14709443920E+04  0.00000000000E+00 0. -1.
         -2   -1    0    0    0  501 -0.00000000000E+00 -0.00000000000E+00 -0.36379627239E+03  0.36379627239E+03  0.00000000000E+00 0.  1.
         23    2    1    2    0    0  0.49121237872E+03 -0.40236549852E+03  0.10031032015E+04  0.11913022909E+04  0.98982423861E+02 0.  0.
         11    1    3    3    0    0  0.17408129718E+03 -0.89482509586E+02  0.27072841506E+03  0.33407378268E+03  0.00000000000E+00 0.  1.
        -11    1    3    3    0    0  0.31713108154E+03 -0.31288298894E+03  0.73237478639E+03  0.85722850826E+03  0.00000000000E+00 0. -1.
         22    1    1    2    0    0 -0.49121237872E+03  0.40236549852E+03  0.10404491813E+03  0.64343837343E+03  0.00000000000E+00 0. -1.
<mgrwt>
<rscale>  0 0.14630435E+04</rscale>
<asrwt>0</asrwt>
<pdfrwt beam="1">  1        2 0.22629913E+00 0.14630435E+04</pdfrwt>
<pdfrwt beam="2">  1       -2 0.55968658E-01 0.14630435E+04</pdfrwt>
<totfact> 0.38285765E+01</totfact>
</mgrwt>
</event>
<event>
 6    1  0.1603085E-006  0.2542843E+04  0.7818608E-02  0.8387879E-01
          1   -1    0    0  501    0  0.00000000000E+00  0.00000000000E+00  0.12209727775E+04  0.12209727775E+04  0.00000000000E+00 0.  1.
         -1   -1    0    0    0  501 -0.00000000000E+00 -0.00000000000E+00 -0.13239551399E+04  0.13239551399E+04  0.00000000000E+00 0. -1.
         23    2    1    2    0    0  0.78104113470E+02 -0.63862934841E+03 -0.11472157333E+04  0.13183998785E+04  0.90147676504E+02 0.  0.
         13    1    3    3    0    0 -0.18586958897E+02 -0.67762741853E+02 -0.11016771044E+03  0.13066823886E+03  0.00000000000E+00 0.  1.
        -13    1    3    3    0    0  0.96691072367E+02 -0.57086660656E+03 -0.10370480229E+04  0.11877316396E+04  0.00000000000E+00 0. -1.
         22    1    1    2    0    0 -0.78104113470E+02  0.63862934841E+03  0.10442333710E+04  0.12265280389E+04  0.00000000000E+00 0.  1.
<mgrwt>
<rscale>  0 0.25428434E+04</rscale>
<asrwt>0</asrwt>
<pdfrwt beam="1">  1        1 0.18784196E+00 0.25428434E+04</pdfrwt>
<pdfrwt beam="2">  1       -1 0.20368541E+00 0.25428434E+04</pdfrwt>
<totfact> 0.12962236E+00</totfact>
</mgrwt>
</event>
<event>
 6    1  0.1603085E-006  0.2942081E+04  0.7818608E-02  0.8260466E-01
         -2   -1    0    0    0  501 -0.00000000000E+00  0.00000000000E+00  0.14704696201E+04  0.14704696201E+04  0.00000000000E+00 0.  1.
          2   -1    0    0  501    0  0.00000000000E+00 -0.00000000000E+00 -0.14716113922E+04  0.14716113922E+04  0.00000000000E+00 0. -1.
         23    2    1    2    0    0  0.12284452966E+04  0.77153188737E+03 -0.23582231726E+03  0.14725864535E+04  0.92517012765E+02 0.  0.
         13    1    3    3    0    0  0.66805986082E+03  0.46718274106E+03 -0.11004528366E+03  0.82260176005E+03  0.00000000000E+00 0. -1.
        -13    1    3    3    0    0  0.56038543580E+03  0.30434914631E+03 -0.12577703360E+03  0.64998469343E+03  0.00000000000E+00 0.  1.
         22    1    1    2    0    0 -0.12284452966E+04 -0.77153188737E+03  0.23468054518E+03  0.14694945588E+04  0.00000000000E+00 0.  1.
<mgrwt>
<rscale>  0 0.29420808E+04</rscale>
<asrwt>0</asrwt>
<pdfrwt beam="1">  1        2 0.22640175E+00 0.29420808E+04</pdfrwt>
<pdfrwt beam="2">  1       -2 0.22622610E+00 0.29420808E+04</pdfrwt>
<totfact> 0.10229692E+00</totfact>
</mgrwt>
</event>
<event>
 6    1  0.1603085E-006  0.3231368E+04  0.7818608E-02  0.8180582E-01
          2   -1    0    0  501    0  0.00000000000E+00  0.00000000000E+00  0.17709490946E+04  0.17709490946E+04  0.00000000000E+00 0. -1.
         -2   -1    0    0    0  501 -0.00000000000E+00 -0.00000000000E+00 -0.14740315996E+04  0.14740315996E+04  0.00000000000E+00 0.  1.
         23    2    1    2    0    0  0.14802351098E+04  0.95907762842E+01 -0.49853134216E+03  0.15645263462E+04  0.89561294905E+02 0.  0.
         13    1    3    3    0    0  0.13571269745E+04  0.10416497907E+02 -0.43017282472E+03  0.14237102189E+04  0.00000000000E+00 0. -1.
        -13    1    3    3    0    0  0.12310813533E+03 -0.82572162232E+00 -0.68358517438E+02  0.14081612730E+03  0.00000000000E+00 0.  1.
         22    1    1    2    0    0 -0.14802351098E+04 -0.95907762842E+01  0.79544883715E+03  0.16804543480E+04  0.00000000000E+00 0.  1.
<mgrwt>
<rscale>  0 0.32313681E+04</rscale>
<asrwt>0</asrwt>
<pdfrwt beam="1">  1        2 0.27245371E+00 0.32313681E+04</pdfrwt>
<pdfrwt beam="2">  1       -2 0.22677409E+00 0.32313681E+04</pdfrwt>
<totfact> 0.67378774E-01</totfact>
</mgrwt>
</event>
<event>
 6    1  0.1603085E-006  0.3238533E+04  0.7818608E-02  0.8178714E-01
          2   -1    0    0  501    0  0.00000000000E+00  0.00000000000E+00  0.21912972525E+04  0.21912972525E+04  0.00000000000E+00 0. -1.
         -2   -1    0    0    0  501 -0.00000000000E+00 -0.00000000000E+00 -0.11965624409E+04  0.11965624409E+04  0.00000000000E+00 0.  1.
         23    2    1    2    0    0 -0.60903972529E+03  0.37214726715E+03  0.20167688028E+04  0.21412737740E+04  0.90961507468E+02 0.  0.
         11    1    3    3    0    0 -0.49954069801E+03  0.30453813196E+03  0.15382104941E+04  0.16457144063E+04  0.00000000000E+00 0. -1.
        -11    1    3    3    0    0 -0.10949902728E+03  0.67609135186E+02  0.47855830868E+03  0.49555936773E+03  0.00000000000E+00 0.  1.
         22    1    1    2    0    0  0.60903972529E+03 -0.37214726715E+03 -0.10220339912E+04  0.12465859195E+04  0.00000000000E+00 0.  1.
<mgrwt>
<rscale>  0 0.32385330E+04</rscale>
<asrwt>0</asrwt>
<pdfrwt beam="1">  1        2 0.33712265E+00 0.32385330E+04</pdfrwt>
<pdfrwt beam="2">  1       -2 0.18408653E+00 0.32385330E+04</pdfrwt>
<totfact> 0.74510699E-01</totfact>
</mgrwt>
</event>
<event>
 6    1  0.1603085E-006  0.1359317E+04  0.7818608E-02  0.8983805E-01
         -2   -1    0    0    0  501 -0.00000000000E+00  0.00000000000E+00  0.54985122897E+03  0.54985122897E+03  0.00000000000E+00 0.  1.
          2   -1    0    0  501    0  0.00000000000E+00 -0.00000000000E+00 -0.84011027943E+03  0.84011027943E+03  0.00000000000E+00 0. -1.
         23    2    1    2    0    0  0.22410383821E+03 -0.10614925670E+03  0.49782426335E+03  0.56378628212E+03  0.92389283633E+02 0.  0.
         11    1    3    3    0    0  0.17063162775E+03 -0.42491895889E+02  0.38850193224E+03  0.42644397635E+03  0.00000000000E+00 0.  1.
        -11    1    3    3    0    0  0.53472210456E+02 -0.63657360816E+02  0.10932233111E+03  0.13734230578E+03  0.00000000000E+00 0. -1.
         22    1    1    2    0    0 -0.22410383821E+03  0.10614925670E+03 -0.78808331381E+03  0.82617522628E+03  0.00000000000E+00 0. -1.
<mgrwt>
<rscale>  0 0.13593170E+04</rscale>
<asrwt>0</asrwt>
<pdfrwt beam="1">  1        2 0.12924774E+00 0.13593170E+04</pdfrwt>
<pdfrwt beam="2">  1       -2 0.84592496E-01 0.13593170E+04</pdfrwt>
<totfact> 0.38361780E+01</totfact>
</mgrwt>
</event>
<event>
 6    1  0.1603085E-006  0.8973048E+03  0.7818608E-02  0.9428957E-01
         -1   -1    0    0    0  501 -0.00000000000E+00  0.00000000000E+00  0.31006781745E+03  0.31006781745E+03  0.00000000000E+00 0.  1.
          1   -1    0    0  501    0  0.00000000000E+00 -0.00000000000E+00 -0.64917724431E+03  0.64917724431E+03  0.00000000000E+00 0. -1.
         23    2    1    2    0    0  0.30720678507E+03  0.31404934556E+03 -0.10451202848E+03  0.46120998312E+03  0.93749048995E+02 0.  0.
         13    1    3    3    0    0  0.13096002066E+03  0.19783917371E+03 -0.69404488110E+02  0.24720001747E+03  0.00000000000E+00 0.  1.
        -13    1    3    3    0    0  0.17624676441E+03  0.11621017185E+03 -0.35107540374E+02  0.21400996565E+03  0.00000000000E+00 0. -1.
         22    1    1    2    0    0 -0.30720678507E+03 -0.31404934556E+03 -0.23459739838E+03  0.49803507865E+03  0.00000000000E+00 0. -1.
<mgrwt>
<rscale>  0 0.89730479E+03</rscale>
<asrwt>0</asrwt>
<pdfrwt beam="1">  1        1 0.99873421E-01 0.89730479E+03</pdfrwt>
<pdfrwt beam="2">  1       -1 0.47702742E-01 0.89730479E+03</pdfrwt>
<totfact> 0.13492225E+02</totfact>
</mgrwt>
</event>
<event>
 6    1  0.1603085E-006  0.2266013E+04  0.7818608E-02  0.8491443E-01
         -2   -1    0    0    0  501 -0.00000000000E+00  0.00000000000E+00  0.16319171314E+04  0.16319171314E+04  0.00000000000E+00 0.  1.
          2   -1    0    0  501    0  0.00000000000E+00 -0.00000000000E+00 -0.78662329006E+03  0.78662329006E+03  0.00000000000E+00 0. -1.
         23    2    1    2    0    0 -0.68008867837E+03 -0.60124553364E+03  0.11437442045E+04  0.14629832953E+04  0.90291276753E+02 0.  0.
         13    1    3    3    0    0 -0.55802956804E+03 -0.45921439587E+03  0.94847337853E+03  0.11924246768E+04  0.00000000000E+00 0. -1.
        -13    1    3    3    0    0 -0.12205911033E+03 -0.14203113777E+03  0.19527082599E+03  0.27055861840E+03  0.00000000000E+00 0.  1.
         22    1    1    2    0    0  0.68008867837E+03  0.60124553364E+03 -0.29845036317E+03  0.95555712621E+03  0.00000000000E+00 0. -1.
<mgrwt>
<rscale>  0 0.22660133E+04</rscale>
<asrwt>0</asrwt>
<pdfrwt beam="1">  1        2 0.12101897E+00 0.22660133E+04</pdfrwt>
<pdfrwt beam="2">  1       -2 0.25106417E+00 0.22660133E+04</pdfrwt>
<totfact> 0.20268513E+00</totfact>
</mgrwt>
</event>
<event>
 6    1  0.1603085E-006  0.1274232E+04  0.7818608E-02  0.9050253E-01
         -1   -1    0    0    0  501 -0.00000000000E+00  0.00000000000E+00  0.52578690636E+03  0.52578690636E+03  0.00000000000E+00 0.  1.
          1   -1    0    0  501    0  0.00000000000E+00 -0.00000000000E+00 -0.77201762335E+03  0.77201762335E+03  0.00000000000E+00 0. -1.
         23    2    1    2    0    0  0.58742860715E+03  0.23779669284E+03 -0.11439501602E+03  0.65050221420E+03  0.91909060335E+02 0.  0.
         11    1    3    3    0    0  0.15569962688E+03  0.10812185168E+03 -0.31390802163E+02  0.19214081056E+03  0.00000000000E+00 0. -1.
        -11    1    3    3    0    0  0.43172898027E+03  0.12967484116E+03 -0.83004213854E+02  0.45836140364E+03  0.00000000000E+00 0.  1.
         22    1    1    2    0    0 -0.58742860715E+03 -0.23779669284E+03 -0.13183570097E+03  0.64730231551E+03  0.00000000000E+00 0.  1.
<mgrwt>
<rscale>  0 0.12742319E+04</rscale>
<asrwt>0</asrwt>
<pdfrwt beam="1">  1        1 0.11877194E+00 0.12742319E+04</pdfrwt>
<pdfrwt beam="2">  1       -1 0.80890294E-01 0.12742319E+04</pdfrwt>
<totfact> 0.35111856E+01</totfact>
</mgrwt>
</event>
<event>
 6    1  0.1603085E-006  0.1576611E+04  0.7818608E-02  0.8835047E-01
          1   -1    0    0  501    0  0.00000000000E+00  0.00000000000E+00  0.57989106041E+03  0.57989106041E+03  0.00000000000E+00 0. -1.
         -1   -1    0    0    0  501 -0.00000000000E+00 -0.00000000000E+00 -0.10716251018E+04  0.10716251018E+04  0.00000000000E+00 0.  1.
         23    2    1    2    0    0 -0.23915904259E+03  0.74551121500E+03 -0.31499126613E+03  0.84888173240E+03  0.91633391981E+02 0.  0.
         11    1    3    3    0    0 -0.34123368262E+02  0.12632174731E+03 -0.90415038388E+02  0.15904863178E+03  0.00000000000E+00 0. -1.
        -11    1    3    3    0    0 -0.20503567433E+03  0.61918946769E+03 -0.22457622775E+03  0.68983310062E+03  0.00000000000E+00 0.  1.
         22    1    1    2    0    0  0.23915904259E+03 -0.74551121500E+03 -0.17674277528E+03  0.80263442983E+03  0.00000000000E+00 0.  1.
<mgrwt>
<rscale>  0 0.15766113E+04</rscale>
<asrwt>0</asrwt>
<pdfrwt beam="1">  1        1 0.89214011E-01 0.15766113E+04</pdfrwt>
<pdfrwt beam="2">  1       -1 0.16486540E+00 0.15766113E+04</pdfrwt>
<totfact> 0.92889970E+00</totfact>
</mgrwt>
</event>
<event>
 6    1  0.1603085E-006  0.1914818E+04  0.7818608E-02  0.8647516E-01
         -1   -1    0    0    0  501 -0.00000000000E+00  0.00000000000E+00  0.36018825805E+03  0.36018825805E+03  0.00000000000E+00 0.  1.
          1   -1    0    0  501    0  0.00000000000E+00 -0.00000000000E+00 -0.25448687483E+04  0.25448687483E+04  0.00000000000E+00 0. -1.
         23    2    1    2    0    0  0.37350338459E+02 -0.89707880175E+03 -0.15894383136E+04  0.18278111323E+04  0.91836583728E+02 0.  0.
         11    1    3    3    0    0  0.46492828537E+02 -0.82957118214E+03 -0.14204586629E+04  0.16456162197E+04  0.00000000000E+00 0. -1.
        -11    1    3    3    0    0 -0.91424900779E+01 -0.67507619610E+02 -0.16897965069E+03  0.18219491260E+03  0.00000000000E+00 0.  1.
         22    1    1    2    0    0 -0.37350338459E+02  0.89707880175E+03 -0.59524217658E+03  0.10772458740E+04  0.00000000000E+00 0.  1.
<mgrwt>
<rscale>  0 0.19148178E+04</rscale>
<asrwt>0</asrwt>
<pdfrwt beam="1">  1        1 0.39151829E+00 0.19148178E+04</pdfrwt>
<pdfrwt beam="2">  1       -1 0.55413575E-01 0.19148178E+04</pdfrwt>
<totfact> 0.38825173E+00</totfact>
</mgrwt>
</event>
<event>
 6    1  0.1603085E-006  0.2994772E+04  0.7818608E-02  0.8245225E-01
          2   -1    0    0  501    0  0.00000000000E+00  0.00000000000E+00  0.20102175188E+04  0.20102175188E+04  0.00000000000E+00 0. -1.
         -2   -1    0    0    0  501 -0.00000000000E+00 -0.00000000000E+00 -0.11153845407E+04  0.11153845407E+04  0.00000000000E+00 0.  1.
         23    2    1    2    0    0 -0.16180925812E+03 -0.60659648386E+03  0.18650384885E+04  0.19699895542E+04  0.91371492969E+02 0.  0.
         11    1    3    3    0    0 -0.58421510655E+02 -0.34357878176E+03  0.92904896663E+03  0.99226580843E+03  0.00000000000E+00 0. -1.
        -11    1    3    3    0    0 -0.10338774746E+03 -0.26301770210E+03  0.93598952185E+03  0.97772374573E+03  0.00000000000E+00 0.  1.
         22    1    1    2    0    0  0.16180925812E+03  0.60659648386E+03 -0.97020551031E+03  0.11556125053E+04  0.00000000000E+00 0.  1.
<mgrwt>
<rscale>  0 0.29947725E+04</rscale>
<asrwt>0</asrwt>
<pdfrwt beam="1">  1        2 0.30926423E+00 0.29947725E+04</pdfrwt>
<pdfrwt beam="2">  1       -2 0.17159762E+00 0.29947725E+04</pdfrwt>
<totfact> 0.11726755E+00</totfact>
</mgrwt>
</event>
<event>
 6    1  0.1603085E-006  0.8189993E+03  0.7818608E-02  0.9532916E-01
          2   -1    0    0  501    0  0.00000000000E+00  0.00000000000E+00  0.62646561915E+03  0.62646561915E+03  0.00000000000E+00 0. -1.
         -2   -1    0    0    0  501 -0.00000000000E+00 -0.00000000000E+00 -0.26767624466E+03  0.26767624466E+03  0.00000000000E+00 0.  1.
         23    2    1    2    0    0 -0.12748303292E+03 -0.25692950550E+03 -0.12843840352E+03  0.32876092838E+03  0.96553767659E+02 0.  0.
         11    1    3    3    0    0 -0.86113188763E+02 -0.22624018381E+03 -0.72453963207E+02  0.25268493986E+03  0.00000000000E+00 0. -1.
        -11    1    3    3    0    0 -0.41369844153E+02 -0.30689321695E+02 -0.55984440315E+02  0.76075988516E+02  0.00000000000E+00 0.  1.
         22    1    1    2    0    0  0.12748303292E+03  0.25692950550E+03  0.48722777801E+03  0.56538093543E+03  0.00000000000E+00 0. -1.
<mgrwt>
<rscale>  0 0.81899930E+03</rscale>
<asrwt>0</asrwt>
<pdfrwt beam="1">  1        2 0.96379325E-01 0.81899930E+03</pdfrwt>
<pdfrwt beam="2">  1       -2 0.41180961E-01 0.81899930E+03</pdfrwt>
<totfact> 0.26426516E+02</totfact>
</mgrwt>
</event>
<event>
 6    1  0.1603085E-006  0.2744789E+04  0.7818608E-02  0.8320617E-01
          2   -1    0    0  501    0  0.00000000000E+00  0.00000000000E+00  0.10607333850E+04  0.10607333850E+04  0.00000000000E+00 0. -1.
         -2   -1    0    0    0  501 -0.00000000000E+00 -0.00000000000E+00 -0.17756273908E+04  0.17756273908E+04  0.00000000000E+00 0.  1.
         23    2    1    2    0    0 -0.54074562424E+02  0.13144265780E+04 -0.75621000714E+03  0.15201737453E+04  0.91833293794E+02 0.  0.
         13    1    3    3    0    0  0.83609182204E+01  0.29106015819E+03 -0.13079637746E+03  0.31920778969E+03  0.00000000000E+00 0. -1.
        -13    1    3    3    0    0 -0.62435480644E+02  0.10233664198E+04 -0.62541362968E+03  0.12009659556E+04  0.00000000000E+00 0.  1.
         22    1    1    2    0    0  0.54074562424E+02 -0.13144265780E+04  0.41316001372E+02  0.13161870305E+04  0.00000000000E+00 0. -1.
<mgrwt>
<rscale>  0 0.27447894E+04</rscale>
<asrwt>0</asrwt>
<pdfrwt beam="1">  1        2 0.16318975E+00 0.27447894E+04</pdfrwt>
<pdfrwt beam="2">  1       -2 0.27317344E+00 0.27447894E+04</pdfrwt>
<totfact> 0.93375809E-01</totfact>
</mgrwt>
</event>
<event>
 6    1  0.1603085E-006  0.8887644E+03  0.7818608E-02  0.9439736E-01
          1   -1    0    0  501    0  0.00000000000E+00  0.00000000000E+00  0.28855528523E+03  0.28855528523E+03  0.00000000000E+00 0. -1.
         -1   -1    0    0    0  501 -0.00000000000E+00 -0.00000000000E+00 -0.68435945459E+03  0.68435945459E+03  0.00000000000E+00 0.  1.
         23    2    1    2    0    0  0.76710536715E+02  0.43128004679E+03 -0.16083215574E+03  0.47582437339E+03  0.93031536558E+02 0.  0.
         13    1    3    3    0    0 -0.16093170826E+02  0.16063005719E+03 -0.65914454079E+02  0.17437236213E+03  0.00000000000E+00 0. -1.
        -13    1    3    3    0    0  0.92803707541E+02  0.27064998960E+03 -0.94917701659E+02  0.30145201126E+03  0.00000000000E+00 0.  1.
         22    1    1    2    0    0 -0.76710536715E+02 -0.43128004679E+03 -0.23497201362E+03  0.49709036642E+03  0.00000000000E+00 0.  1.
<mgrwt>
<rscale>  0 0.88876440E+03</rscale>
<asrwt>0</asrwt>
<pdfrwt beam="1">  1        1 0.44393121E-01 0.88876440E+03</pdfrwt>
<pdfrwt beam="2">  1       -1 0.10528607E+00 0.88876440E+03</pdfrwt>
<totfact> 0.78739514E+01</totfact>
</mgrwt>
</event>
<event>
 6    1  0.1603085E-006  0.2674990E+04  0.7818608E-02  0.8343166E-01
         -1   -1    0    0    0  501 -0.00000000000E+00  0.00000000000E+00  0.52630565427E+03  0.52630565427E+03  0.00000000000E+00 0.  1.
          1   -1    0    0  501    0  0.00000000000E+00 -0.00000000000E+00 -0.33989623895E+04  0.33989623895E+04  0.00000000000E+00 0. -1.
         23    2    1    2    0    0 -0.96087733263E+02 -0.11613142601E+04 -0.47897985191E+03  0.12630184903E+04  0.88940121003E+02 0.  0.
         11    1    3    3    0    0 -0.44269058938E+02 -0.24279930144E+03 -0.13114404188E+03  0.27948168112E+03  0.00000000000E+00 0.  1.
        -11    1    3    3    0    0 -0.51818674325E+02 -0.91851495865E+03 -0.34783581002E+03  0.98353680918E+03  0.00000000000E+00 0. -1.
         22    1    1    2    0    0  0.96087733263E+02  0.11613142601E+04 -0.23936768833E+04  0.26622495535E+04  0.00000000000E+00 0. -1.
<mgrwt>
<rscale>  0 0.26749902E+04</rscale>
<asrwt>0</asrwt>
<pdfrwt beam="1">  1        1 0.52291727E+00 0.26749902E+04</pdfrwt>
<pdfrwt beam="2">  1       -1 0.80970104E-01 0.26749902E+04</pdfrwt>
<totfact> 0.39872154E-01</totfact>
</mgrwt>
</event>
<event>
 6    1  0.2849172E-006  0.4232661E+04  0.7818608E-02  0.7959188E-01
         -1   -1    0    0    0  501 -0.00000000000E+00  0.00000000000E+00  0.17218799303E+04  0.17218799303E+04  0.00000000000E+00 0.  1.
          1   -1    0    0  501    0  0.00000000000E+00 -0.00000000000E+00 -0.26011418652E+04  0.26011418652E+04  0.00000000000E+00 0. -1.
         23    2    1    2    0    0 -0.47376743143E+03  0.77722245780E+03 -0.23900747832E+04  0.25591947659E+04  0.92141480750E+02 0.  0.
         11    1    3    3    0    0 -0.27259529606E+03  0.35925826025E+03 -0.11636392797E+04  0.12479707794E+04  0.00000000000E+00 0. -1.
        -11    1    3    3    0    0 -0.20117213537E+03  0.41796419754E+03 -0.12264355035E+04  0.13112239865E+04  0.00000000000E+00 0.  1.
         22    1    1    2    0    0  0.47376743143E+03 -0.77722245780E+03  0.15108128482E+04  0.17638270296E+04  0.00000000000E+00 0.  1.
<mgrwt>
<rscale>  0 0.42326606E+04</rscale>
<asrwt>0</asrwt>
<pdfrwt beam="1">  1        1 0.40017567E+00 0.42326606E+04</pdfrwt>
<pdfrwt beam="2">  1       -1 0.26490461E+00 0.42326606E+04</pdfrwt>
<totfact> 0.49315908E-02</totfact>
</mgrwt>
</event>
<event>
 6    1  0.1603085E-006  0.6271106E+03  0.7818608E-02  0.9850704E-01
         -2   -1    0    0    0  501 -0.00000000000E+00  0.00000000000E+00  0.47829755563E+03  0.47829755563E+03  0.00000000000E+00 0.  1.
          2   -1    0    0  501    0  0.00000000000E+00 -0.00000000000E+00 -0.20555596050E+03  0.20555596050E+03  0.00000000000E+00 0. -1.
         23    2    1    2    0    0  0.52996819166E+02 -0.30083760473E+03  0.17388993557E+03  0.36278720233E+03  0.89804884156E+02 0.  0.
         11    1    3    3    0    0 -0.11341858022E+02 -0.18723565466E+03  0.95258923384E+02  0.21038082280E+03  0.00000000000E+00 0.  1.
        -11    1    3    3    0    0  0.64338677188E+02 -0.11360195007E+03  0.78631012184E+02  0.15240637952E+03  0.00000000000E+00 0. -1.
         22    1    1    2    0    0 -0.52996819166E+02  0.30083760473E+03  0.98851659558E+02  0.32106631380E+03  0.00000000000E+00 0. -1.
<mgrwt>
<rscale>  0 0.62711056E+03</rscale>
<asrwt>0</asrwt>
<pdfrwt beam="1">  1        2 0.31623994E-01 0.62711056E+03</pdfrwt>
<pdfrwt beam="2">  1       -2 0.73584239E-01 0.62711056E+03</pdfrwt>
<totfact> 0.28224032E+02</totfact>
</mgrwt>
</event>
<event>
 6    1  0.1603085E-006  0.3134399E+04  0.7818608E-02  0.8206360E-01
         -2   -1    0    0    0  501 -0.00000000000E+00  0.00000000000E+00  0.23815119772E+04  0.23815119772E+04  0.00000000000E+00 0.  1.
          2   -1    0    0  501    0  0.00000000000E+00 -0.00000000000E+00 -0.10313253002E+04  0.10313253002E+04  0.00000000000E+00 0. -1.
         23    2    1    2    0    0 -0.11412806185E+04  0.10415802663E+04  0.39921332400E+03  0.15985161318E+04  0.92041535440E+02 0.  0.
         11    1    3    3    0    0 -0.84749172199E+03  0.74700675680E+03  0.32854377899E+03  0.11765212825E+04  0.00000000000E+00 0. -1.
        -11    1    3    3    0    0 -0.29378889656E+03  0.29457350950E+03  0.70669545011E+02  0.42199484930E+03  0.00000000000E+00 0.  1.
         22    1    1    2    0    0  0.11412806185E+04 -0.10415802663E+04  0.95097335298E+03  0.18143211456E+04  0.00000000000E+00 0.  1.
<mgrwt>
<rscale>  0 0.31343985E+04</rscale>
<asrwt>0</asrwt>
<pdfrwt beam="1">  1        2 0.15866543E+00 0.31343985E+04</pdfrwt>
<pdfrwt beam="2">  1       -2 0.36638646E+00 0.31343985E+04</pdfrwt>
<totfact> 0.24922742E-01</totfact>
</mgrwt>
</event>
<event>
 6    1  0.1603085E-006  0.2854639E+04  0.7818608E-02  0.8286503E-01
         -1   -1    0    0    0  501 -0.00000000000E+00  0.00000000000E+00  0.58490527846E+03  0.58490527846E+03  0.00000000000E+00 0.  1.
          1   -1    0    0  501    0  0.00000000000E+00 -0.00000000000E+00 -0.34830268085E+04  0.34830268085E+04  0.00000000000E+00 0. -1.
         23    2    1    2    0    0  0.61284577696E+03 -0.50365747496E+03 -0.31389227218E+04  0.32389350952E+04  0.92811094475E+02 0.  0.
         13    1    3    3    0    0  0.37778301743E+03 -0.33647260599E+03 -0.21561680834E+04  0.22147222459E+04  0.00000000000E+00 0.  1.
        -13    1    3    3    0    0  0.23506275953E+03 -0.16718486897E+03 -0.98275463843E+03  0.10242128493E+04  0.00000000000E+00 0. -1.
         22    1    1    2    0    0 -0.61284577696E+03  0.50365747496E+03  0.24080119173E+03  0.82899699177E+03  0.00000000000E+00 0.  1.
<mgrwt>
<rscale>  0 0.28546389E+04</rscale>
<asrwt>0</asrwt>
<pdfrwt beam="1">  1        1 0.53585028E+00 0.28546389E+04</pdfrwt>
<pdfrwt beam="2">  1       -1 0.89985427E-01 0.28546389E+04</pdfrwt>
<totfact> 0.26820461E-01</totfact>
</mgrwt>
</event>
<event>
 6    1  0.1603085E-006  0.8343846E+03  0.7818608E-02  0.9511538E-01
          3   -1    0    0  501    0  0.00000000000E+00  0.00000000000E+00  0.18900342539E+03  0.18900342539E+03  0.00000000000E+00 0. -1.
         -3   -1    0    0    0  501 -0.00000000000E+00 -0.00000000000E+00 -0.92087960336E+03  0.92087960336E+03  0.00000000000E+00 0.  1.
         23    2    1    2    0    0  0.15974518434E+03  0.17473488255E+03 -0.81925889050E+03  0.85752110304E+03  0.90036156040E+02 0.  0.
         13    1    3    3    0    0  0.10210281130E+02  0.69935226075E+02 -0.23265462083E+03  0.24315295244E+03  0.00000000000E+00 0.  1.
        -13    1    3    3    0    0  0.14953490321E+03  0.10479965648E+03 -0.58660426967E+03  0.61436815059E+03  0.00000000000E+00 0. -1.
         22    1    1    2    0    0 -0.15974518434E+03 -0.17473488255E+03  0.87382712536E+02  0.25236192571E+03  0.00000000000E+00 0. -1.
<mgrwt>
<rscale>  0 0.83438456E+03</rscale>
<asrwt>0</asrwt>
<pdfrwt beam="1">  1        3 0.29077450E-01 0.83438456E+03</pdfrwt>
<pdfrwt beam="2">  1       -3 0.14167379E+00 0.83438456E+03</pdfrwt>
<totfact> 0.11324770E+01</totfact>
</mgrwt>
</event>
<event>
 6    1  0.1603085E-006  0.2060019E+04  0.7818608E-02  0.8579063E-01
         -1   -1    0    0    0  501 -0.00000000000E+00  0.00000000000E+00  0.12469016063E+04  0.12469016063E+04  0.00000000000E+00 0.  1.
          1   -1    0    0  501    0  0.00000000000E+00 -0.00000000000E+00 -0.85084499334E+03  0.85084499334E+03  0.00000000000E+00 0. -1.
         23    2    1    2    0    0 -0.50398930894E+03 -0.23346361115E+03 -0.68244755503E+03  0.88461770228E+03  0.91122623718E+02 0.  0.
         11    1    3    3    0    0 -0.39921416184E+03 -0.14484776191E+03 -0.53736693093E+03  0.68492046225E+03  0.00000000000E+00 0. -1.
        -11    1    3    3    0    0 -0.10477514710E+03 -0.88615849239E+02 -0.14508062410E+03  0.19969724003E+03  0.00000000000E+00 0.  1.
         22    1    1    2    0    0  0.50398930894E+03  0.23346361115E+03  0.10785041680E+04  0.12131288974E+04  0.00000000000E+00 0.  1.
<mgrwt>
<rscale>  0 0.20600194E+04</rscale>
<asrwt>0</asrwt>
<pdfrwt beam="1">  1        1 0.13089923E+00 0.20600194E+04</pdfrwt>
<pdfrwt beam="2">  1       -1 0.19183102E+00 0.20600194E+04</pdfrwt>
<totfact> 0.31653399E+00</totfact>
</mgrwt>
</event>
<event>
 6    1  0.1603085E-006  0.2520807E+04  0.7818608E-02  0.8395610E-01
          2   -1    0    0  501    0  0.00000000000E+00  0.00000000000E+00  0.21387407497E+04  0.21387407497E+04  0.00000000000E+00 0. -1.
         -2   -1    0    0    0  501 -0.00000000000E+00 -0.00000000000E+00 -0.74278132910E+03  0.74278132910E+03  0.00000000000E+00 0.  1.
         23    2    1    2    0    0 -0.93335968008E+03  0.82599476555E+03  0.49646979809E+03  0.13444764626E+04  0.87789823310E+02 0.  0.
         13    1    3    3    0    0 -0.34588636661E+03  0.30818919517E+03  0.13922069841E+03  0.48373583854E+03  0.00000000000E+00 0. -1.
        -13    1    3    3    0    0 -0.58747331347E+03  0.51780557038E+03  0.35724909968E+03  0.86074062410E+03  0.00000000000E+00 0.  1.
         22    1    1    2    0    0  0.93335968008E+03 -0.82599476555E+03  0.89948962247E+03  0.15370456161E+04  0.00000000000E+00 0. -1.
<mgrwt>
<rscale>  0 0.25208068E+04</rscale>
<asrwt>0</asrwt>
<pdfrwt beam="1">  1        2 0.32903704E+00 0.25208068E+04</pdfrwt>
<pdfrwt beam="2">  1       -2 0.11427405E+00 0.25208068E+04</pdfrwt>
<totfact> 0.29800295E+00</totfact>
</mgrwt>
</event>
<event>
 6    1  0.1603085E-006  0.2950569E+04  0.7818608E-02  0.8257989E-01
         -1   -1    0    0    0  501 -0.00000000000E+00  0.00000000000E+00  0.52873648478E+03  0.52873648478E+03  0.00000000000E+00 0.  1.
          1   -1    0    0  501    0  0.00000000000E+00 -0.00000000000E+00 -0.41163492565E+04  0.41163492565E+04  0.00000000000E+00 0. -1.
         23    2    1    2    0    0  0.54383423256E+03 -0.71183623440E+03  0.47057005268E+02  0.90165270664E+03  0.91086467404E+02 0.  0.
         11    1    3    3    0    0  0.22934985907E+03 -0.37489976960E+03  0.18904409995E+02  0.43989609207E+03  0.00000000000E+00 0. -1.
        -11    1    3    3    0    0  0.31448437349E+03 -0.33693646480E+03  0.28152595273E+02  0.46175661457E+03  0.00000000000E+00 0.  1.
         22    1    1    2    0    0 -0.54383423256E+03  0.71183623440E+03 -0.36346697769E+04  0.37434330346E+04  0.00000000000E+00 0. -1.
<mgrwt>
<rscale>  0 0.29505688E+04</rscale>
<asrwt>0</asrwt>
<pdfrwt beam="1">  1        1 0.63328447E+00 0.29505688E+04</pdfrwt>
<pdfrwt beam="2">  1       -1 0.81344079E-01 0.29505688E+04</pdfrwt>
<totfact> 0.97103524E-02</totfact>
</mgrwt>
</event>
<event>
 6    1  0.1603085E-006  0.1221206E+04  0.7818608E-02  0.9094495E-01
          1   -1    0    0  501    0  0.00000000000E+00  0.00000000000E+00  0.76692877295E+03  0.76692877295E+03  0.00000000000E+00 0. -1.
         -1   -1    0    0    0  501 -0.00000000000E+00 -0.00000000000E+00 -0.48614188931E+03  0.48614188931E+03  0.00000000000E+00 0.  1.
         23    2    1    2    0    0 -0.10693703041E+03  0.20125021502E+03  0.71930575400E+03  0.75886829766E+03  0.80889727005E+02 0.  0.
         11    1    3    3    0    0  0.57408675497E+01  0.44726075341E+02  0.89876062574E+02  0.10055389599E+03  0.00000000000E+00 0.  1.
        -11    1    3    3    0    0 -0.11267789796E+03  0.15652413968E+03  0.62942969143E+03  0.65831440167E+03  0.00000000000E+00 0. -1.
         22    1    1    2    0    0  0.10693703041E+03 -0.20125021502E+03 -0.43851887036E+03  0.49420236460E+03  0.00000000000E+00 0.  1.
<mgrwt>
<rscale>  0 0.12212063E+04</rscale>
<asrwt>0</asrwt>
<pdfrwt beam="1">  1        1 0.11798904E+00 0.12212063E+04</pdfrwt>
<pdfrwt beam="2">  1       -1 0.74791060E-01 0.12212063E+04</pdfrwt>
<totfact> 0.42044846E+01</totfact>
</mgrwt>
</event>
<event>
 6    1  0.1603085E-006  0.3942311E+04  0.7818608E-02  0.8016286E-01
         -1   -1    0    0    0  501 -0.00000000000E+00  0.00000000000E+00  0.22655818214E+04  0.22655818214E+04  0.00000000000E+00 0.  1.
          1   -1    0    0  501    0  0.00000000000E+00 -0.00000000000E+00 -0.17149914915E+04  0.17149914915E+04  0.00000000000E+00 0. -1.
         23    2    1    2    0    0 -0.60375660466E+03  0.96458267883E+03  0.18993098202E+04  0.22159243264E+04  0.89448561008E+02 0.  0.
         13    1    3    3    0    0 -0.29808032989E+03  0.45736522960E+03  0.99581352432E+03  0.11356405292E+04  0.00000000000E+00 0. -1.
        -13    1    3    3    0    0 -0.30567627477E+03  0.50721744922E+03  0.90349629589E+03  0.10802837972E+04  0.00000000000E+00 0.  1.
         22    1    1    2    0    0  0.60375660466E+03 -0.96458267883E+03 -0.13487194903E+04  0.17646489865E+04  0.00000000000E+00 0. -1.
<mgrwt>
<rscale>  0 0.39423108E+04</rscale>
<asrwt>0</asrwt>
<pdfrwt beam="1">  1        1 0.26384484E+00 0.39423108E+04</pdfrwt>
<pdfrwt beam="2">  1       -1 0.34855105E+00 0.39423108E+04</pdfrwt>
<totfact> 0.58125085E-02</totfact>
</mgrwt>
</event>
<event>
 6    1  0.1603085E-006  0.3165504E+04  0.7818608E-02  0.8197987E-01
         -1   -1    0    0    0  501 -0.00000000000E+00  0.00000000000E+00  0.66162402394E+03  0.66162402394E+03  0.00000000000E+00 0.  1.
          1   -1    0    0  501    0  0.00000000000E+00 -0.00000000000E+00 -0.37862955622E+04  0.37862955622E+04  0.00000000000E+00 0. -1.
         23    2    1    2    0    0 -0.11333294307E+04  0.10796287319E+04 -0.12464810804E+04  0.20029997116E+04  0.90878839664E+02 0.  0.
         13    1    3    3    0    0 -0.30995370268E+03  0.24092230840E+03 -0.31249836530E+03  0.50176696265E+03  0.00000000000E+00 0. -1.
        -13    1    3    3    0    0 -0.82337572800E+03  0.83870642351E+03 -0.93398271515E+03  0.15012327489E+04  0.00000000000E+00 0.  1.
         22    1    1    2    0    0  0.11333294307E+04 -0.10796287319E+04 -0.18781904578E+04  0.24449198745E+04  0.00000000000E+00 0.  1.
<mgrwt>
<rscale>  0 0.31655041E+04</rscale>
<asrwt>0</asrwt>
<pdfrwt beam="1">  1        1 0.58250700E+00 0.31655041E+04</pdfrwt>
<pdfrwt beam="2">  1       -1 0.10178831E+00 0.31655041E+04</pdfrwt>
<totfact> 0.11220758E-01</totfact>
</mgrwt>
</event>
<event>
 6    1  0.1603085E-006  0.6351578E+03  0.7818608E-02  0.9835035E-01
          2   -1    0    0  501    0  0.00000000000E+00  0.00000000000E+00  0.12096508470E+04  0.12096508470E+04  0.00000000000E+00 0. -1.
         -2   -1    0    0    0  501 -0.00000000000E+00 -0.00000000000E+00 -0.83376414328E+02  0.83376414328E+02  0.00000000000E+00 0.  1.
         23    2    1    2    0    0  0.43991184864E+02  0.29299947718E+03  0.76641301809E+03  0.82688977552E+03  0.92595186640E+02 0.  0.
         13    1    3    3    0    0 -0.11383818601E+02  0.73031105908E+02  0.11120022711E+03  0.13352387152E+03  0.00000000000E+00 0.  1.
        -13    1    3    3    0    0  0.55375003465E+02  0.21996837127E+03  0.65521279097E+03  0.69336590400E+03  0.00000000000E+00 0. -1.
         22    1    1    2    0    0 -0.43991184864E+02 -0.29299947718E+03  0.35986141460E+03  0.46613748583E+03  0.00000000000E+00 0. -1.
<mgrwt>
<rscale>  0 0.63515778E+03</rscale>
<asrwt>0</asrwt>
<pdfrwt beam="1">  1        2 0.18610012E+00 0.63515778E+03</pdfrwt>
<pdfrwt beam="2">  1       -2 0.12827141E-01 0.63515778E+03</pdfrwt>
<totfact> 0.86129710E+02</totfact>
</mgrwt>
</event>
<event>
 6    1  0.1603085E-006  0.2549349E+04  0.7818608E-02  0.8385612E-01
          3   -1    0    0  501    0  0.00000000000E+00  0.00000000000E+00  0.19697247031E+04  0.19697247031E+04  0.00000000000E+00 0. -1.
         -3   -1    0    0    0  501 -0.00000000000E+00 -0.00000000000E+00 -0.82488465066E+03  0.82488465066E+03  0.00000000000E+00 0.  1.
         23    2    1    2    0    0  0.31526035062E+03 -0.10525617485E+03  0.19202663438E+04  0.19509542796E+04  0.91278798049E+02 0.  0.
         11    1    3    3    0    0  0.96092265111E+02 -0.46884079747E+02  0.40812572498E+03  0.42189862259E+03  0.00000000000E+00 0. -1.
        -11    1    3    3    0    0  0.21916808551E+03 -0.58372095102E+02  0.15121406188E+04  0.15290556570E+04  0.00000000000E+00 0.  1.
         22    1    1    2    0    0 -0.31526035062E+03  0.10525617485E+03 -0.77542629129E+03  0.84365507421E+03  0.00000000000E+00 0.  1.
<mgrwt>
<rscale>  0 0.25493495E+04</rscale>
<asrwt>0</asrwt>
<pdfrwt beam="1">  1        3 0.30303457E+00 0.25493495E+04</pdfrwt>
<pdfrwt beam="2">  1       -3 0.12690533E+00 0.25493495E+04</pdfrwt>
<totfact> 0.42415084E-02</totfact>
</mgrwt>
</event>
<event>
 6    1  0.1603085E-006  0.2374787E+04  0.7818608E-02  0.8449004E-01
         -1   -1    0    0    0  501 -0.00000000000E+00  0.00000000000E+00  0.65653134967E+03  0.65653134967E+03  0.00000000000E+00 0.  1.
          1   -1    0    0  501    0  0.00000000000E+00 -0.00000000000E+00 -0.21475037218E+04  0.21475037218E+04  0.00000000000E+00 0. -1.
         23    2    1    2    0    0 -0.90713113211E+03 -0.75247397284E+03 -0.59421512490E+03  0.13230632516E+04  0.91108630534E+02 0.  0.
         13    1    3    3    0    0 -0.77137677698E+03 -0.67948278607E+03 -0.51915051277E+03  0.11516233080E+04  0.00000000000E+00 0. -1.
        -13    1    3    3    0    0 -0.13575435513E+03 -0.72991186774E+02 -0.75064612130E+02  0.17143994364E+03  0.00000000000E+00 0.  1.
         22    1    1    2    0    0  0.90713113211E+03  0.75247397284E+03 -0.89675724721E+03  0.14809718198E+04  0.00000000000E+00 0. -1.
<mgrwt>
<rscale>  0 0.23747872E+04</rscale>
<asrwt>0</asrwt>
<pdfrwt beam="1">  1        1 0.33038518E+00 0.23747872E+04</pdfrwt>
<pdfrwt beam="2">  1       -1 0.10100482E+00 0.23747872E+04</pdfrwt>
<totfact> 0.19784695E+00</totfact>
</mgrwt>
</event>
<event>
 6    1  0.1603085E-006  0.2786326E+04  0.7818608E-02  0.8307526E-01
         -1   -1    0    0    0  501 -0.00000000000E+00  0.00000000000E+00  0.76214255279E+03  0.76214255279E+03  0.00000000000E+00 0.  1.
          1   -1    0    0  501    0  0.00000000000E+00 -0.00000000000E+00 -0.25466402933E+04  0.25466402933E+04  0.00000000000E+00 0. -1.
         23    2    1    2    0    0 -0.72634292865E+03  0.11852045397E+04 -0.81493292183E+03  0.16139849854E+04  0.92455477140E+02 0.  0.
         13    1    3    3    0    0 -0.17643671542E+03  0.35678252679E+03 -0.20861853026E+03  0.44938332984E+03  0.00000000000E+00 0.  1.
        -13    1    3    3    0    0 -0.54990621323E+03  0.82842201288E+03 -0.60631439158E+03  0.11646016556E+04  0.00000000000E+00 0. -1.
         22    1    1    2    0    0  0.72634292865E+03 -0.11852045397E+04 -0.96956481870E+03  0.16947978607E+04  0.00000000000E+00 0. -1.
<mgrwt>
<rscale>  0 0.27863258E+04</rscale>
<asrwt>0</asrwt>
<pdfrwt beam="1">  1        1 0.39179081E+00 0.27863258E+04</pdfrwt>
<pdfrwt beam="2">  1       -1 0.11725270E+00 0.27863258E+04</pdfrwt>
<totfact> 0.71346247E-01</totfact>
</mgrwt>
</event>
<event>
 6    1  0.1603085E-006  0.1980189E+04  0.7818608E-02  0.8615939E-01
          2   -1    0    0  501    0  0.00000000000E+00  0.00000000000E+00  0.88627086689E+03  0.88627086689E+03  0.00000000000E+00 0. -1.
         -2   -1    0    0    0  501 -0.00000000000E+00 -0.00000000000E+00 -0.11060812256E+04  0.11060812256E+04  0.00000000000E+00 0.  1.
         23    2    1    2    0    0 -0.33745549205E+03  0.84203590855E+03 -0.50396074851E+03  0.10417511645E+04  0.91478807834E+02 0.  0.
         13    1    3    3    0    0 -0.27221090083E+03  0.62057103187E+03 -0.33691958853E+03  0.75678397794E+03  0.00000000000E+00 0. -1.
        -13    1    3    3    0    0 -0.65244591220E+02  0.22146487668E+03 -0.16704115998E+03  0.28496718656E+03  0.00000000000E+00 0.  1.
         22    1    1    2    0    0  0.33745549205E+03 -0.84203590855E+03  0.28415038976E+03  0.95060092804E+03  0.00000000000E+00 0. -1.
<mgrwt>
<rscale>  0 0.19801895E+04</rscale>
<asrwt>0</asrwt>
<pdfrwt beam="1">  1        2 0.13634936E+00 0.19801895E+04</pdfrwt>
<pdfrwt beam="2">  1       -2 0.17016634E+00 0.19801895E+04</pdfrwt>
<totfact> 0.59235587E+00</totfact>
</mgrwt>
</event>
<event>
 6    1  0.1603085E-006  0.2683433E+04  0.7818608E-02  0.8340401E-01
         -1   -1    0    0    0  501 -0.00000000000E+00  0.00000000000E+00  0.87394745424E+03  0.87394745424E+03  0.00000000000E+00 0.  1.
          1   -1    0    0  501    0  0.00000000000E+00 -0.00000000000E+00 -0.20598524093E+04  0.20598524093E+04  0.00000000000E+00 0. -1.
         23    2    1    2    0    0  0.12740110135E+04  0.14894758603E+02 -0.13792093030E+03  0.12840736946E+04  0.80604923336E+02 0.  0.
         11    1    3    3    0    0  0.80192090075E+03 -0.23389446341E+02 -0.10787051762E+03  0.80948146726E+03  0.00000000000E+00 0. -1.
        -11    1    3    3    0    0  0.47209011276E+03  0.38284204944E+02 -0.30050412674E+02  0.47459222730E+03  0.00000000000E+00 0.  1.
         22    1    1    2    0    0 -0.12740110135E+04 -0.14894758603E+02 -0.10479840247E+04  0.16497261689E+04  0.00000000000E+00 0. -1.
<mgrwt>
<rscale>  0 0.26834327E+04</rscale>
<asrwt>0</asrwt>
<pdfrwt beam="1">  1        1 0.31690037E+00 0.26834327E+04</pdfrwt>
<pdfrwt beam="2">  1       -1 0.13445345E+00 0.26834327E+04</pdfrwt>
<totfact> 0.11042837E+00</totfact>
</mgrwt>
</event>
<event>
 6    1  0.1603085E-006  0.2962986E+04  0.7818608E-02  0.8254380E-01
         -1   -1    0    0    0  501 -0.00000000000E+00  0.00000000000E+00  0.78448653458E+03  0.78448653458E+03  0.00000000000E+00 0.  1.
          1   -1    0    0  501    0  0.00000000000E+00 -0.00000000000E+00 -0.27977812816E+04  0.27977812816E+04  0.00000000000E+00 0. -1.
         23    2    1    2    0    0 -0.12517698895E+04 -0.88023698966E+02 -0.61387948773E+02  0.12617902410E+04  0.11691922070E+03 0.  0.
         13    1    3    3    0    0 -0.59098205489E+03 -0.61171902030E+02  0.26001171883E+02  0.59470820723E+03  0.00000000000E+00 0. -1.
        -13    1    3    3    0    0 -0.66078783461E+03 -0.26851796936E+02 -0.87389120656E+02  0.66708203377E+03  0.00000000000E+00 0.  1.
         22    1    1    2    0    0  0.12517698895E+04  0.88023698966E+02 -0.19519067982E+04  0.23204775752E+04  0.00000000000E+00 0. -1.
<mgrwt>
<rscale>  0 0.29629862E+04</rscale>
<asrwt>0</asrwt>
<pdfrwt beam="1">  1        1 0.43042789E+00 0.29629862E+04</pdfrwt>
<pdfrwt beam="2">  1       -1 0.12069024E+00 0.29629862E+04</pdfrwt>
<totfact> 0.43563786E-01</totfact>
</mgrwt>
</event>
<event>
 6    1  0.3055086E-006  0.4079800E+04  0.7818608E-02  0.7988639E-01
         -2   -1    0    0    0  501 -0.00000000000E+00  0.00000000000E+00  0.14682713674E+04  0.14682713674E+04  0.00000000000E+00 0.  1.
          2   -1    0    0  501    0  0.00000000000E+00 -0.00000000000E+00 -0.28340761291E+04  0.28340761291E+04  0.00000000000E+00 0. -1.
         23    2    1    2    0    0  0.47210040392E+02 -0.39215611385E+03 -0.27925938364E+04  0.28218940966E+04  0.92145275205E+02 0.  0.
         11    1    3    3    0    0  0.58865070335E+02 -0.21036839185E+03 -0.17393011539E+04  0.17529656188E+04  0.00000000000E+00 0.  1.
        -11    1    3    3    0    0 -0.11655029943E+02 -0.18178772200E+03 -0.10532926825E+04  0.10689284777E+04  0.00000000000E+00 0. -1.
         22    1    1    2    0    0 -0.47210040392E+02  0.39215611385E+03  0.14267890748E+04  0.14804533999E+04  0.00000000000E+00 0.  1.
<mgrwt>
<rscale>  0 0.40798004E+04</rscale>
<asrwt>0</asrwt>
<pdfrwt beam="1">  1        2 0.43601171E+00 0.40798004E+04</pdfrwt>
<pdfrwt beam="2">  1       -2 0.22588791E+00 0.40798004E+04</pdfrwt>
<totfact> 0.15674839E-01</totfact>
</mgrwt>
</event>
<event>
 6    1  0.1603085E-006  0.2405162E+04  0.7818608E-02  0.8437573E-01
          2   -1    0    0  501    0  0.00000000000E+00  0.00000000000E+00  0.14366955954E+04  0.14366955954E+04  0.00000000000E+00 0. -1.
         -2   -1    0    0    0  501 -0.00000000000E+00 -0.00000000000E+00 -0.10066163859E+04  0.10066163859E+04  0.00000000000E+00 0.  1.
         23    2    1    2    0    0 -0.10842254798E+04 -0.49703350310E+03  0.73524725859E+02  0.11984351625E+04  0.90850200702E+02 0.  0.
         11    1    3    3    0    0 -0.65314405960E+03 -0.34706580447E+03  0.37028414369E+02  0.74055583091E+03  0.00000000000E+00 0. -1.
        -11    1    3    3    0    0 -0.43108142023E+03 -0.14996769863E+03  0.36496311490E+02  0.45787933154E+03  0.00000000000E+00 0.  1.
         22    1    1    2    0    0  0.10842254798E+04  0.49703350310E+03  0.35655448366E+03  0.12448768189E+04  0.00000000000E+00 0. -1.
<mgrwt>
<rscale>  0 0.24051622E+04</rscale>
<asrwt>0</asrwt>
<pdfrwt beam="1">  1        2 0.22103009E+00 0.24051622E+04</pdfrwt>
<pdfrwt beam="2">  1       -2 0.15486406E+00 0.24051622E+04</pdfrwt>
<totfact> 0.34109592E+00</totfact>
</mgrwt>
</event>
<event>
 6    1  0.1603085E-006  0.2712661E+04  0.7818608E-02  0.8330909E-01
          2   -1    0    0  501    0  0.00000000000E+00  0.00000000000E+00  0.13828273943E+04  0.13828273943E+04  0.00000000000E+00 0. -1.
         -2   -1    0    0    0  501 -0.00000000000E+00 -0.00000000000E+00 -0.13303411587E+04  0.13303411587E+04  0.00000000000E+00 0.  1.
         23    2    1    2    0    0 -0.77235070913E+03 -0.53686113281E+03 -0.94895811617E+03  0.13392557889E+04  0.91318498048E+02 0.  0.
         11    1    3    3    0    0 -0.19814521677E+03 -0.18809539116E+03 -0.27476841984E+03  0.38747785439E+03  0.00000000000E+00 0. -1.
        -11    1    3    3    0    0 -0.57420549237E+03 -0.34876574164E+03 -0.67418969634E+03  0.95177793453E+03  0.00000000000E+00 0.  1.
         22    1    1    2    0    0  0.77235070913E+03  0.53686113281E+03  0.10014443517E+04  0.13739127641E+04  0.00000000000E+00 0. -1.
<mgrwt>
<rscale>  0 0.27126608E+04</rscale>
<asrwt>0</asrwt>
<pdfrwt beam="1">  1        2 0.21274268E+00 0.27126608E+04</pdfrwt>
<pdfrwt beam="2">  1       -2 0.20466787E+00 0.27126608E+04</pdfrwt>
<totfact> 0.16084400E+00</totfact>
</mgrwt>
</event>
<event>
 6    1  0.1603085E-006  0.8728817E+03  0.7818608E-02  0.9460130E-01
         -2   -1    0    0    0  501 -0.00000000000E+00  0.00000000000E+00  0.85564579036E+02  0.85564579036E+02  0.00000000000E+00 0. -1.
          2   -1    0    0  501    0  0.00000000000E+00 -0.00000000000E+00 -0.22261621694E+04  0.22261621694E+04  0.00000000000E+00 0.  1.
         23    2    1    2    0    0  0.27610944593E+03  0.24731756092E+03 -0.49417203140E+03  0.62408948786E+03  0.88765365855E+02 0.  0.
         13    1    3    3    0    0  0.51585123582E+02  0.11737543900E+02 -0.98200408105E+02  0.11154422918E+03  0.00000000000E+00 0.  1.
        -13    1    3    3    0    0  0.22452432234E+03  0.23558001701E+03 -0.39597162330E+03  0.51254525868E+03  0.00000000000E+00 0. -1.
         22    1    1    2    0    0 -0.27610944593E+03 -0.24731756092E+03 -0.16464255590E+04  0.16876372606E+04  0.00000000000E+00 0.  1.
<mgrwt>
<rscale>  0 0.87288173E+03</rscale>
<asrwt>0</asrwt>
<pdfrwt beam="1">  1        2 0.34248648E+00 0.87288173E+03</pdfrwt>
<pdfrwt beam="2">  1       -2 0.13163782E-01 0.87288173E+03</pdfrwt>
<totfact> 0.22192481E+02</totfact>
</mgrwt>
</event>
<event>
 6    1  0.1603085E-006  0.2962671E+04  0.7818608E-02  0.8254471E-01
         -2   -1    0    0    0  501 -0.00000000000E+00  0.00000000000E+00  0.78242446517E+03  0.78242446517E+03  0.00000000000E+00 0.  1.
          2   -1    0    0  501    0  0.00000000000E+00 -0.00000000000E+00 -0.28045577202E+04  0.28045577202E+04  0.00000000000E+00 0. -1.
         23    2    1    2    0    0  0.13465154269E+04 -0.58778530272E+03 -0.12282543637E+04  0.19170004336E+04  0.87672819762E+02 0.  0.
         11    1    3    3    0    0  0.79812944304E+03 -0.32146453296E+03 -0.67248575704E+03  0.10920563846E+04  0.00000000000E+00 0. -1.
        -11    1    3    3    0    0  0.54838598390E+03 -0.26632076977E+03 -0.55576860670E+03  0.82494404898E+03  0.00000000000E+00 0.  1.
         22    1    1    2    0    0 -0.13465154269E+04  0.58778530272E+03 -0.79387889128E+03  0.16699817517E+04  0.00000000000E+00 0.  1.
<mgrwt>
<rscale>  0 0.29626708E+04</rscale>
<asrwt>0</asrwt>
<pdfrwt beam="1">  1        2 0.43147042E+00 0.29626708E+04</pdfrwt>
<pdfrwt beam="2">  1       -2 0.12037299E+00 0.29626708E+04</pdfrwt>
<totfact> 0.10391240E+00</totfact>
</mgrwt>
</event>
<event>
 6    1  0.1603085E-006  0.8946274E+03  0.7818608E-02  0.9432323E-01
          2   -1    0    0  501    0  0.00000000000E+00  0.00000000000E+00  0.94801609898E+03  0.94801609898E+03  0.00000000000E+00 0. -1.
         -2   -1    0    0    0  501 -0.00000000000E+00 -0.00000000000E+00 -0.21106132026E+03  0.21106132026E+03  0.00000000000E+00 0.  1.
         23    2    1    2    0    0  0.23534889085E+03  0.21095505792E+03 -0.29562924831E+02  0.32995708614E+03  0.90036521958E+02 0.  0.
         13    1    3    3    0    0  0.75790807576E+02  0.85574376804E+02  0.30532500719E+02  0.11831928870E+03  0.00000000000E+00 0.  1.
        -13    1    3    3    0    0  0.15955808327E+03  0.12538068112E+03 -0.60095425551E+02  0.21163779744E+03  0.00000000000E+00 0. -1.
         22    1    1    2    0    0 -0.23534889085E+03 -0.21095505792E+03  0.76651770355E+03  0.82912033309E+03  0.00000000000E+00 0. -1.
<mgrwt>
<rscale>  0 0.89462736E+03</rscale>
<asrwt>0</asrwt>
<pdfrwt beam="1">  1        2 0.14584863E+00 0.89462736E+03</pdfrwt>
<pdfrwt beam="2">  1       -2 0.32470973E-01 0.89462736E+03</pdfrwt>
<totfact> 0.24101008E+02</totfact>
</mgrwt>
</event>
<event>
 6    1  0.1603085E-006  0.7952183E+03  0.7818608E-02  0.9566964E-01
         -1   -1    0    0    0  501 -0.00000000000E+00  0.00000000000E+00  0.10010325227E+03  0.10010325227E+03  0.00000000000E+00 0.  1.
          1   -1    0    0  501    0  0.00000000000E+00 -0.00000000000E+00 -0.15792998933E+04  0.15792998933E+04  0.00000000000E+00 0. -1.
         23    2    1    2    0    0  0.37506019859E+03  0.85949328724E+02 -0.59113524260E+03  0.71156509761E+03  0.93949845251E+02 0.  0.
         11    1    3    3    0    0  0.16030574192E+03  0.80142422516E+02 -0.30496234669E+03  0.35372697336E+03  0.00000000000E+00 0.  1.
        -11    1    3    3    0    0  0.21475445668E+03  0.58069062083E+01 -0.28617289590E+03  0.35783812426E+03  0.00000000000E+00 0. -1.
         22    1    1    2    0    0 -0.37506019859E+03 -0.85949328724E+02 -0.88806139846E+03  0.96783804798E+03  0.00000000000E+00 0.  1.
<mgrwt>
<rscale>  0 0.79521835E+03</rscale>
<asrwt>0</asrwt>
<pdfrwt beam="1">  1        1 0.24296922E+00 0.79521835E+03</pdfrwt>
<pdfrwt beam="2">  1       -1 0.15400500E-01 0.79521835E+03</pdfrwt>
<totfact> 0.18476559E+02</totfact>
</mgrwt>
</event>
<event>
 6    1  0.1603085E-006  0.3357927E+04  0.7818608E-02  0.8148310E-01
         -1   -1    0    0    0  501 -0.00000000000E+00  0.00000000000E+00  0.38710371315E+04  0.38710371315E+04  0.00000000000E+00 0.  1.
          1   -1    0    0  501    0  0.00000000000E+00 -0.00000000000E+00 -0.72820774096E+03  0.72820774096E+03  0.00000000000E+00 0. -1.
         23    2    1    2    0    0 -0.13914858371E+04  0.92652310790E+03  0.17700012324E+04  0.24360677978E+04  0.82728765283E+02 0.  0.
         13    1    3    3    0    0 -0.77365510493E+03  0.49588007095E+03  0.91741398128E+03  0.12984943894E+04  0.00000000000E+00 0. -1.
        -13    1    3    3    0    0 -0.61783073217E+03  0.43064303696E+03  0.85258725113E+03  0.11375734085E+04  0.00000000000E+00 0.  1.
         22    1    1    2    0    0  0.13914858371E+04 -0.92652310790E+03  0.13728281581E+04  0.21631770746E+04  0.00000000000E+00 0. -1.
<mgrwt>
<rscale>  0 0.33579275E+04</rscale>
<asrwt>0</asrwt>
<pdfrwt beam="1">  1        1 0.11203196E+00 0.33579275E+04</pdfrwt>
<pdfrwt beam="2">  1       -1 0.59554416E+00 0.33579275E+04</pdfrwt>
<totfact> 0.96580561E-03</totfact>
</mgrwt>
</event>
<event>
 6    1  0.1603085E-006  0.9154041E+03  0.7818608E-02  0.9406528E-01
         -2   -1    0    0    0  501 -0.00000000000E+00  0.00000000000E+00  0.66478333361E+02  0.66478333361E+02  0.00000000000E+00 0.  1.
          2   -1    0    0  501    0  0.00000000000E+00 -0.00000000000E+00 -0.31512700187E+04  0.31512700187E+04  0.00000000000E+00 0. -1.
         23    2    1    2    0    0 -0.23855445329E+03  0.34900397114E+03 -0.96721513071E+03  0.10583867650E+04  0.77236236018E+02 0.  0.
         11    1    3    3    0    0 -0.87254577468E+01  0.58013160222E+02 -0.11968112787E+03  0.13328628114E+03  0.00000000000E+00 0. -1.
        -11    1    3    3    0    0 -0.22982899554E+03  0.29099081092E+03 -0.84753400284E+03  0.92510048384E+03  0.00000000000E+00 0.  1.
         22    1    1    2    0    0  0.23855445329E+03 -0.34900397114E+03 -0.21175765547E+04  0.21593615871E+04  0.00000000000E+00 0.  1.
<mgrwt>
<rscale>  0 0.91540413E+03</rscale>
<asrwt>0</asrwt>
<pdfrwt beam="1">  1        2 0.48481069E+00 0.91540413E+03</pdfrwt>
<pdfrwt beam="2">  1       -2 0.10227438E-01 0.91540413E+03</pdfrwt>
<totfact> 0.96015584E+01</totfact>
</mgrwt>
</event>
<event>
 6    1  0.1603085E-006  0.4324992E+04  0.7818608E-02  0.7942013E-01
         -2   -1    0    0    0  501 -0.00000000000E+00  0.00000000000E+00  0.38587121302E+04  0.38587121302E+04  0.00000000000E+00 0.  1.
          2   -1    0    0  501    0  0.00000000000E+00 -0.00000000000E+00 -0.12119041065E+04  0.12119041065E+04  0.00000000000E+00 0. -1.
         23    2    1    2    0    0  0.40019561193E+03  0.10755274519E+04  0.34715542715E+04  0.36574204962E+04  0.90109923385E+02 0.  0.
         13    1    3    3    0    0  0.50712798476E+02  0.16469544911E+03  0.62545538187E+03  0.64876098341E+03  0.00000000000E+00 0. -1.
        -13    1    3    3    0    0  0.34948281345E+03  0.91083200280E+03  0.28460988896E+04  0.30086595128E+04  0.00000000000E+00 0.  1.
         22    1    1    2    0    0 -0.40019561193E+03 -0.10755274519E+04 -0.82474624780E+03  0.14131957405E+04  0.00000000000E+00 0. -1.
<mgrwt>
<rscale>  0 0.43249921E+04</rscale>
<asrwt>0</asrwt>
<pdfrwt beam="1">  1        2 0.18644679E+00 0.43249921E+04</pdfrwt>
<pdfrwt beam="2">  1       -2 0.59364801E+00 0.43249921E+04</pdfrwt>
<totfact> 0.77289230E-03</totfact>
</mgrwt>
</event>
<event>
 6    1  0.1603085E-006  0.4201093E+04  0.7818608E-02  0.7965164E-01
         -1   -1    0    0    0  501 -0.00000000000E+00  0.00000000000E+00  0.26450715318E+04  0.26450715318E+04  0.00000000000E+00 0. -1.
          1   -1    0    0  501    0  0.00000000000E+00 -0.00000000000E+00 -0.16681195782E+04  0.16681195782E+04  0.00000000000E+00 0.  1.
         23    2    1    2    0    0  0.31018491829E+03 -0.20762176244E+04  0.45475426849E+03  0.21499563262E+04  0.92824846769E+02 0.  0.
         11    1    3    3    0    0  0.45810620432E+02 -0.46649044087E+03  0.13296512324E+03  0.48722855865E+03  0.00000000000E+00 0.  1.
        -11    1    3    3    0    0  0.26437429786E+03 -0.16097271836E+04  0.32178914525E+03  0.16627277675E+04  0.00000000000E+00 0. -1.
         22    1    1    2    0    0 -0.31018491829E+03  0.20762176244E+04  0.52219768517E+03  0.21632347838E+04  0.00000000000E+00 0. -1.
<mgrwt>
<rscale>  0 0.42010930E+04</rscale>
<asrwt>0</asrwt>
<pdfrwt beam="1">  1        1 0.25663378E+00 0.42010930E+04</pdfrwt>
<pdfrwt beam="2">  1       -1 0.40693408E+00 0.42010930E+04</pdfrwt>
<totfact> 0.24729508E-02</totfact>
</mgrwt>
</event>
<event>
 6    1  0.1603085E-006  0.1161142E+04  0.7818608E-02  0.9147566E-01
          1   -1    0    0  501    0  0.00000000000E+00  0.00000000000E+00  0.21778212850E+04  0.21778212850E+04  0.00000000000E+00 0. -1.
         -1   -1    0    0    0  501 -0.00000000000E+00 -0.00000000000E+00 -0.15477046651E+03  0.15477046651E+03  0.00000000000E+00 0.  1.
         23    2    1    2    0    0 -0.38056790675E+03 -0.25820992891E+03  0.31673132774E+03  0.56538194406E+03  0.88508246302E+02 0.  0.
         13    1    3    3    0    0 -0.35792671336E+03 -0.21015005045E+03  0.28524719311E+03  0.50362737914E+03  0.00000000000E+00 0. -1.
        -13    1    3    3    0    0 -0.22641193395E+02 -0.48059878460E+02  0.31484134630E+02  0.61754564927E+02  0.00000000000E+00 0.  1.
         22    1    1    2    0    0  0.38056790675E+03  0.25820992891E+03  0.17063194907E+04  0.17672098074E+04  0.00000000000E+00 0. -1.
<mgrwt>
<rscale>  0 0.11611415E+04</rscale>
<asrwt>0</asrwt>
<pdfrwt beam="1">  1        1 0.33504941E+00 0.11611415E+04</pdfrwt>
<pdfrwt beam="2">  1       -1 0.23810843E-01 0.11611415E+04</pdfrwt>
<totfact> 0.34215130E+01</totfact>
</mgrwt>
</event>
<event>
 6    1  0.1603085E-006  0.4398897E+04  0.7818608E-02  0.7928580E-01
          2   -1    0    0  501    0  0.00000000000E+00  0.00000000000E+00  0.21940113604E+04  0.21940113604E+04  0.00000000000E+00 0. -1.
         -2   -1    0    0    0  501 -0.00000000000E+00 -0.00000000000E+00 -0.22048994362E+04  0.22048994362E+04  0.00000000000E+00 0.  1.
         23    2    1    2    0    0 -0.19501921509E+04  0.21682958769E+02  0.10092382164E+04  0.21979161968E+04  0.92489214756E+02 0.  0.
         13    1    3    3    0    0 -0.52466861012E+03 -0.35022831460E+02  0.27591519178E+03  0.59382905135E+03  0.00000000000E+00 0. -1.
        -13    1    3    3    0    0 -0.14255235408E+04  0.56705790229E+02  0.73332302463E+03  0.16040871455E+04  0.00000000000E+00 0.  1.
         22    1    1    2    0    0  0.19501921509E+04 -0.21682958769E+02 -0.10201262922E+04  0.22009945997E+04  0.00000000000E+00 0.  1.
<mgrwt>
<rscale>  0 0.43988973E+04</rscale>
<asrwt>0</asrwt>
<pdfrwt beam="1">  1        2 0.33754021E+00 0.43988973E+04</pdfrwt>
<pdfrwt beam="2">  1       -2 0.33921530E+00 0.43988973E+04</pdfrwt>
<totfact> 0.72292911E-02</totfact>
</mgrwt>
</event>
<event>
 6    1  0.1603085E-006  0.2281570E+04  0.7818608E-02  0.8485223E-01
          1   -1    0    0  501    0  0.00000000000E+00  0.00000000000E+00  0.15828221386E+04  0.15828221386E+04  0.00000000000E+00 0. -1.
         -1   -1    0    0    0  501 -0.00000000000E+00 -0.00000000000E+00 -0.82219617981E+03  0.82219617981E+03  0.00000000000E+00 0.  1.
         23    2    1    2    0    0 -0.84117373569E+03 -0.74696393080E+03  0.56833357147E+03  0.12637450252E+04  0.92304240007E+02 0.  0.
         11    1    3    3    0    0 -0.41456472227E+03 -0.42029316332E+03  0.26998445311E+03  0.64915472502E+03  0.00000000000E+00 0. -1.
        -11    1    3    3    0    0 -0.42660901341E+03 -0.32667076748E+03  0.29834911836E+03  0.61459030018E+03  0.00000000000E+00 0.  1.
         22    1    1    2    0    0  0.84117373569E+03  0.74696393080E+03  0.19229238728E+03  0.11412732932E+04  0.00000000000E+00 0. -1.
<mgrwt>
<rscale>  0 0.22815699E+04</rscale>
<asrwt>0</asrwt>
<pdfrwt beam="1">  1        1 0.24351110E+00 0.22815699E+04</pdfrwt>
<pdfrwt beam="2">  1       -1 0.12649172E+00 0.22815699E+04</pdfrwt>
<totfact> 0.28202245E+00</totfact>
</mgrwt>
</event>
<event>
 6    1  0.1603085E-006  0.1116629E+04  0.7818608E-02  0.9189134E-01
         -1   -1    0    0    0  501 -0.00000000000E+00  0.00000000000E+00  0.12244245220E+03  0.12244245220E+03  0.00000000000E+00 0.  1.
          1   -1    0    0  501    0  0.00000000000E+00 -0.00000000000E+00 -0.25458074654E+04  0.25458074654E+04  0.00000000000E+00 0. -1.
         23    2    1    2    0    0 -0.53536868280E+03 -0.96579586656E+02 -0.14771549613E+04  0.15768010157E+04  0.91473605096E+02 0.  0.
         11    1    3    3    0    0 -0.28735063667E+03 -0.17356601630E+02 -0.68777575925E+03  0.74559180187E+03  0.00000000000E+00 0.  1.
        -11    1    3    3    0    0 -0.24801804613E+03 -0.79222985026E+02 -0.78937920206E+03  0.83120921386E+03  0.00000000000E+00 0. -1.
         22    1    1    2    0    0  0.53536868280E+03  0.96579586656E+02 -0.94621005186E+03  0.10914489018E+04  0.00000000000E+00 0. -1.
<mgrwt>
<rscale>  0 0.11166287E+04</rscale>
<asrwt>0</asrwt>
<pdfrwt beam="1">  1        1 0.39166267E+00 0.11166287E+04</pdfrwt>
<pdfrwt beam="2">  1       -1 0.18837301E-01 0.11166287E+04</pdfrwt>
<totfact> 0.28587912E+01</totfact>
</mgrwt>
</event>
<event>
 6    1  0.1603085E-006  0.5927501E+03  0.7818608E-02  0.9920562E-01
         -1   -1    0    0    0  501 -0.00000000000E+00  0.00000000000E+00  0.42972026004E+03  0.42972026004E+03  0.00000000000E+00 0.  1.
          1   -1    0    0  501    0  0.00000000000E+00 -0.00000000000E+00 -0.20440780106E+03  0.20440780106E+03  0.00000000000E+00 0. -1.
         23    2    1    2    0    0 -0.19099722547E+03 -0.15576059720E+03 -0.46866861133E+02  0.26694570031E+03  0.91226095322E+02 0.  0.
         13    1    3    3    0    0 -0.10865185437E+03 -0.32292314286E+02 -0.32084353845E+02  0.11780248207E+03  0.00000000000E+00 0.  1.
        -13    1    3    3    0    0 -0.82345371096E+02 -0.12346828291E+03 -0.14782507288E+02  0.14914321824E+03  0.00000000000E+00 0. -1.
         22    1    1    2    0    0  0.19099722547E+03  0.15576059720E+03  0.27217932011E+03  0.36718236079E+03  0.00000000000E+00 0.  1.
<mgrwt>
<rscale>  0 0.59275011E+03</rscale>
<asrwt>0</asrwt>
<pdfrwt beam="1">  1        1 0.31447354E-01 0.59275011E+03</pdfrwt>
<pdfrwt beam="2">  1       -1 0.66110809E-01 0.59275011E+03</pdfrwt>
<totfact> 0.34006368E+02</totfact>
</mgrwt>
</event>
<event>
 6    1  0.1603085E-006  0.3056826E+04  0.7818608E-02  0.8227687E-01
          2   -1    0    0  501    0  0.00000000000E+00  0.00000000000E+00  0.18502574050E+04  0.18502574050E+04  0.00000000000E+00 0. -1.
         -2   -1    0    0    0  501 -0.00000000000E+00 -0.00000000000E+00 -0.12625521850E+04  0.12625521850E+04  0.00000000000E+00 0.  1.
         23    2    1    2    0    0  0.68262288319E+03  0.13493749731E+04  0.78221275020E+02  0.15170775608E+04  0.92838241334E+02 0.  0.
         13    1    3    3    0    0  0.47870930221E+03  0.10344318444E+04  0.63408998107E+02  0.11415921066E+04  0.00000000000E+00 0.  1.
        -13    1    3    3    0    0  0.20391358097E+03  0.31494312867E+03  0.14812276913E+02  0.37548545425E+03  0.00000000000E+00 0. -1.
         22    1    1    2    0    0 -0.68262288319E+03 -0.13493749731E+04  0.50948394496E+03  0.15957320292E+04  0.00000000000E+00 0.  1.
<mgrwt>
<rscale>  0 0.30568262E+04</rscale>
<asrwt>0</asrwt>
<pdfrwt beam="1">  1        2 0.28465499E+00 0.30568262E+04</pdfrwt>
<pdfrwt beam="2">  1       -2 0.19423880E+00 0.30568262E+04</pdfrwt>
<totfact> 0.10012217E+00</totfact>
</mgrwt>
</event>
<event>
 6    1  0.1603085E-006  0.3514114E+04  0.7818608E-02  0.8110453E-01
         -2   -1    0    0    0  501 -0.00000000000E+00  0.00000000000E+00  0.85518846464E+03  0.85518846464E+03  0.00000000000E+00 0.  1.
          2   -1    0    0  501    0  0.00000000000E+00 -0.00000000000E+00 -0.36100231354E+04  0.36100231354E+04  0.00000000000E+00 0. -1.
         23    2    1    2    0    0  0.90686318884E+03 -0.30113050490E+03  0.49341083934E+03  0.10793321990E+04  0.91778620817E+02 0.  0.
         13    1    3    3    0    0  0.26691303434E+03 -0.11910652486E+03  0.18571785277E+03  0.34629474874E+03  0.00000000000E+00 0.  1.
        -13    1    3    3    0    0  0.63995015450E+03 -0.18202398004E+03  0.30769298657E+03  0.73303745029E+03  0.00000000000E+00 0. -1.
         22    1    1    2    0    0 -0.90686318884E+03  0.30113050490E+03 -0.32482455101E+04  0.33858794010E+04  0.00000000000E+00 0. -1.
<mgrwt>
<rscale>  0 0.35141145E+04</rscale>
<asrwt>0</asrwt>
<pdfrwt beam="1">  1        2 0.55538818E+00 0.35141145E+04</pdfrwt>
<pdfrwt beam="2">  1       -2 0.13156746E+00 0.35141145E+04</pdfrwt>
<totfact> 0.23435718E-01</totfact>
</mgrwt>
</event>
<event>
 6    1  0.1603085E-006  0.2101056E+04  0.7818608E-02  0.8560778E-01
          2   -1    0    0  501    0  0.00000000000E+00  0.00000000000E+00  0.24441787422E+04  0.24441787422E+04  0.00000000000E+00 0. -1.
         -2   -1    0    0    0  501 -0.00000000000E+00 -0.00000000000E+00 -0.45152556573E+03  0.45152556573E+03  0.00000000000E+00 0.  1.
         23    2    1    2    0    0  0.34892075382E+03 -0.86913188362E+03  0.16479698459E+04  0.18977351090E+04  0.91967425644E+02 0.  0.
         13    1    3    3    0    0  0.19282458284E+03 -0.36340310702E+03  0.69345659732E+03  0.80630341082E+03  0.00000000000E+00 0. -1.
        -13    1    3    3    0    0  0.15609617097E+03 -0.50572877660E+03  0.95451324863E+03  0.10914316982E+04  0.00000000000E+00 0.  1.
         22    1    1    2    0    0 -0.34892075382E+03  0.86913188362E+03  0.34468333051E+03  0.99796919887E+03  0.00000000000E+00 0.  1.
<mgrwt>
<rscale>  0 0.21010561E+04</rscale>
<asrwt>0</asrwt>
<pdfrwt beam="1">  1        2 0.37602749E+00 0.21010561E+04</pdfrwt>
<pdfrwt beam="2">  1       -2 0.69465473E-01 0.21010561E+04</pdfrwt>
<totfact> 0.65327892E+00</totfact>
</mgrwt>
</event>
<event>
 6    1  0.1603085E-006  0.2542749E+04  0.7818608E-02  0.8387912E-01
         -1   -1    0    0    0  501 -0.00000000000E+00  0.00000000000E+00  0.10784743627E+04  0.10784743627E+04  0.00000000000E+00 0.  1.
          1   -1    0    0  501    0  0.00000000000E+00 -0.00000000000E+00 -0.14987774444E+04  0.14987774444E+04  0.00000000000E+00 0. -1.
         23    2    1    2    0    0 -0.69609980019E+03 -0.92392835027E+03  0.32029850708E+03  0.12036837377E+04  0.89804668183E+02 0.  0.
         11    1    3    3    0    0 -0.41925802984E+03 -0.51204729456E+03  0.14612315427E+03  0.67773276715E+03  0.00000000000E+00 0. -1.
        -11    1    3    3    0    0 -0.27684177035E+03 -0.41188105572E+03  0.17417535280E+03  0.52595097052E+03  0.00000000000E+00 0.  1.
         22    1    1    2    0    0  0.69609980019E+03  0.92392835027E+03 -0.74060158878E+03  0.13735680695E+04  0.00000000000E+00 0. -1.
<mgrwt>
<rscale>  0 0.25427489E+04</rscale>
<asrwt>0</asrwt>
<pdfrwt beam="1">  1        1 0.23058114E+00 0.25427489E+04</pdfrwt>
<pdfrwt beam="2">  1       -1 0.16591913E+00 0.25427489E+04</pdfrwt>
<totfact> 0.15304522E+00</totfact>
</mgrwt>
</event>
<event>
 6    1  0.1603085E-006  0.1500368E+04  0.7818608E-02  0.8884208E-01
         -2   -1    0    0    0  501 -0.00000000000E+00  0.00000000000E+00  0.21125971064E+03  0.21125971064E+03  0.00000000000E+00 0.  1.
          2   -1    0    0  501    0  0.00000000000E+00 -0.00000000000E+00 -0.26639076904E+04  0.26639076904E+04  0.00000000000E+00 0. -1.
         23    2    1    2    0    0 -0.13968572947E+03  0.72974271481E+03 -0.13869511168E+04  0.15760344838E+04  0.90635318803E+02 0.  0.
         13    1    3    3    0    0 -0.11320730095E+03  0.60462694863E+03 -0.12138429824E+04  0.13608102094E+04  0.00000000000E+00 0. -1.
        -13    1    3    3    0    0 -0.26478428517E+02  0.12511576618E+03 -0.17310813436E+03  0.21522427443E+03  0.00000000000E+00 0.  1.
         22    1    1    2    0    0  0.13968572947E+03 -0.72974271481E+03 -0.10656968630E+04  0.12991329172E+04  0.00000000000E+00 0.  1.
<mgrwt>
<rscale>  0 0.15003684E+04</rscale>
<asrwt>0</asrwt>
<pdfrwt beam="1">  1        2 0.40983195E+00 0.15003684E+04</pdfrwt>
<pdfrwt beam="2">  1       -2 0.32501494E-01 0.15003684E+04</pdfrwt>
<totfact> 0.23874377E+01</totfact>
</mgrwt>
</event>
<event>
 6    1  0.1603085E-006  0.1518290E+04  0.7818608E-02  0.8872381E-01
         -1   -1    0    0    0  501 -0.00000000000E+00  0.00000000000E+00  0.40048680784E+03  0.40048680784E+03  0.00000000000E+00 0.  1.
          1   -1    0    0  501    0  0.00000000000E+00 -0.00000000000E+00 -0.14390016300E+04  0.14390016300E+04  0.00000000000E+00 0. -1.
         23    2    1    2    0    0  0.48611062469E+03 -0.42023499151E+03 -0.10046333820E+04  0.11960220910E+04  0.90992430277E+02 0.  0.
         13    1    3    3    0    0  0.25878057033E+03 -0.26358205038E+03 -0.51254939060E+03  0.63178299966E+03  0.00000000000E+00 0. -1.
        -13    1    3    3    0    0  0.22733005437E+03 -0.15665294113E+03 -0.49208399138E+03  0.56423909130E+03  0.00000000000E+00 0.  1.
         22    1    1    2    0    0 -0.48611062469E+03  0.42023499151E+03 -0.33881440159E+02  0.64346634684E+03  0.00000000000E+00 0. -1.
<mgrwt>
<rscale>  0 0.15182901E+04</rscale>
<asrwt>0</asrwt>
<pdfrwt beam="1">  1        1 0.22138486E+00 0.15182901E+04</pdfrwt>
<pdfrwt beam="2">  1       -1 0.61613356E-01 0.15182901E+04</pdfrwt>
<totfact> 0.18616104E+01</totfact>
</mgrwt>
</event>
<event>
 6    1  0.1603085E-006  0.8336153E+03  0.7818608E-02  0.9512596E-01
          1   -1    0    0  501    0  0.00000000000E+00  0.00000000000E+00  0.29029291313E+03  0.29029291313E+03  0.00000000000E+00 0. -1.
         -1   -1    0    0    0  501 -0.00000000000E+00 -0.00000000000E+00 -0.59845966847E+03  0.59845966847E+03  0.00000000000E+00 0.  1.
         23    2    1    2    0    0  0.16089724946E+01 -0.22070728201E+03 -0.52684775328E+03  0.57805067948E+03  0.88655173481E+02 0.  0.
         13    1    3    3    0    0 -0.42387957759E+02 -0.94243134658E+02 -0.25029977437E+03  0.27079232715E+03  0.00000000000E+00 0.  1.
        -13    1    3    3    0    0  0.43996930253E+02 -0.12646414735E+03 -0.27654797891E+03  0.30725835233E+03  0.00000000000E+00 0. -1.
         22    1    1    2    0    0 -0.16089724946E+01  0.22070728201E+03  0.21868099794E+03  0.31070190212E+03  0.00000000000E+00 0. -1.
<mgrwt>
<rscale>  0 0.83361526E+03</rscale>
<asrwt>0</asrwt>
<pdfrwt beam="1">  1        1 0.44660449E-01 0.83361526E+03</pdfrwt>
<pdfrwt beam="2">  1       -1 0.92070717E-01 0.83361526E+03</pdfrwt>
<totfact> 0.10631321E+02</totfact>
</mgrwt>
</event>
<event>
 6    1  0.1603085E-006  0.2744012E+04  0.7818608E-02  0.8320864E-01
         -1   -1    0    0    0  501 -0.00000000000E+00  0.00000000000E+00  0.81193008010E+03  0.81193008010E+03  0.00000000000E+00 0.  1.
          1   -1    0    0  501    0  0.00000000000E+00 -0.00000000000E+00 -0.23184271118E+04  0.23184271118E+04  0.00000000000E+00 0. -1.
         23    2    1    2    0    0 -0.13230808029E+04 -0.12319755297E+03 -0.11369240888E+04  0.17511166008E+04  0.89958423148E+02 0.  0.
         13    1    3    3    0    0 -0.21652676119E+03  0.12840612777E+02 -0.17939473333E+03  0.28148035455E+03  0.00000000000E+00 0. -1.
        -13    1    3    3    0    0 -0.11065540417E+04 -0.13603816575E+03 -0.95752935546E+03  0.14696362463E+04  0.00000000000E+00 0.  1.
         22    1    1    2    0    0  0.13230808029E+04  0.12319755297E+03 -0.36957294290E+03  0.13792405911E+04  0.00000000000E+00 0.  1.
<mgrwt>
<rscale>  0 0.27440122E+04</rscale>
<asrwt>0</asrwt>
<pdfrwt beam="1">  1        1 0.35668109E+00 0.27440122E+04</pdfrwt>
<pdfrwt beam="2">  1       -1 0.12491232E+00 0.27440122E+04</pdfrwt>
<totfact> 0.88129182E-01</totfact>
</mgrwt>
</event>
<event>
 6    1  0.1603085E-006  0.1454919E+04  0.7818608E-02  0.8914997E-01
         -2   -1    0    0    0  501 -0.00000000000E+00  0.00000000000E+00  0.10601848752E+04  0.10601848752E+04  0.00000000000E+00 0.  1.
          2   -1    0    0  501    0  0.00000000000E+00 -0.00000000000E+00 -0.49915598568E+03  0.49915598568E+03  0.00000000000E+00 0. -1.
         23    2    1    2    0    0 -0.21596583276E+03 -0.33018859129E+03 -0.36990888993E+03  0.54824695033E+03  0.89868709542E+02 0.  0.
         13    1    3    3    0    0 -0.12944510359E+03 -0.23022642082E+03 -0.29630109599E+03  0.39693145400E+03  0.00000000000E+00 0.  1.
        -13    1    3    3    0    0 -0.86520729161E+02 -0.99962170475E+02 -0.73607793940E+02  0.15131549633E+03  0.00000000000E+00 0. -1.
         22    1    1    2    0    0  0.21596583276E+03  0.33018859129E+03  0.93093777946E+03  0.10110939106E+04  0.00000000000E+00 0.  1.
<mgrwt>
<rscale>  0 0.14549194E+04</rscale>
<asrwt>0</asrwt>
<pdfrwt beam="1">  1        2 0.76793229E-01 0.14549194E+04</pdfrwt>
<pdfrwt beam="2">  1       -2 0.16310537E+00 0.14549194E+04</pdfrwt>
<totfact> 0.14280416E+01</totfact>
</mgrwt>
</event>
<event>
 6    1  0.1603085E-006  0.3815037E+04  0.7818608E-02  0.8042936E-01
         -2   -1    0    0    0  501 -0.00000000000E+00  0.00000000000E+00  0.12681187501E+04  0.12681187501E+04  0.00000000000E+00 0. -1.
          2   -1    0    0  501    0  0.00000000000E+00 -0.00000000000E+00 -0.28693111969E+04  0.28693111969E+04  0.00000000000E+00 0.  1.
         23    2    1    2    0    0 -0.17117527106E+02 -0.16324388627E+04  0.26686785763E+03  0.16565432201E+04  0.88132493962E+02 0.  0.
         13    1    3    3    0    0  0.21568481265E+02 -0.73151659375E+03  0.86495337108E+02  0.73692819844E+03  0.00000000000E+00 0.  1.
        -13    1    3    3    0    0 -0.38686008371E+02 -0.90092226898E+03  0.18037252052E+03  0.91961502171E+03  0.00000000000E+00 0. -1.
         22    1    1    2    0    0  0.17117527106E+02  0.16324388627E+04 -0.18680603044E+04  0.24808867268E+04  0.00000000000E+00 0.  1.
<mgrwt>
<rscale>  0 0.38150373E+04</rscale>
<asrwt>0</asrwt>
<pdfrwt beam="1">  1        2 0.44143248E+00 0.38150373E+04</pdfrwt>
<pdfrwt beam="2">  1       -2 0.19509520E+00 0.38150373E+04</pdfrwt>
<totfact> 0.24069892E-01</totfact>
</mgrwt>
</event>
<event>
 6    1  0.1603085E-006  0.1044683E+04  0.7818608E-02  0.9260851E-01
         -1   -1    0    0    0  501 -0.00000000000E+00  0.00000000000E+00  0.47447053999E+03  0.47447053999E+03  0.00000000000E+00 0.  1.
          1   -1    0    0  501    0  0.00000000000E+00 -0.00000000000E+00 -0.57504207908E+03  0.57504207908E+03  0.00000000000E+00 0. -1.
         23    2    1    2    0    0 -0.45951579699E+03 -0.12101024693E+03 -0.25851834571E+03  0.54876773266E+03  0.92282402390E+02 0.  0.
         13    1    3    3    0    0 -0.77708771541E+02 -0.43714730390E+02 -0.81822731809E+02  0.12101483491E+03  0.00000000000E+00 0.  1.
        -13    1    3    3    0    0 -0.38180702545E+03 -0.77295516541E+02 -0.17669561390E+03  0.42775289775E+03  0.00000000000E+00 0. -1.
         22    1    1    2    0    0  0.45951579699E+03  0.12101024693E+03  0.15794680661E+03  0.50074488641E+03  0.00000000000E+00 0.  1.
<mgrwt>
<rscale>  0 0.10446828E+04</rscale>
<asrwt>0</asrwt>
<pdfrwt beam="1">  1        1 0.88468012E-01 0.10446828E+04</pdfrwt>
<pdfrwt beam="2">  1       -1 0.72995468E-01 0.10446828E+04</pdfrwt>
<totfact> 0.68914196E+01</totfact>
</mgrwt>
</event>
<event>
 6    1  0.1603085E-006  0.1402159E+04  0.7818608E-02  0.8952258E-01
          1   -1    0    0  501    0  0.00000000000E+00  0.00000000000E+00  0.10411748313E+04  0.10411748313E+04  0.00000000000E+00 0. -1.
         -1   -1    0    0    0  501 -0.00000000000E+00 -0.00000000000E+00 -0.47207458445E+03  0.47207458445E+03  0.00000000000E+00 0.  1.
         23    2    1    2    0    0  0.59699452070E+03 -0.81977971091E+02 -0.94730513054E+02  0.61670375417E+03  0.90701735511E+02 0.  0.
         13    1    3    3    0    0  0.28268435387E+03  0.86932576345E+00 -0.21436828510E+02  0.28349733203E+03  0.00000000000E+00 0. -1.
        -13    1    3    3    0    0  0.31431016683E+03 -0.82847296855E+02 -0.73293684544E+02  0.33320642215E+03  0.00000000000E+00 0.  1.
         22    1    1    2    0    0 -0.59699452070E+03  0.81977971091E+02  0.66383075990E+03  0.89654566156E+03  0.00000000000E+00 0. -1.
<mgrwt>
<rscale>  0 0.14021586E+04</rscale>
<asrwt>0</asrwt>
<pdfrwt beam="1">  1        1 0.16018074E+00 0.14021586E+04</pdfrwt>
<pdfrwt beam="2">  1       -1 0.72626860E-01 0.14021586E+04</pdfrwt>
<totfact> 0.26206006E+01</totfact>
</mgrwt>
</event>
<event>
 6    1  0.1603085E-006  0.1948832E+04  0.7818608E-02  0.8630924E-01
         -2   -1    0    0    0  501 -0.00000000000E+00  0.00000000000E+00  0.94268908734E+03  0.94268908734E+03  0.00000000000E+00 0. -1.
          2   -1    0    0  501    0  0.00000000000E+00 -0.00000000000E+00 -0.10072112204E+04  0.10072112204E+04  0.00000000000E+00 0.  1.
         23    2    1    2    0    0 -0.38562194073E+03  0.70531766792E+03 -0.57911158668E+03  0.99544779473E+03  0.96792501462E+02 0.  0.
         13    1    3    3    0    0 -0.95187310880E+02  0.24631676656E+03 -0.22612383979E+03  0.34765581336E+03  0.00000000000E+00 0. -1.
        -13    1    3    3    0    0 -0.29043462985E+03  0.45900090136E+03 -0.35298774690E+03  0.64779198137E+03  0.00000000000E+00 0.  1.
         22    1    1    2    0    0  0.38562194073E+03 -0.70531766792E+03  0.51458945361E+03  0.95445251303E+03  0.00000000000E+00 0. -1.
<mgrwt>
<rscale>  0 0.19488325E+04</rscale>
<asrwt>0</asrwt>
<pdfrwt beam="1">  1        2 0.15495557E+00 0.19488325E+04</pdfrwt>
<pdfrwt beam="2">  1       -2 0.14502909E+00 0.19488325E+04</pdfrwt>
<totfact> 0.76135847E+00</totfact>
</mgrwt>
</event>
<event>
 6    1  0.1603085E-006  0.4555120E+04  0.7818608E-02  0.7901057E-01
         -1   -1    0    0    0  501 -0.00000000000E+00  0.00000000000E+00  0.13528001496E+04  0.13528001496E+04  0.00000000000E+00 0.  1.
          1   -1    0    0  501    0  0.00000000000E+00 -0.00000000000E+00 -0.38344762560E+04  0.38344762560E+04  0.00000000000E+00 0. -1.
         23    2    1    2    0    0 -0.29575095404E+03 -0.12175030458E+04 -0.34060123772E+04  0.36302986167E+04  0.91462776177E+02 0.  0.
         13    1    3    3    0    0 -0.15823672334E+03 -0.65479034112E+03 -0.16988328114E+04  0.18275180362E+04  0.00000000000E+00 0. -1.
        -13    1    3    3    0    0 -0.13751423070E+03 -0.56271270468E+03 -0.17071795658E+04  0.18027805805E+04  0.00000000000E+00 0.  1.
         22    1    1    2    0    0  0.29575095404E+03  0.12175030458E+04  0.92433627085E+03  0.15569777888E+04  0.00000000000E+00 0.  1.
<mgrwt>
<rscale>  0 0.45551202E+04</rscale>
<asrwt>0</asrwt>
<pdfrwt beam="1">  1        1 0.58991942E+00 0.45551202E+04</pdfrwt>
<pdfrwt beam="2">  1       -1 0.20812310E+00 0.45551202E+04</pdfrwt>
<totfact> 0.13168072E-02</totfact>
</mgrwt>
</event>
<event>
 6    1  0.1603085E-006  0.1780485E+04  0.7818608E-02  0.8716747E-01
          1   -1    0    0  501    0  0.00000000000E+00  0.00000000000E+00  0.12616705053E+04  0.12616705053E+04  0.00000000000E+00 0. -1.
         -1   -1    0    0    0  501 -0.00000000000E+00 -0.00000000000E+00 -0.62816039436E+03  0.62816039436E+03  0.00000000000E+00 0.  1.
         23    2    1    2    0    0 -0.46949897200E+03  0.63068426751E+03  0.75552455521E+03  0.10941679971E+04  0.90522496247E+02 0.  0.
         11    1    3    3    0    0 -0.42341284793E+03  0.55090912803E+03  0.62607253620E+03  0.93527863641E+03  0.00000000000E+00 0. -1.
        -11    1    3    3    0    0 -0.46086124076E+02  0.79775139479E+02  0.12945201901E+03  0.15888936068E+03  0.00000000000E+00 0.  1.
         22    1    1    2    0    0  0.46949897200E+03 -0.63068426751E+03 -0.12201444423E+03  0.79566290261E+03  0.00000000000E+00 0.  1.
<mgrwt>
<rscale>  0 0.17804847E+04</rscale>
<asrwt>0</asrwt>
<pdfrwt beam="1">  1        1 0.19410315E+00 0.17804847E+04</pdfrwt>
<pdfrwt beam="2">  1       -1 0.96640061E-01 0.17804847E+04</pdfrwt>
<totfact> 0.93853398E+00</totfact>
</mgrwt>
</event>
<event>
 6    1  0.1912479E-006  0.3370736E+04  0.7818608E-02  0.8145126E-01
          1   -1    0    0  501    0  0.00000000000E+00  0.00000000000E+00  0.17780743088E+04  0.17780743088E+04  0.00000000000E+00 0. -1.
         -1   -1    0    0    0  501 -0.00000000000E+00 -0.00000000000E+00 -0.15974952160E+04  0.15974952160E+04  0.00000000000E+00 0.  1.
         23    2    1    2    0    0 -0.32437975611E+03  0.11321105544E+04  0.12959980211E+04  0.17535165297E+04  0.91174643755E+02 0.  0.
         13    1    3    3    0    0 -0.83845542847E+02  0.44671886936E+03  0.47976651660E+03  0.66088102844E+03  0.00000000000E+00 0. -1.
        -13    1    3    3    0    0 -0.24053421326E+03  0.68539168502E+03  0.81623150449E+03  0.10926355012E+04  0.00000000000E+00 0.  1.
         22    1    1    2    0    0  0.32437975611E+03 -0.11321105544E+04 -0.11154189283E+04  0.16220529952E+04  0.00000000000E+00 0.  1.
<mgrwt>
<rscale>  0 0.33707359E+04</rscale>
<asrwt>0</asrwt>
<pdfrwt beam="1">  1        1 0.27354989E+00 0.33707359E+04</pdfrwt>
<pdfrwt beam="2">  1       -1 0.24576849E+00 0.33707359E+04</pdfrwt>
<totfact> 0.25840706E-01</totfact>
</mgrwt>
</event>
<event>
 6    1  0.1603085E-006  0.1299867E+04  0.7818608E-02  0.9029670E-01
         -2   -1    0    0    0  501 -0.00000000000E+00  0.00000000000E+00  0.32143326551E+03  0.32143326551E+03  0.00000000000E+00 0.  1.
          2   -1    0    0  501    0  0.00000000000E+00 -0.00000000000E+00 -0.13141568803E+04  0.13141568803E+04  0.00000000000E+00 0. -1.
         23    2    1    2    0    0  0.53746119616E+03 -0.35864812657E+03 -0.47129245878E+03  0.80529895198E+03  0.94322872533E+02 0.  0.
         11    1    3    3    0    0  0.25913661579E+03 -0.13939301582E+03 -0.16752370011E+03  0.33859472619E+03  0.00000000000E+00 0.  1.
        -11    1    3    3    0    0  0.27832458037E+03 -0.21925511074E+03 -0.30376875867E+03  0.46670422579E+03  0.00000000000E+00 0. -1.
         22    1    1    2    0    0 -0.53746119616E+03  0.35864812657E+03 -0.52143115599E+03  0.83029119381E+03  0.00000000000E+00 0.  1.
<mgrwt>
<rscale>  0 0.12998673E+04</rscale>
<asrwt>0</asrwt>
<pdfrwt beam="1">  1        2 0.20217798E+00 0.12998673E+04</pdfrwt>
<pdfrwt beam="2">  1       -2 0.49451273E-01 0.12998673E+04</pdfrwt>
<totfact> 0.61517871E+01</totfact>
</mgrwt>
</event>
<event>
 6    1  0.1603085E-006  0.4115779E+04  0.7818608E-02  0.7981589E-01
         -2   -1    0    0    0  501 -0.00000000000E+00  0.00000000000E+00  0.27817701358E+04  0.27817701358E+04  0.00000000000E+00 0.  1.
          2   -1    0    0  501    0  0.00000000000E+00 -0.00000000000E+00 -0.15223791871E+04  0.15223791871E+04  0.00000000000E+00 0. -1.
         23    2    1    2    0    0 -0.86045088685E+03 -0.63309660040E+03 -0.12078672651E+04  0.16155530111E+04  0.99404062679E+02 0.  0.
         13    1    3    3    0    0 -0.10954797562E+03 -0.48903073806E+02 -0.16378381353E+03  0.20302070624E+03  0.00000000000E+00 0.  1.
        -13    1    3    3    0    0 -0.75090291122E+03 -0.58419352660E+03 -0.10440834515E+04  0.14125323049E+04  0.00000000000E+00 0. -1.
         22    1    1    2    0    0  0.86045088685E+03  0.63309660040E+03  0.24672582138E+04  0.26885963117E+04  0.00000000000E+00 0.  1.
<mgrwt>
<rscale>  0 0.41157789E+04</rscale>
<asrwt>0</asrwt>
<pdfrwt beam="1">  1        2 0.23421218E+00 0.41157789E+04</pdfrwt>
<pdfrwt beam="2">  1       -2 0.42796464E+00 0.41157789E+04</pdfrwt>
<totfact> 0.46796330E-02</totfact>
</mgrwt>
</event>
<event>
 6    1  0.1603085E-006  0.2355745E+04  0.7818608E-02  0.8456260E-01
          2   -1    0    0  501    0  0.00000000000E+00  0.00000000000E+00  0.70889633560E+03  0.70889633560E+03  0.00000000000E+00 0. -1.
         -2   -1    0    0    0  501 -0.00000000000E+00 -0.00000000000E+00 -0.19571044952E+04  0.19571044952E+04  0.00000000000E+00 0.  1.
         23    2    1    2    0    0  0.17422156652E+03 -0.24394936801E+03 -0.19121607633E+04  0.19375109487E+04  0.87894500922E+02 0.  0.
         11    1    3    3    0    0  0.10904215781E+03 -0.92421242907E+02 -0.10531472446E+04  0.10628033671E+04  0.00000000000E+00 0.  1.
        -11    1    3    3    0    0  0.65179408704E+02 -0.15152812511E+03 -0.85901351876E+03  0.87470758167E+03  0.00000000000E+00 0. -1.
         22    1    1    2    0    0 -0.17422156652E+03  0.24394936801E+03  0.66395260369E+03  0.72848988211E+03  0.00000000000E+00 0. -1.
<mgrwt>
<rscale>  0 0.23557455E+04</rscale>
<asrwt>0</asrwt>
<pdfrwt beam="1">  1        2 0.10906097E+00 0.23557455E+04</pdfrwt>
<pdfrwt beam="2">  1       -2 0.30109300E+00 0.23557455E+04</pdfrwt>
<totfact> 0.11392761E+00</totfact>
</mgrwt>
</event>
<event>
 6    1  0.1603085E-006  0.5919301E+04  0.7818608E-02  0.7700489E-01
          2   -1    0    0  501    0  0.00000000000E+00  0.00000000000E+00  0.33943289929E+04  0.33943289929E+04  0.00000000000E+00 0. -1.
         -2   -1    0    0    0  501 -0.00000000000E+00 -0.00000000000E+00 -0.25806369971E+04  0.25806369971E+04  0.00000000000E+00 0.  1.
         23    2    1    2    0    0 -0.20130047973E+03  0.16970528234E+04  0.28452006399E+04  0.33202461291E+04  0.91419409393E+02 0.  0.
         11    1    3    3    0    0 -0.17107838178E+03  0.12981271503E+04  0.21100598361E+04  0.24832950737E+04  0.00000000000E+00 0.  1.
        -11    1    3    3    0    0 -0.30222097946E+02  0.39892567305E+03  0.73514080374E+03  0.83695105541E+03  0.00000000000E+00 0. -1.
         22    1    1    2    0    0  0.20130047973E+03 -0.16970528234E+04 -0.20315086441E+04  0.26547198608E+04  0.00000000000E+00 0.  1.
<mgrwt>
<rscale>  0 0.59193010E+04</rscale>
<asrwt>0</asrwt>
<pdfrwt beam="1">  1        2 0.52220446E+00 0.59193010E+04</pdfrwt>
<pdfrwt beam="2">  1       -2 0.39702108E+00 0.59193010E+04</pdfrwt>
<totfact> 0.50550988E-03</totfact>
</mgrwt>
</event>
<event>
 6    1  0.1603085E-006  0.1820136E+04  0.7818608E-02  0.8695664E-01
          1   -1    0    0  501    0  0.00000000000E+00  0.00000000000E+00  0.20682597146E+04  0.20682597146E+04  0.00000000000E+00 0. -1.
         -1   -1    0    0    0  501 -0.00000000000E+00 -0.00000000000E+00 -0.40044457751E+03  0.40044457751E+03  0.00000000000E+00 0.  1.
         23    2    1    2    0    0  0.72131474067E+03  0.34885116997E+03  0.25697535177E+03  0.84621823863E+03  0.89760136322E+02 0.  0.
         13    1    3    3    0    0  0.56834283072E+03  0.23890838682E+03  0.21740919435E+03  0.65372589693E+03  0.00000000000E+00 0.  1.
        -13    1    3    3    0    0  0.15297190994E+03  0.10994278315E+03  0.39566157420E+02  0.19249234170E+03  0.00000000000E+00 0. -1.
         22    1    1    2    0    0 -0.72131474067E+03 -0.34885116997E+03  0.14108397854E+04  0.16224860535E+04  0.00000000000E+00 0. -1.
<mgrwt>
<rscale>  0 0.18201356E+04</rscale>
<asrwt>0</asrwt>
<pdfrwt beam="1">  1        1 0.31819380E+00 0.18201356E+04</pdfrwt>
<pdfrwt beam="2">  1       -1 0.61606859E-01 0.18201356E+04</pdfrwt>
<totfact> 0.67431075E+00</totfact>
</mgrwt>
</event>
<event>
 6    1  0.1603085E-006  0.8195657E+03  0.7818608E-02  0.9532121E-01
          1   -1    0    0  501    0  0.00000000000E+00  0.00000000000E+00  0.17470035439E+03  0.17470035439E+03  0.00000000000E+00 0. -1.
         -1   -1    0    0    0  501 -0.00000000000E+00 -0.00000000000E+00 -0.96120000061E+03  0.96120000061E+03  0.00000000000E+00 0.  1.
         23    2    1    2    0    0 -0.16153418162E+03  0.36995791584E+03 -0.35603364872E+03  0.54576212854E+03  0.90189747767E+02 0.  0.
         11    1    3    3    0    0 -0.61371054032E+02  0.24889337585E+03 -0.21329500188E+03  0.33348024926E+03  0.00000000000E+00 0.  1.
        -11    1    3    3    0    0 -0.10016312759E+03  0.12106453999E+03 -0.14273864684E+03  0.21228187928E+03  0.00000000000E+00 0. -1.
         22    1    1    2    0    0  0.16153418162E+03 -0.36995791584E+03 -0.43046599751E+03  0.59013822646E+03  0.00000000000E+00 0.  1.
<mgrwt>
<rscale>  0 0.81956569E+03</rscale>
<asrwt>0</asrwt>
<pdfrwt beam="1">  1        1 0.26876978E-01 0.81956569E+03</pdfrwt>
<pdfrwt beam="2">  1       -1 0.14787692E+00 0.81956569E+03</pdfrwt>
<totfact> 0.65237622E+01</totfact>
</mgrwt>
</event>
<event>
 6    1  0.1603085E-006  0.2401453E+04  0.7818608E-02  0.8438960E-01
         -1   -1    0    0    0  501 -0.00000000000E+00  0.00000000000E+00  0.79308302823E+03  0.79308302823E+03  0.00000000000E+00 0.  1.
          1   -1    0    0  501    0  0.00000000000E+00 -0.00000000000E+00 -0.18178977376E+04  0.18178977376E+04  0.00000000000E+00 0. -1.
         23    2    1    2    0    0  0.20367205815E+03 -0.97836861182E+03  0.20694054930E+03  0.10248192151E+04  0.93501790359E+02 0.  0.
         11    1    3    3    0    0  0.18315633170E+03 -0.76851847050E+03  0.13168880460E+03  0.80094245898E+03  0.00000000000E+00 0. -1.
        -11    1    3    3    0    0  0.20515726451E+02 -0.20985014132E+03  0.75251744702E+02  0.22387675610E+03  0.00000000000E+00 0.  1.
         22    1    1    2    0    0 -0.20367205815E+03  0.97836861182E+03 -0.12317552587E+04  0.15861615508E+04  0.00000000000E+00 0. -1.
<mgrwt>
<rscale>  0 0.24014528E+04</rscale>
<asrwt>0</asrwt>
<pdfrwt beam="1">  1        1 0.27967657E+00 0.24014528E+04</pdfrwt>
<pdfrwt beam="2">  1       -1 0.12201277E+00 0.24014528E+04</pdfrwt>
<totfact> 0.21090394E+00</totfact>
</mgrwt>
</event>
<event>
 6    1  0.1603085E-006  0.3079325E+04  0.7818608E-02  0.8221435E-01
          1   -1    0    0  501    0  0.00000000000E+00  0.00000000000E+00  0.28190946730E+04  0.28190946730E+04  0.00000000000E+00 0. -1.
         -1   -1    0    0    0  501 -0.00000000000E+00 -0.00000000000E+00 -0.84089425263E+03  0.84089425263E+03  0.00000000000E+00 0.  1.
         23    2    1    2    0    0  0.60991302377E+03  0.83556889051E+03 -0.36338278322E+03  0.11000707303E+04  0.89102733867E+02 0.  0.
         13    1    3    3    0    0  0.33034942994E+03  0.41198254993E+03 -0.14547519708E+03  0.54774391852E+03  0.00000000000E+00 0.  1.
        -13    1    3    3    0    0  0.27956359383E+03  0.42358634059E+03 -0.21790758615E+03  0.55232681179E+03  0.00000000000E+00 0. -1.
         22    1    1    2    0    0 -0.60991302377E+03 -0.83556889051E+03  0.23415832036E+04  0.25599181953E+04  0.00000000000E+00 0. -1.
<mgrwt>
<rscale>  0 0.30793249E+04</rscale>
<asrwt>0</asrwt>
<pdfrwt beam="1">  1        1 0.43370687E+00 0.30793249E+04</pdfrwt>
<pdfrwt beam="2">  1       -1 0.12936835E+00 0.30793249E+04</pdfrwt>
<totfact> 0.35028498E-01</totfact>
</mgrwt>
</event>
<event>
 6    1  0.1603085E-006  0.2465252E+04  0.7818608E-02  0.8415470E-01
         -1   -1    0    0    0  501 -0.00000000000E+00  0.00000000000E+00  0.46595650985E+03  0.46595650985E+03  0.00000000000E+00 0.  1.
          1   -1    0    0  501    0  0.00000000000E+00 -0.00000000000E+00 -0.32607489708E+04  0.32607489708E+04  0.00000000000E+00 0. -1.
         23    2    1    2    0    0 -0.70041786022E+03  0.94440976608E+02 -0.29227939836E+04  0.30084515793E+04  0.92476793741E+02 0.  0.
         13    1    3    3    0    0 -0.49441033171E+03  0.31082613356E+02 -0.19337005752E+04  0.19961476948E+04  0.00000000000E+00 0.  1.
        -13    1    3    3    0    0 -0.20600752852E+03  0.63358363251E+02 -0.98909340847E+03  0.10123038846E+04  0.00000000000E+00 0. -1.
         22    1    1    2    0    0  0.70041786022E+03 -0.94440976608E+02  0.12800152268E+03  0.71825390134E+03  0.00000000000E+00 0.  1.
<mgrwt>
<rscale>  0 0.24652523E+04</rscale>
<asrwt>0</asrwt>
<pdfrwt beam="1">  1        1 0.50165367E+00 0.24652523E+04</pdfrwt>
<pdfrwt beam="2">  1       -1 0.71685620E-01 0.24652523E+04</pdfrwt>
<totfact> 0.66990979E-01</totfact>
</mgrwt>
</event>
<event>
 6    1  0.1603085E-006  0.4031280E+03  0.7818608E-02  0.1042702E+00
         -3   -1    0    0    0  501 -0.00000000000E+00  0.00000000000E+00  0.64269161701E+02  0.64269161701E+02  0.00000000000E+00 0.  1.
          3   -1    0    0  501    0  0.00000000000E+00 -0.00000000000E+00 -0.63215458500E+03  0.63215458500E+03  0.00000000000E+00 0. -1.
         23    2    1    2    0    0  0.82973866641E+01 -0.19433853307E+02 -0.62682892856E+03  0.63380699102E+03  0.91379838644E+02 0.  0.
         13    1    3    3    0    0 -0.40578764033E+02 -0.19243309982E+02 -0.30321042308E+03  0.30651835465E+03  0.00000000000E+00 0. -1.
        -13    1    3    3    0    0  0.48876150697E+02 -0.19054332437E+00 -0.32361850548E+03  0.32728863637E+03  0.00000000000E+00 0.  1.
         22    1    1    2    0    0 -0.82973866641E+01  0.19433853307E+02  0.58943505258E+02  0.62616755680E+02  0.00000000000E+00 0.  1.
<mgrwt>
<rscale>  0 0.40312800E+03</rscale>
<asrwt>0</asrwt>
<pdfrwt beam="1">  1        3 0.97254552E-01 0.40312800E+03</pdfrwt>
<pdfrwt beam="2">  1       -3 0.98875633E-02 0.40312800E+03</pdfrwt>
<totfact> 0.18857437E+02</totfact>
</mgrwt>
</event>
<event>
 6    1  0.1603085E-006  0.4025017E+04  0.7818608E-02  0.7999519E-01
         -1   -1    0    0    0  501 -0.00000000000E+00  0.00000000000E+00  0.21776518755E+04  0.21776518755E+04  0.00000000000E+00 0.  1.
          1   -1    0    0  501    0  0.00000000000E+00 -0.00000000000E+00 -0.18598885922E+04  0.18598885922E+04  0.00000000000E+00 0. -1.
         23    2    1    2    0    0 -0.75546209377E+03  0.15869890867E+04  0.11402137546E+04  0.20970039146E+04  0.89892575635E+02 0.  0.
         13    1    3    3    0    0 -0.68771104101E+03  0.14761850589E+04  0.10322162938E+04  0.19280921351E+04  0.00000000000E+00 0.  1.
        -13    1    3    3    0    0 -0.67751052752E+02  0.11080402779E+03  0.10799746075E+03  0.16891177950E+03  0.00000000000E+00 0. -1.
         22    1    1    2    0    0  0.75546209377E+03 -0.15869890867E+04 -0.82245047122E+03  0.19405365532E+04  0.00000000000E+00 0. -1.
<mgrwt>
<rscale>  0 0.40250167E+04</rscale>
<asrwt>0</asrwt>
<pdfrwt beam="1">  1        1 0.28613671E+00 0.40250167E+04</pdfrwt>
<pdfrwt beam="2">  1       -1 0.33502337E+00 0.40250167E+04</pdfrwt>
<totfact> 0.56519680E-02</totfact>
</mgrwt>
</event>
<event>
 6    1  0.1603085E-006  0.1939980E+04  0.7818608E-02  0.8635208E-01
          1   -1    0    0  501    0  0.00000000000E+00  0.00000000000E+00  0.14747665469E+04  0.14747665469E+04  0.00000000000E+00 0. -1.
         -1   -1    0    0    0  501 -0.00000000000E+00 -0.00000000000E+00 -0.63798626205E+03  0.63798626205E+03  0.00000000000E+00 0.  1.
         23    2    1    2    0    0  0.45679969685E+03  0.29583726038E+03  0.12908993837E+04  0.14039440875E+04  0.91935489781E+02 0.  0.
         13    1    3    3    0    0  0.24562607358E+03  0.19097673374E+03  0.63909618372E+03  0.71080814071E+03  0.00000000000E+00 0. -1.
        -13    1    3    3    0    0  0.21117362327E+03  0.10486052664E+03  0.65180319999E+03  0.69313594679E+03  0.00000000000E+00 0.  1.
         22    1    1    2    0    0 -0.45679969685E+03 -0.29583726038E+03 -0.45411909885E+03  0.70880872146E+03  0.00000000000E+00 0.  1.
<mgrwt>
<rscale>  0 0.19399802E+04</rscale>
<asrwt>0</asrwt>
<pdfrwt beam="1">  1        1 0.22688716E+00 0.19399802E+04</pdfrwt>
<pdfrwt beam="2">  1       -1 0.98151733E-01 0.19399802E+04</pdfrwt>
<totfact> 0.63163469E+00</totfact>
</mgrwt>
</event>
<event>
 6    1  0.1603085E-006  0.3913147E+04  0.7818608E-02  0.8022300E-01
         -1   -1    0    0    0  501 -0.00000000000E+00  0.00000000000E+00  0.18727077404E+04  0.18727077404E+04  0.00000000000E+00 0.  1.
          1   -1    0    0  501    0  0.00000000000E+00 -0.00000000000E+00 -0.20441952771E+04  0.20441952771E+04  0.00000000000E+00 0. -1.
         23    2    1    2    0    0  0.10647947887E+04  0.85806280514E+03  0.13133541937E+04  0.18982859948E+04  0.92362115925E+02 0.  0.
         13    1    3    3    0    0  0.67899669755E+03  0.52870670182E+03  0.76709889330E+03  0.11528260944E+04  0.00000000000E+00 0. -1.
        -13    1    3    3    0    0  0.38579809111E+03  0.32935610331E+03  0.54625530043E+03  0.74545990042E+03  0.00000000000E+00 0.  1.
         22    1    1    2    0    0 -0.10647947887E+04 -0.85806280514E+03 -0.14848417304E+04  0.20186170226E+04  0.00000000000E+00 0.  1.
<mgrwt>
<rscale>  0 0.39131472E+04</rscale>
<asrwt>0</asrwt>
<pdfrwt beam="1">  1        1 0.31449158E+00 0.39131472E+04</pdfrwt>
<pdfrwt beam="2">  1       -1 0.28810888E+00 0.39131472E+04</pdfrwt>
<totfact> 0.86451059E-02</totfact>
</mgrwt>
</event>
<event>
 6    1  0.1603085E-006  0.2467517E+04  0.7818608E-02  0.8414650E-01
         -2   -1    0    0    0  501 -0.00000000000E+00  0.00000000000E+00  0.12734788296E+04  0.12734788296E+04  0.00000000000E+00 0.  1.
          2   -1    0    0  501    0  0.00000000000E+00 -0.00000000000E+00 -0.11952771759E+04  0.11952771759E+04  0.00000000000E+00 0. -1.
         23    2    1    2    0    0 -0.11917377107E+04 -0.27932779450E+03  0.17984145433E+03  0.12405078885E+04  0.90851993861E+02 0.  0.
         13    1    3    3    0    0 -0.10881248119E+04 -0.25862692201E+03  0.18961074750E+03  0.11343966355E+04  0.00000000000E+00 0.  1.
        -13    1    3    3    0    0 -0.10361289880E+03 -0.20700872495E+02 -0.97692931674E+01  0.10611125298E+03  0.00000000000E+00 0. -1.
         22    1    1    2    0    0  0.11917377107E+04  0.27932779450E+03 -0.10163980062E+03  0.12282481170E+04  0.00000000000E+00 0. -1.
<mgrwt>
<rscale>  0 0.24675171E+04</rscale>
<asrwt>0</asrwt>
<pdfrwt beam="1">  1        2 0.18388880E+00 0.24675171E+04</pdfrwt>
<pdfrwt beam="2">  1       -2 0.19591982E+00 0.24675171E+04</pdfrwt>
<totfact> 0.24125536E+00</totfact>
</mgrwt>
</event>
<event>
 6    1  0.1603085E-006  0.3755154E+04  0.7818608E-02  0.8055848E-01
          1   -1    0    0  501    0  0.00000000000E+00  0.00000000000E+00  0.45596587151E+04  0.45596587151E+04  0.00000000000E+00 0. -1.
         -1   -1    0    0    0  501 -0.00000000000E+00 -0.00000000000E+00 -0.77314900290E+03  0.77314900290E+03  0.00000000000E+00 0.  1.
         23    2    1    2    0    0 -0.60660350269E+03 -0.15068182718E+04  0.56035215825E+03  0.17208052711E+04  0.93311981951E+02 0.  0.
         13    1    3    3    0    0 -0.32601011813E+03 -0.68612673377E+03  0.26775533326E+03  0.80544733559E+03  0.00000000000E+00 0. -1.
        -13    1    3    3    0    0 -0.28059338456E+03 -0.82069153803E+03  0.29259682500E+03  0.91535793549E+03  0.00000000000E+00 0.  1.
         22    1    1    2    0    0  0.60660350269E+03  0.15068182718E+04  0.32261575539E+04  0.36120024469E+04  0.00000000000E+00 0. -1.
<mgrwt>
<rscale>  0 0.37551541E+04</rscale>
<asrwt>0</asrwt>
<pdfrwt beam="1">  1        1 0.70148594E+00 0.37551541E+04</pdfrwt>
<pdfrwt beam="2">  1       -1 0.11894600E+00 0.37551541E+04</pdfrwt>
<totfact> 0.14035068E-02</totfact>
</mgrwt>
</event>
<event>
 6    1  0.1603085E-006  0.3896215E+04  0.7818608E-02  0.8025817E-01
         -1   -1    0    0    0  501 -0.00000000000E+00  0.00000000000E+00  0.10365247118E+04  0.10365247118E+04  0.00000000000E+00 0.  1.
          1   -1    0    0  501    0  0.00000000000E+00 -0.00000000000E+00 -0.36613924050E+04  0.36613924050E+04  0.00000000000E+00 0. -1.
         23    2    1    2    0    0 -0.18403910831E+04 -0.54916368503E+03 -0.92736933244E+03  0.21346924337E+04  0.90982503506E+02 0.  0.
         13    1    3    3    0    0 -0.12754848073E+04 -0.37578624481E+03 -0.59530330679E+03  0.14568674691E+04  0.00000000000E+00 0.  1.
        -13    1    3    3    0    0 -0.56490627577E+03 -0.17337744022E+03 -0.33206602565E+03  0.67782496455E+03  0.00000000000E+00 0. -1.
         22    1    1    2    0    0  0.18403910831E+04  0.54916368503E+03 -0.16974983607E+04  0.25632246832E+04  0.00000000000E+00 0.  1.
<mgrwt>
<rscale>  0 0.38962154E+04</rscale>
<asrwt>0</asrwt>
<pdfrwt beam="1">  1        1 0.56329114E+00 0.38962154E+04</pdfrwt>
<pdfrwt beam="2">  1       -1 0.15946534E+00 0.38962154E+04</pdfrwt>
<totfact> 0.43110890E-02</totfact>
</mgrwt>
</event>
<event>
 6    1  0.1603085E-006  0.2147238E+04  0.7818608E-02  0.8540715E-01
          1   -1    0    0  501    0  0.00000000000E+00  0.00000000000E+00  0.12653337727E+04  0.12653337727E+04  0.00000000000E+00 0. -1.
         -1   -1    0    0    0  501 -0.00000000000E+00 -0.00000000000E+00 -0.91095151004E+03  0.91095151004E+03  0.00000000000E+00 0.  1.
         23    2    1    2    0    0 -0.16667996501E+03 -0.44249326681E+03 -0.79718380084E+03  0.93142107308E+03  0.91982069737E+02 0.  0.
         11    1    3    3    0    0 -0.89545481328E+02 -0.12549923940E+03 -0.22472069810E+03  0.27252127343E+03  0.00000000000E+00 0. -1.
        -11    1    3    3    0    0 -0.77134483683E+02 -0.31699402742E+03 -0.57246310274E+03  0.65889979965E+03  0.00000000000E+00 0.  1.
         22    1    1    2    0    0  0.16667996501E+03  0.44249326681E+03  0.11515660635E+04  0.12448642097E+04  0.00000000000E+00 0. -1.
<mgrwt>
<rscale>  0 0.21472380E+04</rscale>
<asrwt>0</asrwt>
<pdfrwt beam="1">  1        1 0.19466673E+00 0.21472380E+04</pdfrwt>
<pdfrwt beam="2">  1       -1 0.14014639E+00 0.21472380E+04</pdfrwt>
<totfact> 0.36679282E+00</totfact>
</mgrwt>
</event>
<event>
 6    1  0.1603085E-006  0.2076389E+04  0.7818608E-02  0.8571716E-01
         -2   -1    0    0    0  501 -0.00000000000E+00  0.00000000000E+00  0.76634009069E+03  0.76634009069E+03  0.00000000000E+00 0.  1.
          2   -1    0    0  501    0  0.00000000000E+00 -0.00000000000E+00 -0.14064869220E+04  0.14064869220E+04  0.00000000000E+00 0. -1.
         23    2    1    2    0    0  0.41515603665E+03  0.70260660493E+03 -0.98878939886E+03  0.12853799912E+04  0.92123126254E+02 0.  0.
         11    1    3    3    0    0  0.38980370705E+03  0.62734812595E+03 -0.85541856543E+03  0.11301564154E+04  0.00000000000E+00 0. -1.
        -11    1    3    3    0    0  0.25352329609E+02  0.75258478978E+02 -0.13337083343E+03  0.15522357580E+03  0.00000000000E+00 0.  1.
         22    1    1    2    0    0 -0.41515603665E+03 -0.70260660493E+03  0.34864256755E+03  0.88744702150E+03  0.00000000000E+00 0.  1.
<mgrwt>
<rscale>  0 0.20763885E+04</rscale>
<asrwt>0</asrwt>
<pdfrwt beam="1">  1        2 0.21638260E+00 0.20763885E+04</pdfrwt>
<pdfrwt beam="2">  1       -2 0.11789848E+00 0.20763885E+04</pdfrwt>
<totfact> 0.73503943E+00</totfact>
</mgrwt>
</event>
<event>
 6    1  0.1603085E-006  0.1738685E+04  0.7818608E-02  0.8739603E-01
          2   -1    0    0  501    0  0.00000000000E+00  0.00000000000E+00  0.10447715041E+04  0.10447715041E+04  0.00000000000E+00 0. -1.
         -2   -1    0    0    0  501 -0.00000000000E+00 -0.00000000000E+00 -0.72337024717E+03  0.72337024717E+03  0.00000000000E+00 0.  1.
         23    2    1    2    0    0  0.24370851689E+03  0.76497770271E+03  0.49387822139E+03  0.94696392025E+03  0.90775777845E+02 0.  0.
         13    1    3    3    0    0  0.24086361629E+03  0.65415646808E+03  0.42343669264E+03  0.81561915074E+03  0.00000000000E+00 0.  1.
        -13    1    3    3    0    0  0.28449005991E+01  0.11082123463E+03  0.70441528754E+02  0.13134476951E+03  0.00000000000E+00 0. -1.
         22    1    1    2    0    0 -0.24370851689E+03 -0.76497770271E+03 -0.17247696447E+03  0.82117783100E+03  0.00000000000E+00 0. -1.
<mgrwt>
<rscale>  0 0.17386853E+04</rscale>
<asrwt>0</asrwt>
<pdfrwt beam="1">  1        2 0.16073408E+00 0.17386853E+04</pdfrwt>
<pdfrwt beam="2">  1       -2 0.11128773E+00 0.17386853E+04</pdfrwt>
<totfact> 0.14294032E+01</totfact>
</mgrwt>
</event>
<event>
 6    1  0.1603085E-006  0.3137314E+04  0.7818608E-02  0.8205571E-01
          1   -1    0    0  501    0  0.00000000000E+00  0.00000000000E+00  0.22391367480E+04  0.22391367480E+04  0.00000000000E+00 0. -1.
         -1   -1    0    0    0  501 -0.00000000000E+00 -0.00000000000E+00 -0.10989434799E+04  0.10989434799E+04  0.00000000000E+00 0.  1.
         23    2    1    2    0    0  0.30383508627E+03  0.13379068638E+04 -0.23563563390E+03  0.13950887962E+04  0.91858920426E+02 0.  0.
         11    1    3    3    0    0  0.30480342883E+02  0.23443502339E+03 -0.13721206832E+02  0.23680604514E+03  0.00000000000E+00 0. -1.
        -11    1    3    3    0    0  0.27335474339E+03  0.11034718404E+04 -0.22191442707E+03  0.11582827510E+04  0.00000000000E+00 0.  1.
         22    1    1    2    0    0 -0.30383508627E+03 -0.13379068638E+04  0.13758289021E+04  0.19429914317E+04  0.00000000000E+00 0. -1.
<mgrwt>
<rscale>  0 0.31373140E+04</rscale>
<asrwt>0</asrwt>
<pdfrwt beam="1">  1        1 0.34448257E+00 0.31373140E+04</pdfrwt>
<pdfrwt beam="2">  1       -1 0.16906823E+00 0.31373140E+04</pdfrwt>
<totfact> 0.43069363E-01</totfact>
</mgrwt>
</event>
<event>
 6    1  0.1792207E-006  0.4890527E+04  0.7818608E-02  0.7845620E-01
         -1   -1    0    0    0  501 -0.00000000000E+00  0.00000000000E+00  0.23081658223E+04  0.23081658223E+04  0.00000000000E+00 0.  1.
          1   -1    0    0  501    0  0.00000000000E+00 -0.00000000000E+00 -0.25905046196E+04  0.25905046196E+04  0.00000000000E+00 0. -1.
         23    2    1    2    0    0  0.10278998993E+04 -0.77455118546E+03 -0.22227937343E+04  0.25701788478E+04  0.92193179583E+02 0.  0.
         11    1    3    3    0    0  0.49053924731E+03 -0.37370431129E+03 -0.97372947898E+03  0.11525765761E+04  0.00000000000E+00 0.  1.
        -11    1    3    3    0    0  0.53736065196E+03 -0.40084687418E+03 -0.12490642553E+04  0.14176022717E+04  0.00000000000E+00 0. -1.
         22    1    1    2    0    0 -0.10278998993E+04  0.77455118546E+03  0.19404549370E+04  0.23284915942E+04  0.00000000000E+00 0.  1.
<mgrwt>
<rscale>  0 0.48905273E+04</rscale>
<asrwt>0</asrwt>
<pdfrwt beam="1">  1        1 0.39853917E+00 0.48905273E+04</pdfrwt>
<pdfrwt beam="2">  1       -1 0.35510244E+00 0.48905273E+04</pdfrwt>
<totfact> 0.12263437E-02</totfact>
</mgrwt>
</event>
<event>
 6    1  0.1603085E-006  0.2699032E+04  0.7818608E-02  0.8335319E-01
         -2   -1    0    0    0  501 -0.00000000000E+00  0.00000000000E+00  0.24251810484E+04  0.24251810484E+04  0.00000000000E+00 0. -1.
          2   -1    0    0  501    0  0.00000000000E+00 -0.00000000000E+00 -0.75095178838E+03  0.75095178838E+03  0.00000000000E+00 0.  1.
         23    2    1    2    0    0 -0.47266926027E+03 -0.70305437779E+03  0.20719130210E+04  0.22402620864E+04  0.90823791949E+02 0.  0.
         13    1    3    3    0    0 -0.14832454571E+03 -0.15113927445E+03  0.53006382967E+03  0.57079848867E+03  0.00000000000E+00 0.  1.
        -13    1    3    3    0    0 -0.32434471456E+03 -0.55191510334E+03  0.15418491914E+04  0.16694635977E+04  0.00000000000E+00 0. -1.
         22    1    1    2    0    0  0.47266926027E+03  0.70305437779E+03 -0.39768376100E+03  0.93587075042E+03  0.00000000000E+00 0.  1.
<mgrwt>
<rscale>  0 0.26990325E+04</rscale>
<asrwt>0</asrwt>
<pdfrwt beam="1">  1        2 0.11553105E+00 0.26990325E+04</pdfrwt>
<pdfrwt beam="2">  1       -2 0.37310477E+00 0.26990325E+04</pdfrwt>
<totfact> 0.36426483E-01</totfact>
</mgrwt>
</event>
<event>
 6    1  0.1603085E-006  0.8360830E+03  0.7818608E-02  0.9509209E-01
          1   -1    0    0  501    0  0.00000000000E+00  0.00000000000E+00  0.34286112025E+03  0.34286112025E+03  0.00000000000E+00 0. -1.
         -1   -1    0    0    0  501 -0.00000000000E+00 -0.00000000000E+00 -0.50970689135E+03  0.50970689135E+03  0.00000000000E+00 0.  1.
         23    2    1    2    0    0 -0.23826810931E+03 -0.19502847393E+03  0.19754227551E+03  0.37550779940E+03  0.84707492201E+02 0.  0.
         11    1    3    3    0    0 -0.22410724403E+03 -0.19880508569E+03  0.20059748742E+03  0.36053692027E+03  0.00000000000E+00 0. -1.
        -11    1    3    3    0    0 -0.14160865285E+02  0.37766117537E+01 -0.30552119105E+01  0.14970879125E+02  0.00000000000E+00 0.  1.
         22    1    1    2    0    0  0.23826810931E+03  0.19502847393E+03 -0.36438804661E+03  0.47706021221E+03  0.00000000000E+00 0.  1.
<mgrwt>
<rscale>  0 0.83608295E+03</rscale>
<asrwt>0</asrwt>
<pdfrwt beam="1">  1        1 0.52747865E-01 0.83608295E+03</pdfrwt>
<pdfrwt beam="2">  1       -1 0.78416445E-01 0.83608295E+03</pdfrwt>
<totfact> 0.12112762E+02</totfact>
</mgrwt>
</event>
<event>
 6    1  0.1603085E-006  0.1238125E+04  0.7818608E-02  0.9080125E-01
          2   -1    0    0  501    0  0.00000000000E+00  0.00000000000E+00  0.18647049792E+04  0.18647049792E+04  0.00000000000E+00 0. -1.
         -2   -1    0    0    0  501 -0.00000000000E+00 -0.00000000000E+00 -0.20552225494E+03  0.20552225494E+03  0.00000000000E+00 0.  1.
         23    2    1    2    0    0  0.36194228515E+00  0.52254702505E+03  0.13785007662E+04  0.14770679925E+04  0.91705875331E+02 0.  0.
         11    1    3    3    0    0  0.43724464404E+02  0.18289715560E+03  0.47682754829E+03  0.51256971148E+03  0.00000000000E+00 0. -1.
        -11    1    3    3    0    0 -0.43362522119E+02  0.33964986945E+03  0.90167321794E+03  0.96449828102E+03  0.00000000000E+00 0.  1.
         22    1    1    2    0    0 -0.36194228515E+00 -0.52254702505E+03  0.28068195804E+03  0.59315924165E+03  0.00000000000E+00 0.  1.
<mgrwt>
<rscale>  0 0.12381250E+04</rscale>
<asrwt>0</asrwt>
<pdfrwt beam="1">  1        2 0.28687768E+00 0.12381250E+04</pdfrwt>
<pdfrwt beam="2">  1       -2 0.31618810E-01 0.12381250E+04</pdfrwt>
<totfact> 0.72682675E+01</totfact>
</mgrwt>
</event>
<event>
 6    1  0.1603085E-006  0.2795401E+04  0.7818608E-02  0.8304698E-01
         -1   -1    0    0    0  501 -0.00000000000E+00  0.00000000000E+00  0.78685707091E+03  0.78685707091E+03  0.00000000000E+00 0.  1.
          1   -1    0    0  501    0  0.00000000000E+00 -0.00000000000E+00 -0.24827460379E+04  0.24827460379E+04  0.00000000000E+00 0. -1.
         23    2    1    2    0    0  0.13760639848E+04 -0.17248604887E+03 -0.10378130093E+04  0.17345566947E+04  0.91255451569E+02 0.  0.
         13    1    3    3    0    0  0.64617292067E+03 -0.93206400126E+02 -0.54340403843E+03  0.84942028785E+03  0.00000000000E+00 0. -1.
        -13    1    3    3    0    0  0.72989106414E+03 -0.79279648747E+02 -0.49440897087E+03  0.88513640683E+03  0.00000000000E+00 0.  1.
         22    1    1    2    0    0 -0.13760639848E+04  0.17248604887E+03 -0.65807595765E+03  0.15350464141E+04  0.00000000000E+00 0.  1.
<mgrwt>
<rscale>  0 0.27954007E+04</rscale>
<asrwt>0</asrwt>
<pdfrwt beam="1">  1        1 0.38196092E+00 0.27954007E+04</pdfrwt>
<pdfrwt beam="2">  1       -1 0.12105494E+00 0.27954007E+04</pdfrwt>
<totfact> 0.73046598E-01</totfact>
</mgrwt>
</event>
<event>
 6    1  0.1603085E-006  0.2157763E+04  0.7818608E-02  0.8536217E-01
          2   -1    0    0  501    0  0.00000000000E+00  0.00000000000E+00  0.31625282478E+04  0.31625282478E+04  0.00000000000E+00 0.  1.
         -2   -1    0    0    0  501 -0.00000000000E+00 -0.00000000000E+00 -0.36805538295E+03  0.36805538295E+03  0.00000000000E+00 0. -1.
         23    2    1    2    0    0  0.38317424737E+03 -0.70486644189E+03  0.22427661992E+03  0.83808145950E+03  0.91767781678E+02 0.  0.
         13    1    3    3    0    0  0.12786854433E+03 -0.32038823954E+03  0.75049523702E+02  0.35303175448E+03  0.00000000000E+00 0.  1.
        -13    1    3    3    0    0  0.25530570304E+03 -0.38447820236E+03  0.14922709622E+03  0.48504970502E+03  0.00000000000E+00 0. -1.
         22    1    1    2    0    0 -0.38317424737E+03  0.70486644189E+03  0.25701962449E+04  0.26925021712E+04  0.00000000000E+00 0.  1.
<mgrwt>
<rscale>  0 0.21577632E+04</rscale>
<asrwt>0</asrwt>
<pdfrwt beam="1">  1        2 0.48654279E+00 0.21577632E+04</pdfrwt>
<pdfrwt beam="2">  1       -2 0.56623907E-01 0.21577632E+04</pdfrwt>
<totfact> 0.36886283E+00</totfact>
</mgrwt>
</event>
<event>
 6    1  0.1603085E-006  0.3083220E+04  0.7818608E-02  0.8220358E-01
          2   -1    0    0  501    0  0.00000000000E+00  0.00000000000E+00  0.17143988265E+04  0.17143988265E+04  0.00000000000E+00 0. -1.
         -2   -1    0    0    0  501 -0.00000000000E+00 -0.00000000000E+00 -0.13862364309E+04  0.13862364309E+04  0.00000000000E+00 0.  1.
         23    2    1    2    0    0 -0.91566904378E+02 -0.83390478106E+03 -0.11348022778E+04  0.14142049097E+04  0.91747670561E+02 0.  0.
         11    1    3    3    0    0 -0.91878550754E+02 -0.80604019762E+03 -0.10631316871E+04  0.13373075385E+04  0.00000000000E+00 0. -1.
        -11    1    3    3    0    0  0.31164637684E+00 -0.27864583436E+02 -0.71670590694E+02  0.76897371242E+02  0.00000000000E+00 0.  1.
         22    1    1    2    0    0  0.91566904378E+02  0.83390478106E+03  0.14629646735E+04  0.16864303477E+04  0.00000000000E+00 0. -1.
<mgrwt>
<rscale>  0 0.30832205E+04</rscale>
<asrwt>0</asrwt>
<pdfrwt beam="1">  1        2 0.26375367E+00 0.30832205E+04</pdfrwt>
<pdfrwt beam="2">  1       -2 0.21326714E+00 0.30832205E+04</pdfrwt>
<totfact> 0.89311992E-01</totfact>
</mgrwt>
</event>
<event>
 6    1  0.1603085E-006  0.7769760E+03  0.7818608E-02  0.9593955E-01
         -1   -1    0    0    0  501 -0.00000000000E+00  0.00000000000E+00  0.26517953441E+03  0.26517953441E+03  0.00000000000E+00 0.  1.
          1   -1    0    0  501    0  0.00000000000E+00 -0.00000000000E+00 -0.56913492241E+03  0.56913492241E+03  0.00000000000E+00 0. -1.
         23    2    1    2    0    0 -0.32517481114E+03 -0.19603677628E+03 -0.20814704476E+03  0.44271732445E+03  0.92219096007E+02 0.  0.
         11    1    3    3    0    0 -0.22115355480E+03 -0.13415656504E+03 -0.90806878768E+02  0.27414005175E+03  0.00000000000E+00 0.  1.
        -11    1    3    3    0    0 -0.10402125634E+03 -0.61880211245E+02 -0.11734016599E+03  0.16857727269E+03  0.00000000000E+00 0. -1.
         22    1    1    2    0    0  0.32517481114E+03  0.19603677628E+03 -0.95808343244E+02  0.39159713238E+03  0.00000000000E+00 0. -1.
<mgrwt>
<rscale>  0 0.77697602E+03</rscale>
<asrwt>0</asrwt>
<pdfrwt beam="1">  1        1 0.87559218E-01 0.77697602E+03</pdfrwt>
<pdfrwt beam="2">  1       -1 0.40796852E-01 0.77697602E+03</pdfrwt>
<totfact> 0.21951929E+02</totfact>
</mgrwt>
</event>
<event>
 6    1  0.1603085E-006  0.3837092E+04  0.7818608E-02  0.8038242E-01
          2   -1    0    0  501    0  0.00000000000E+00  0.00000000000E+00  0.18536761829E+04  0.18536761829E+04  0.00000000000E+00 0.  1.
         -2   -1    0    0    0  501 -0.00000000000E+00 -0.00000000000E+00 -0.19856856608E+04  0.19856856608E+04  0.00000000000E+00 0. -1.
         23    2    1    2    0    0  0.30268757029E+03 -0.17762745501E+04  0.59016003785E+03  0.18981509195E+04  0.88977528555E+02 0.  0.
         11    1    3    3    0    0  0.80723261975E+02 -0.55673298372E+03  0.22529363777E+03  0.60599099284E+03  0.00000000000E+00 0.  1.
        -11    1    3    3    0    0  0.22196430831E+03 -0.12195415663E+04  0.36486640008E+03  0.12921599267E+04  0.00000000000E+00 0. -1.
         22    1    1    2    0    0 -0.30268757029E+03  0.17762745501E+04 -0.72216951574E+03  0.19412109241E+04  0.00000000000E+00 0. -1.
<mgrwt>
<rscale>  0 0.38370917E+04</rscale>
<asrwt>0</asrwt>
<pdfrwt beam="1">  1        2 0.28518095E+00 0.38370917E+04</pdfrwt>
<pdfrwt beam="2">  1       -2 0.30549010E+00 0.38370917E+04</pdfrwt>
<totfact> 0.18942481E-01</totfact>
</mgrwt>
</event>
<event>
 6    1  0.1603085E-006  0.2939480E+04  0.7818608E-02  0.8261227E-01
          1   -1    0    0  501    0  0.00000000000E+00  0.00000000000E+00  0.19735646736E+04  0.19735646736E+04  0.00000000000E+00 0. -1.
         -1   -1    0    0    0  501 -0.00000000000E+00 -0.00000000000E+00 -0.10945352145E+04  0.10945352145E+04  0.00000000000E+00 0.  1.
         23    2    1    2    0    0 -0.56181435074E+03 -0.61879774924E+03 -0.82015130629E+03  0.11744892385E+04  0.90723684571E+02 0.  0.
         11    1    3    3    0    0 -0.25659408726E+03 -0.21655711773E+03 -0.32922224308E+03  0.47023908408E+03  0.00000000000E+00 0.  1.
        -11    1    3    3    0    0 -0.30522026349E+03 -0.40224063150E+03 -0.49092906321E+03  0.70425015441E+03  0.00000000000E+00 0. -1.
         22    1    1    2    0    0  0.56181435074E+03  0.61879774924E+03  0.16991807653E+04  0.18936106496E+04  0.00000000000E+00 0. -1.
<mgrwt>
<rscale>  0 0.29394802E+04</rscale>
<asrwt>0</asrwt>
<pdfrwt beam="1">  1        1 0.30362533E+00 0.29394802E+04</pdfrwt>
<pdfrwt beam="2">  1       -1 0.16839003E+00 0.29394802E+04</pdfrwt>
<totfact> 0.67185416E-01</totfact>
</mgrwt>
</event>
<event>
 6    1  0.1603085E-006  0.3651257E+03  0.7818608E-02  0.1056573E+00
          2   -1    0    0  501    0  0.00000000000E+00  0.00000000000E+00  0.74294106730E+03  0.74294106730E+03  0.00000000000E+00 0. -1.
         -2   -1    0    0    0  501 -0.00000000000E+00 -0.00000000000E+00 -0.44861153215E+02  0.44861153215E+02  0.00000000000E+00 0.  1.
         23    2    1    2    0    0  0.12318439926E+03 -0.11546358820E+03  0.30759372992E+03  0.36237808340E+03  0.90541350873E+02 0.  0.
         13    1    3    3    0    0 -0.40517497727E+01 -0.40191447290E+02  0.41112102099E+02  0.57636568691E+02  0.00000000000E+00 0.  1.
        -13    1    3    3    0    0  0.12723614903E+03 -0.75272140908E+02  0.26648162782E+03  0.30474151471E+03  0.00000000000E+00 0. -1.
         22    1    1    2    0    0 -0.12318439926E+03  0.11546358820E+03  0.39048618416E+03  0.42542413711E+03  0.00000000000E+00 0. -1.
<mgrwt>
<rscale>  0 0.36512569E+03</rscale>
<asrwt>0</asrwt>
<pdfrwt beam="1">  1        2 0.11429862E+00 0.36512569E+03</pdfrwt>
<pdfrwt beam="2">  1       -2 0.69017164E-02 0.36512569E+03</pdfrwt>
<totfact> 0.46636847E+03</totfact>
</mgrwt>
</event>
<event>
 6    1  0.1603085E-006  0.2122655E+04  0.7818608E-02  0.8551329E-01
          3   -1    0    0  501    0  0.00000000000E+00  0.00000000000E+00  0.43621337272E+03  0.43621337272E+03  0.00000000000E+00 0. -1.
         -3   -1    0    0    0  501 -0.00000000000E+00 -0.00000000000E+00 -0.25822603936E+04  0.25822603936E+04  0.00000000000E+00 0.  1.
         23    2    1    2    0    0  0.72467373677E+03 -0.47934888867E+03 -0.19368857967E+04  0.21247871325E+04  0.90919673046E+02 0.  0.
         11    1    3    3    0    0  0.30966978624E+03 -0.25827930639E+03 -0.91420135705E+03  0.99918351560E+03  0.00000000000E+00 0.  1.
        -11    1    3    3    0    0  0.41500395053E+03 -0.22106958228E+03 -0.10226844397E+04  0.11256036169E+04  0.00000000000E+00 0. -1.
         22    1    1    2    0    0 -0.72467373677E+03  0.47934888867E+03 -0.20916122417E+03  0.89368663386E+03  0.00000000000E+00 0. -1.
<mgrwt>
<rscale>  0 0.21226554E+04</rscale>
<asrwt>0</asrwt>
<pdfrwt beam="1">  1        3 0.67109749E-01 0.21226554E+04</pdfrwt>
<pdfrwt beam="2">  1       -3 0.39727083E+00 0.21226554E+04</pdfrwt>
<totfact> 0.56386728E-02</totfact>
</mgrwt>
</event>
<event>
 6    1  0.1603085E-006  0.1890299E+04  0.7818608E-02  0.8659700E-01
          2   -1    0    0  501    0  0.00000000000E+00  0.00000000000E+00  0.28073113195E+04  0.28073113195E+04  0.00000000000E+00 0. -1.
         -2   -1    0    0    0  501 -0.00000000000E+00 -0.00000000000E+00 -0.31820745832E+03  0.31820745832E+03  0.00000000000E+00 0.  1.
         23    2    1    2    0    0  0.12925449264E+02 -0.78255041537E+03  0.37885382506E+03  0.87480612740E+03  0.95933935286E+02 0.  0.
         13    1    3    3    0    0  0.38508469066E+02 -0.62410904904E+03  0.33005299148E+03  0.70705727100E+03  0.00000000000E+00 0. -1.
        -13    1    3    3    0    0 -0.25583019802E+02 -0.15844136633E+03  0.48800833578E+02  0.16774885640E+03  0.00000000000E+00 0.  1.
         22    1    1    2    0    0 -0.12925449264E+02  0.78255041537E+03  0.21102500361E+04  0.22507126504E+04  0.00000000000E+00 0. -1.
<mgrwt>
<rscale>  0 0.18902988E+04</rscale>
<asrwt>0</asrwt>
<pdfrwt beam="1">  1        2 0.43189403E+00 0.18902988E+04</pdfrwt>
<pdfrwt beam="2">  1       -2 0.48954995E-01 0.18902988E+04</pdfrwt>
<totfact> 0.84937518E+00</totfact>
</mgrwt>
</event>
<event>
 6    1  0.1603085E-006  0.5438856E+04  0.7818608E-02  0.7764159E-01
         -2   -1    0    0    0  501 -0.00000000000E+00  0.00000000000E+00  0.19582664079E+04  0.19582664079E+04  0.00000000000E+00 0.  1.
          2   -1    0    0  501    0  0.00000000000E+00 -0.00000000000E+00 -0.37764468329E+04  0.37764468329E+04  0.00000000000E+00 0. -1.
         23    2    1    2    0    0  0.15314942897E+04  0.35746387752E+03  0.14290000718E+04  0.21267447873E+04  0.88017055229E+02 0.  0.
         11    1    3    3    0    0  0.10266969638E+04  0.21943081667E+03  0.90377091510E+03  0.13853008358E+04  0.00000000000E+00 0. -1.
        -11    1    3    3    0    0  0.50479732585E+03  0.13803306085E+03  0.52522915669E+03  0.74144395143E+03  0.00000000000E+00 0.  1.
         22    1    1    2    0    0 -0.15314942897E+04 -0.35746387752E+03 -0.32471804968E+04  0.36079684536E+04  0.00000000000E+00 0. -1.
<mgrwt>
<rscale>  0 0.54388561E+04</rscale>
<asrwt>0</asrwt>
<pdfrwt beam="1">  1        2 0.58099181E+00 0.54388561E+04</pdfrwt>
<pdfrwt beam="2">  1       -2 0.30127176E+00 0.54388561E+04</pdfrwt>
<totfact> 0.11194855E-02</totfact>
</mgrwt>
</event>
<event>
 6    1  0.1603085E-006  0.2079601E+04  0.7818608E-02  0.8570283E-01
         -2   -1    0    0    0  501 -0.00000000000E+00  0.00000000000E+00  0.46315539261E+03  0.46315539261E+03  0.00000000000E+00 0.  1.
          2   -1    0    0  501    0  0.00000000000E+00 -0.00000000000E+00 -0.23343885530E+04  0.23343885530E+04  0.00000000000E+00 0. -1.
         23    2    1    2    0    0  0.56409217246E+03 -0.77548217257E+03 -0.14711961905E+04  0.17585048913E+04  0.91370909298E+02 0.  0.
         13    1    3    3    0    0  0.47995067554E+03 -0.61954193710E+03 -0.11494586387E+04  0.13912009290E+04  0.00000000000E+00 0. -1.
        -13    1    3    3    0    0  0.84141496925E+02 -0.15594023547E+03 -0.32173755175E+03  0.36730396234E+03  0.00000000000E+00 0.  1.
         22    1    1    2    0    0 -0.56409217246E+03  0.77548217257E+03 -0.40003696995E+03  0.10390390543E+04  0.00000000000E+00 0. -1.
<mgrwt>
<rscale>  0 0.20796006E+04</rscale>
<asrwt>0</asrwt>
<pdfrwt beam="1">  1        2 0.35913670E+00 0.20796006E+04</pdfrwt>
<pdfrwt beam="2">  1       -2 0.71254676E-01 0.20796006E+04</pdfrwt>
<totfact> 0.71535775E+00</totfact>
</mgrwt>
</event>
<event>
 6    1  0.1603085E-006  0.3163525E+04  0.7818608E-02  0.8198517E-01
         -1   -1    0    0    0  501 -0.00000000000E+00  0.00000000000E+00  0.96804841831E+03  0.96804841831E+03  0.00000000000E+00 0.  1.
          1   -1    0    0  501    0  0.00000000000E+00 -0.00000000000E+00 -0.25845538317E+04  0.25845538317E+04  0.00000000000E+00 0. -1.
         23    2    1    2    0    0 -0.11535656770E+04 -0.10800641246E+04 -0.85771650384E+03  0.17996011394E+04  0.75062478451E+02 0.  0.
         13    1    3    3    0    0 -0.33009984023E+03 -0.27746031968E+03 -0.26167438723E+03  0.50440422128E+03  0.00000000000E+00 0.  1.
        -13    1    3    3    0    0 -0.82346583680E+03 -0.80260380488E+03 -0.59604211660E+03  0.12951969181E+04  0.00000000000E+00 0. -1.
         22    1    1    2    0    0  0.11535656770E+04  0.10800641246E+04 -0.75878890952E+03  0.17530011105E+04  0.00000000000E+00 0. -1.
<mgrwt>
<rscale>  0 0.31635254E+04</rscale>
<asrwt>0</asrwt>
<pdfrwt beam="1">  1        1 0.39762366E+00 0.31635254E+04</pdfrwt>
<pdfrwt beam="2">  1       -1 0.14893053E+00 0.31635254E+04</pdfrwt>
<totfact> 0.35297515E-01</totfact>
</mgrwt>
</event>
<event>
 6    1  0.1603085E-006  0.1970926E+04  0.7818608E-02  0.8620336E-01
          1   -1    0    0  501    0  0.00000000000E+00  0.00000000000E+00  0.19415126963E+04  0.19415126963E+04  0.00000000000E+00 0. -1.
         -1   -1    0    0    0  501 -0.00000000000E+00 -0.00000000000E+00 -0.50019628546E+03  0.50019628546E+03  0.00000000000E+00 0.  1.
         23    2    1    2    0    0 -0.73217632559E+03  0.38487870978E+03  0.13809808069E+04  0.16123392342E+04  0.91192238042E+02 0.  0.
         11    1    3    3    0    0 -0.39957586292E+03  0.16187573141E+03  0.74707047942E+03  0.86254212875E+03  0.00000000000E+00 0. -1.
        -11    1    3    3    0    0 -0.33260046267E+03  0.22300297837E+03  0.63391032746E+03  0.74979710549E+03  0.00000000000E+00 0.  1.
         22    1    1    2    0    0  0.73217632559E+03 -0.38487870978E+03  0.60335603967E+02  0.82936974752E+03  0.00000000000E+00 0.  1.
<mgrwt>
<rscale>  0 0.19709261E+04</rscale>
<asrwt>0</asrwt>
<pdfrwt beam="1">  1        1 0.29869426E+00 0.19709261E+04</pdfrwt>
<pdfrwt beam="2">  1       -1 0.76953276E-01 0.19709261E+04</pdfrwt>
<totfact> 0.51430152E+00</totfact>
</mgrwt>
</event>
<event>
 6    1  0.1603085E-006  0.4781902E+04  0.7818608E-02  0.7863061E-01
          2   -1    0    0  501    0  0.00000000000E+00  0.00000000000E+00  0.28005403177E+04  0.28005403177E+04  0.00000000000E+00 0. -1.
         -2   -1    0    0    0  501 -0.00000000000E+00 -0.00000000000E+00 -0.20412652286E+04  0.20412652286E+04  0.00000000000E+00 0.  1.
         23    2    1    2    0    0  0.18114641475E+03  0.23349537086E+04 -0.10331475256E+03  0.23460323035E+04  0.91491997935E+02 0.  0.
         13    1    3    3    0    0 -0.10855074148E+02  0.13824977196E+03 -0.53585544934E+01  0.13877876707E+03  0.00000000000E+00 0. -1.
        -13    1    3    3    0    0  0.19200148890E+03  0.21967039367E+04 -0.97956198067E+02  0.22072535364E+04  0.00000000000E+00 0.  1.
         22    1    1    2    0    0 -0.18114641475E+03 -0.23349537086E+04  0.86258984164E+03  0.24957732429E+04  0.00000000000E+00 0. -1.
<mgrwt>
<rscale>  0 0.47819015E+04</rscale>
<asrwt>0</asrwt>
<pdfrwt beam="1">  1        2 0.43085235E+00 0.47819015E+04</pdfrwt>
<pdfrwt beam="2">  1       -2 0.31404081E+00 0.47819015E+04</pdfrwt>
<totfact> 0.44593746E-02</totfact>
</mgrwt>
</event>
<event>
 6    1  0.1603085E-006  0.2294078E+04  0.7818608E-02  0.8480260E-01
          2   -1    0    0  501    0  0.00000000000E+00  0.00000000000E+00  0.20475957339E+04  0.20475957339E+04  0.00000000000E+00 0.  1.
         -2   -1    0    0    0  501 -0.00000000000E+00 -0.00000000000E+00 -0.64255746715E+03  0.64255746715E+03  0.00000000000E+00 0. -1.
         23    2    1    2    0    0  0.10326456881E+04  0.29295138427E+03  0.11718539320E+04  0.15917213349E+04  0.90319096602E+02 0.  0.
         11    1    3    3    0    0  0.67083861833E+03  0.21688235100E+03  0.81882826616E+03  0.10805286370E+04  0.00000000000E+00 0. -1.
        -11    1    3    3    0    0  0.36180706976E+03  0.76069033273E+02  0.35302566588E+03  0.51119269783E+03  0.00000000000E+00 0.  1.
         22    1    1    2    0    0 -0.10326456881E+04 -0.29295138427E+03  0.23318433470E+03  0.10984318662E+04  0.00000000000E+00 0. -1.
<mgrwt>
<rscale>  0 0.22940775E+04</rscale>
<asrwt>0</asrwt>
<pdfrwt beam="1">  1        2 0.31501472E+00 0.22940775E+04</pdfrwt>
<pdfrwt beam="2">  1       -2 0.98854996E-01 0.22940775E+04</pdfrwt>
<totfact> 0.48389441E+00</totfact>
</mgrwt>
</event>
<event>
 6    1  0.1603085E-006  0.2342845E+04  0.7818608E-02  0.8461217E-01
         -1   -1    0    0    0  501 -0.00000000000E+00  0.00000000000E+00  0.12474868100E+04  0.12474868100E+04  0.00000000000E+00 0.  1.
          1   -1    0    0  501    0  0.00000000000E+00 -0.00000000000E+00 -0.10999964843E+04  0.10999964843E+04  0.00000000000E+00 0. -1.
         23    2    1    2    0    0  0.11168997223E+03  0.86394280652E+03  0.85586913694E+03  0.12246866239E+04  0.92051748277E+02 0.  0.
         11    1    3    3    0    0  0.22531837904E+01  0.36499051802E+03  0.36868494530E+03  0.51879836543E+03  0.00000000000E+00 0.  1.
        -11    1    3    3    0    0  0.10943678844E+03  0.49895228850E+03  0.48718419164E+03  0.70588825847E+03  0.00000000000E+00 0. -1.
         22    1    1    2    0    0 -0.11168997223E+03 -0.86394280652E+03 -0.70837881124E+03  0.11227966704E+04  0.00000000000E+00 0. -1.
<mgrwt>
<rscale>  0 0.23428454E+04</rscale>
<asrwt>0</asrwt>
<pdfrwt beam="1">  1        1 0.16923023E+00 0.23428454E+04</pdfrwt>
<pdfrwt beam="2">  1       -1 0.19192105E+00 0.23428454E+04</pdfrwt>
<totfact> 0.19559460E+00</totfact>
</mgrwt>
</event>
<event>
 6    1  0.1603085E-006  0.2933778E+04  0.7818608E-02  0.8262898E-01
         -2   -1    0    0    0  501 -0.00000000000E+00  0.00000000000E+00  0.71303697248E+03  0.71303697248E+03  0.00000000000E+00 0.  1.
          2   -1    0    0  501    0  0.00000000000E+00 -0.00000000000E+00 -0.30177441786E+04  0.30177441786E+04  0.00000000000E+00 0. -1.
         23    2    1    2    0    0 -0.14031499065E+04 -0.79835583555E+01 -0.61520030138E+03  0.15345737432E+04  0.86900892319E+02 0.  0.
         13    1    3    3    0    0 -0.70180576769E+02 -0.14253117551E+02 -0.17500089675E+02  0.73720538889E+02  0.00000000000E+00 0. -1.
        -13    1    3    3    0    0 -0.13329693297E+04  0.62695591958E+01 -0.59770021171E+03  0.14608532043E+04  0.00000000000E+00 0.  1.
         22    1    1    2    0    0  0.14031499065E+04  0.79835583555E+01 -0.16895069048E+04  0.21962074079E+04  0.00000000000E+00 0. -1.
<mgrwt>
<rscale>  0 0.29337779E+04</rscale>
<asrwt>0</asrwt>
<pdfrwt beam="1">  1        2 0.46426833E+00 0.29337779E+04</pdfrwt>
<pdfrwt beam="2">  1       -2 0.10969800E+00 0.29337779E+04</pdfrwt>
<totfact> 0.96550331E-01</totfact>
</mgrwt>
</event>
<event>
 6    1  0.1603085E-006  0.6128049E+03  0.7818608E-02  0.9879190E-01
         -2   -1    0    0    0  501 -0.00000000000E+00  0.00000000000E+00  0.54091552766E+02  0.54091552766E+02  0.00000000000E+00 0.  1.
          2   -1    0    0  501    0  0.00000000000E+00 -0.00000000000E+00 -0.17356216954E+04  0.17356216954E+04  0.00000000000E+00 0. -1.
         23    2    1    2    0    0 -0.22488380371E+03  0.16530348725E+03 -0.53868874763E+03  0.61328457537E+03  0.89635012609E+02 0.  0.
         11    1    3    3    0    0 -0.89553395403E+02  0.99358696737E+02 -0.17977995177E+03  0.22408211063E+03  0.00000000000E+00 0. -1.
        -11    1    3    3    0    0 -0.13533040831E+03  0.65944790509E+02 -0.35890879586E+03  0.38920246473E+03  0.00000000000E+00 0.  1.
         22    1    1    2    0    0  0.22488380371E+03 -0.16530348725E+03 -0.11428413950E+04  0.11764286728E+04  0.00000000000E+00 0. -1.
<mgrwt>
<rscale>  0 0.61280494E+03</rscale>
<asrwt>0</asrwt>
<pdfrwt beam="1">  1        2 0.26701876E+00 0.61280494E+03</pdfrwt>
<pdfrwt beam="2">  1       -2 0.83217762E-02 0.61280494E+03</pdfrwt>
<totfact> 0.88675602E+02</totfact>
</mgrwt>
</event>
<event>
 6    1  0.1888513E-006  0.3404674E+04  0.7818608E-02  0.8136760E-01
         -1   -1    0    0    0  501 -0.00000000000E+00  0.00000000000E+00  0.22340460215E+04  0.22340460215E+04  0.00000000000E+00 0.  1.
          1   -1    0    0  501    0  0.00000000000E+00 -0.00000000000E+00 -0.12971761308E+04  0.12971761308E+04  0.00000000000E+00 0. -1.
         23    2    1    2    0    0  0.10713697621E+02 -0.53434400084E+03  0.21437761904E+04  0.22112747628E+04  0.91221858987E+02 0.  0.
         11    1    3    3    0    0 -0.35288411057E+02 -0.18648295321E+03  0.67584407526E+03  0.70198744850E+03  0.00000000000E+00 0. -1.
        -11    1    3    3    0    0  0.46002108678E+02 -0.34786104763E+03  0.14679321152E+04  0.15092873143E+04  0.00000000000E+00 0.  1.
         22    1    1    2    0    0 -0.10713697621E+02  0.53434400084E+03 -0.12069062998E+04  0.13199473895E+04  0.00000000000E+00 0. -1.
<mgrwt>
<rscale>  0 0.34046739E+04</rscale>
<asrwt>0</asrwt>
<pdfrwt beam="1">  1        1 0.19956556E+00 0.34046739E+04</pdfrwt>
<pdfrwt beam="2">  1       -1 0.34369939E+00 0.34046739E+04</pdfrwt>
<totfact> 0.12777887E-01</totfact>
</mgrwt>
</event>
<event>
 6    1  0.1603085E-006  0.9094416E+03  0.7818608E-02  0.9413855E-01
          3   -1    0    0  501    0  0.00000000000E+00  0.00000000000E+00  0.12635944033E+03  0.12635944033E+03  0.00000000000E+00 0. -1.
         -3   -1    0    0    0  501 -0.00000000000E+00 -0.00000000000E+00 -0.16363716819E+04  0.16363716819E+04  0.00000000000E+00 0.  1.
         23    2    1    2    0    0  0.15402576028E+03 -0.38517363230E+03 -0.11006156454E+04  0.11799033305E+04  0.93458057683E+02 0.  0.
         11    1    3    3    0    0  0.14726361001E+03 -0.31470055319E+03 -0.98329283673E+03  0.10428747824E+04  0.00000000000E+00 0. -1.
        -11    1    3    3    0    0  0.67621502704E+01 -0.70473079115E+02 -0.11732280869E+03  0.13702854811E+03  0.00000000000E+00 0.  1.
         22    1    1    2    0    0 -0.15402576028E+03  0.38517363230E+03 -0.40939659611E+03  0.58282779169E+03  0.00000000000E+00 0.  1.
<mgrwt>
<rscale>  0 0.90944161E+03</rscale>
<asrwt>0</asrwt>
<pdfrwt beam="1">  1        3 0.19439916E-01 0.90944161E+03</pdfrwt>
<pdfrwt beam="2">  1       -3 0.25174947E+00 0.90944161E+03</pdfrwt>
<totfact> 0.45847842E+00</totfact>
</mgrwt>
</event>
<event>
 6    1  0.1603085E-006  0.5958584E+03  0.7818608E-02  0.9914036E-01
         -2   -1    0    0    0  501 -0.00000000000E+00  0.00000000000E+00  0.18824516155E+03  0.18824516155E+03  0.00000000000E+00 0.  1.
          2   -1    0    0  501    0  0.00000000000E+00 -0.00000000000E+00 -0.47152242679E+03  0.47152242679E+03  0.00000000000E+00 0. -1.
         23    2    1    2    0    0  0.26935815106E+02 -0.14644844447E+03 -0.42146554551E+03  0.45662063211E+03  0.93255083458E+02 0.  0.
         11    1    3    3    0    0  0.56910719745E+01 -0.78332830877E+02 -0.33709837555E+03  0.34612676217E+03  0.00000000000E+00 0.  1.
        -11    1    3    3    0    0  0.21244743131E+02 -0.68115613594E+02 -0.84367169955E+02  0.11049386993E+03  0.00000000000E+00 0. -1.
         22    1    1    2    0    0 -0.26935815106E+02  0.14644844447E+03  0.13818828027E+03  0.20314695624E+03  0.00000000000E+00 0.  1.
<mgrwt>
<rscale>  0 0.59585842E+03</rscale>
<asrwt>0</asrwt>
<pdfrwt beam="1">  1        2 0.72541911E-01 0.59585842E+03</pdfrwt>
<pdfrwt beam="2">  1       -2 0.28960794E-01 0.59585842E+03</pdfrwt>
<totfact> 0.72533118E+02</totfact>
</mgrwt>
</event>
<event>
 6    1  0.1603085E-006  0.2582510E+04  0.7818608E-02  0.8374166E-01
         -1   -1    0    0    0  501 -0.00000000000E+00  0.00000000000E+00  0.40558256631E+03  0.40558256631E+03  0.00000000000E+00 0.  1.
          1   -1    0    0  501    0  0.00000000000E+00 -0.00000000000E+00 -0.41109757856E+04  0.41109757856E+04  0.00000000000E+00 0. -1.
         23    2    1    2    0    0 -0.70686019935E+03 -0.77313119237E+03 -0.31706243728E+04  0.33403947148E+04  0.89413396757E+02 0.  0.
         13    1    3    3    0    0 -0.44318654630E+03 -0.42587251702E+03 -0.19149963568E+04  0.20112167368E+04  0.00000000000E+00 0.  1.
        -13    1    3    3    0    0 -0.26367365305E+03 -0.34725867534E+03 -0.12556280159E+04  0.13291779781E+04  0.00000000000E+00 0. -1.
         22    1    1    2    0    0  0.70686019935E+03  0.77313119237E+03 -0.53476884651E+03  0.11761636371E+04  0.00000000000E+00 0.  1.
<mgrwt>
<rscale>  0 0.25825105E+04</rscale>
<asrwt>0</asrwt>
<pdfrwt beam="1">  1        1 0.63245780E+00 0.25825105E+04</pdfrwt>
<pdfrwt beam="2">  1       -1 0.62397320E-01 0.25825105E+04</pdfrwt>
<totfact> 0.17586931E-01</totfact>
</mgrwt>
</event>
<event>
 6    1  0.1603085E-006  0.9241377E+03  0.7818608E-02  0.9395901E-01
         -1   -1    0    0    0  501 -0.00000000000E+00  0.00000000000E+00  0.38445623459E+03  0.38445623459E+03  0.00000000000E+00 0. -1.
          1   -1    0    0  501    0  0.00000000000E+00 -0.00000000000E+00 -0.55534960394E+03  0.55534960394E+03  0.00000000000E+00 0.  1.
         23    2    1    2    0    0  0.20453051633E+03  0.36773104695E+03  0.98058691655E+02  0.44041214001E+03  0.85372659925E+02 0.  0.
         13    1    3    3    0    0  0.50513865752E+02  0.15581035127E+03  0.10260678686E+02  0.16411519651E+03  0.00000000000E+00 0.  1.
        -13    1    3    3    0    0  0.15401665058E+03  0.21192069568E+03  0.87798012969E+02  0.27629694351E+03  0.00000000000E+00 0. -1.
         22    1    1    2    0    0 -0.20453051633E+03 -0.36773104695E+03 -0.26895206100E+03  0.49939369851E+03  0.00000000000E+00 0.  1.
<mgrwt>
<rscale>  0 0.92413769E+03</rscale>
<asrwt>0</asrwt>
<pdfrwt beam="1">  1        1 0.85438400E-01 0.92413769E+03</pdfrwt>
<pdfrwt beam="2">  1       -1 0.59147113E-01 0.92413769E+03</pdfrwt>
<totfact> 0.11162495E+02</totfact>
</mgrwt>
</event>
<event>
 6    1  0.3814822E-006  0.4309168E+04  0.7818608E-02  0.7944925E-01
          1   -1    0    0  501    0  0.00000000000E+00  0.00000000000E+00  0.28311991591E+04  0.28311991591E+04  0.00000000000E+00 0. -1.
         -1   -1    0    0    0  501 -0.00000000000E+00 -0.00000000000E+00 -0.16396702909E+04  0.16396702909E+04  0.00000000000E+00 0.  1.
         23    2    1    2    0    0  0.12678601624E+04 -0.28635783852E+03  0.23776084528E+04  0.27112515982E+04  0.91613705290E+02 0.  0.
         13    1    3    3    0    0  0.51488225262E+03 -0.13132910544E+03  0.88408209698E+03  0.10314805971E+04  0.00000000000E+00 0.  1.
        -13    1    3    3    0    0  0.75297790974E+03 -0.15502873308E+03  0.14935263558E+04  0.16797710011E+04  0.00000000000E+00 0. -1.
         22    1    1    2    0    0 -0.12678601624E+04  0.28635783852E+03 -0.11860795847E+04  0.17596178517E+04  0.00000000000E+00 0.  1.
<mgrwt>
<rscale>  0 0.43091684E+04</rscale>
<asrwt>0</asrwt>
<pdfrwt beam="1">  1        1 0.43556910E+00 0.43091684E+04</pdfrwt>
<pdfrwt beam="2">  1       -1 0.25225697E+00 0.43091684E+04</pdfrwt>
<totfact> 0.40711794E-02</totfact>
</mgrwt>
</event>
<event>
 6    1  0.1603085E-006  0.2551416E+04  0.7818608E-02  0.8384894E-01
         -2   -1    0    0    0  501 -0.00000000000E+00  0.00000000000E+00  0.69581113054E+03  0.69581113054E+03  0.00000000000E+00 0.  1.
          2   -1    0    0  501    0  0.00000000000E+00 -0.00000000000E+00 -0.23388978671E+04  0.23388978671E+04  0.00000000000E+00 0. -1.
         23    2    1    2    0    0 -0.75534630888E+03  0.61411047518E+03 -0.18002819690E+04  0.20486105932E+04  0.90058162914E+02 0.  0.
         11    1    3    3    0    0 -0.66412689296E+03  0.55155580309E+03 -0.16476463774E+04  0.18601120715E+04  0.00000000000E+00 0. -1.
        -11    1    3    3    0    0 -0.91219415921E+02  0.62554672082E+02 -0.15263559163E+03  0.18849852167E+03  0.00000000000E+00 0.  1.
         22    1    1    2    0    0  0.75534630888E+03 -0.61411047518E+03  0.15719523244E+03  0.98609840440E+03  0.00000000000E+00 0.  1.
<mgrwt>
<rscale>  0 0.25514162E+04</rscale>
<asrwt>0</asrwt>
<pdfrwt beam="1">  1        2 0.35983044E+00 0.25514162E+04</pdfrwt>
<pdfrwt beam="2">  1       -2 0.10704787E+00 0.25514162E+04</pdfrwt>
<totfact> 0.26844520E+00</totfact>
</mgrwt>
</event>
<event>
 6    1  0.1603085E-006  0.3952554E+04  0.7818608E-02  0.8014187E-01
         -2   -1    0    0    0  501 -0.00000000000E+00  0.00000000000E+00  0.19209339494E+04  0.19209339494E+04  0.00000000000E+00 0.  1.
          2   -1    0    0  501    0  0.00000000000E+00 -0.00000000000E+00 -0.20332150189E+04  0.20332150189E+04  0.00000000000E+00 0. -1.
         23    2    1    2    0    0 -0.64041886646E+03 -0.15143354220E+04  0.10382961094E+04  0.19473664840E+04  0.10406400570E+03 0.  0.
         11    1    3    3    0    0 -0.38559042356E+03 -0.10156585727E+04  0.65162975032E+03  0.12668321288E+04  0.00000000000E+00 0.  1.
        -11    1    3    3    0    0 -0.25482844291E+03 -0.49867684927E+03  0.38666635910E+03  0.68053435518E+03  0.00000000000E+00 0. -1.
         22    1    1    2    0    0  0.64041886646E+03  0.15143354220E+04 -0.11505771789E+04  0.20067824843E+04  0.00000000000E+00 0. -1.
<mgrwt>
<rscale>  0 0.39525545E+04</rscale>
<asrwt>0</asrwt>
<pdfrwt beam="1">  1        2 0.31280231E+00 0.39525545E+04</pdfrwt>
<pdfrwt beam="2">  1       -2 0.29552830E+00 0.39525545E+04</pdfrwt>
<totfact> 0.17163652E-01</totfact>
</mgrwt>
</event>
<event>
 6    1  0.1603085E-006  0.2527298E+04  0.7818608E-02  0.8393325E-01
         -2   -1    0    0    0  501 -0.00000000000E+00  0.00000000000E+00  0.21720508476E+04  0.21720508476E+04  0.00000000000E+00 0.  1.
          2   -1    0    0  501    0  0.00000000000E+00 -0.00000000000E+00 -0.73516160089E+03  0.73516160089E+03  0.00000000000E+00 0. -1.
         23    2    1    2    0    0 -0.27848830042E+03  0.32822430152E+03 -0.64557503361E+03  0.78072604965E+03  0.86481876714E+02 0.  0.
         13    1    3    3    0    0 -0.11380619136E+03  0.17165289166E+03 -0.24383099028E+03  0.31917098275E+03  0.00000000000E+00 0. -1.
        -13    1    3    3    0    0 -0.16468210906E+03  0.15657140986E+03 -0.40174404334E+03  0.46155506691E+03  0.00000000000E+00 0.  1.
         22    1    1    2    0    0  0.27848830042E+03 -0.32822430152E+03  0.20824642803E+04  0.21264863988E+04  0.00000000000E+00 0.  1.
<mgrwt>
<rscale>  0 0.25272977E+04</rscale>
<asrwt>0</asrwt>
<pdfrwt beam="1">  1        2 0.11310179E+00 0.25272977E+04</pdfrwt>
<pdfrwt beam="2">  1       -2 0.33416167E+00 0.25272977E+04</pdfrwt>
<totfact> 0.66995693E-01</totfact>
</mgrwt>
</event>
<event>
 6    1  0.1603085E-006  0.5174750E+04  0.7818608E-02  0.7802102E-01
         -1   -1    0    0    0  501 -0.00000000000E+00  0.00000000000E+00  0.35866938507E+04  0.35866938507E+04  0.00000000000E+00 0.  1.
          1   -1    0    0  501    0  0.00000000000E+00 -0.00000000000E+00 -0.18664848586E+04  0.18664848586E+04  0.00000000000E+00 0. -1.
         23    2    1    2    0    0 -0.10114125752E+04 -0.22183403527E+04  0.17708134681E+04  0.30146237825E+04  0.90481454942E+02 0.  0.
         11    1    3    3    0    0 -0.32605665539E+03 -0.63951502176E+03  0.48832794436E+03  0.86819156113E+03  0.00000000000E+00 0. -1.
        -11    1    3    3    0    0 -0.68535591978E+03 -0.15788253310E+04  0.12824855237E+04  0.21464322214E+04  0.00000000000E+00 0.  1.
         22    1    1    2    0    0  0.10114125752E+04  0.22183403527E+04 -0.50604475949E+02  0.24385549267E+04  0.00000000000E+00 0. -1.
<mgrwt>
<rscale>  0 0.51747501E+04</rscale>
<asrwt>0</asrwt>
<pdfrwt beam="1">  1        1 0.28715152E+00 0.51747501E+04</pdfrwt>
<pdfrwt beam="2">  1       -1 0.55179905E+00 0.51747501E+04</pdfrwt>
<totfact> 0.19422032E-03</totfact>
</mgrwt>
</event>
<event>
 6    1  0.1603085E-006  0.1227050E+04  0.7818608E-02  0.9089504E-01
         -2   -1    0    0    0  501 -0.00000000000E+00  0.00000000000E+00  0.72517079681E+03  0.72517079681E+03  0.00000000000E+00 0.  1.
          2   -1    0    0  501    0  0.00000000000E+00 -0.00000000000E+00 -0.51906787536E+03  0.51906787536E+03  0.00000000000E+00 0. -1.
         23    2    1    2    0    0  0.12091176776E+03  0.37355109524E+03 -0.36975608692E+03  0.54726401420E+03  0.92834589910E+02 0.  0.
         13    1    3    3    0    0 -0.11563752520E+02  0.64904801009E+02 -0.43281803545E+02  0.78864872310E+02  0.00000000000E+00 0. -1.
        -13    1    3    3    0    0  0.13247552028E+03  0.30864629423E+03 -0.32647428338E+03  0.46839914189E+03  0.00000000000E+00 0.  1.
         22    1    1    2    0    0 -0.12091176776E+03 -0.37355109524E+03  0.57585900836E+03  0.69697465797E+03  0.00000000000E+00 0.  1.
<mgrwt>
<rscale>  0 0.12270499E+04</rscale>
<asrwt>0</asrwt>
<pdfrwt beam="1">  1        2 0.79856596E-01 0.12270499E+04</pdfrwt>
<pdfrwt beam="2">  1       -2 0.11156474E+00 0.12270499E+04</pdfrwt>
<totfact> 0.36858731E+01</totfact>
</mgrwt>
</event>
<event>
 6    1  0.1603085E-006  0.7171873E+03  0.7818608E-02  0.9688283E-01
         -1   -1    0    0    0  501 -0.00000000000E+00  0.00000000000E+00  0.59332099750E+03  0.59332099750E+03  0.00000000000E+00 0.  1.
          1   -1    0    0  501    0  0.00000000000E+00 -0.00000000000E+00 -0.21672819685E+03  0.21672819685E+03  0.00000000000E+00 0. -1.
         23    2    1    2    0    0  0.17996727884E+03  0.13907999799E+03  0.49607203442E+03  0.55313139700E+03  0.90196517273E+02 0.  0.
         13    1    3    3    0    0  0.79312271411E+02  0.85758915828E+02  0.34288672165E+03  0.36223794932E+03  0.00000000000E+00 0.  1.
        -13    1    3    3    0    0  0.10065500743E+03  0.53321082159E+02  0.15318531276E+03  0.19089344768E+03  0.00000000000E+00 0. -1.
         22    1    1    2    0    0 -0.17996727884E+03 -0.13907999799E+03 -0.11947923377E+03  0.25691779735E+03  0.00000000000E+00 0. -1.
<mgrwt>
<rscale>  0 0.71718726E+03</rscale>
<asrwt>0</asrwt>
<pdfrwt beam="1">  1        1 0.33342800E-01 0.71718726E+03</pdfrwt>
<pdfrwt beam="2">  1       -1 0.91280153E-01 0.71718726E+03</pdfrwt>
<totfact> 0.15918916E+02</totfact>
</mgrwt>
</event>
<event>
 6    1  0.1603085E-006  0.5253520E+04  0.7818608E-02  0.7790547E-01
          2   -1    0    0  501    0  0.00000000000E+00  0.00000000000E+00  0.37474400764E+04  0.37474400764E+04  0.00000000000E+00 0. -1.
         -2   -1    0    0    0  501 -0.00000000000E+00 -0.00000000000E+00 -0.18412216348E+04  0.18412216348E+04  0.00000000000E+00 0.  1.
         23    2    1    2    0    0 -0.33697442763E+03 -0.22706071106E+04 -0.40320333515E+03  0.23324925881E+04  0.93489724547E+02 0.  0.
         13    1    3    3    0    0 -0.12422051862E+03 -0.79433342180E+03 -0.96482361502E+02  0.80975624006E+03  0.00000000000E+00 0.  1.
        -13    1    3    3    0    0 -0.21275390901E+03 -0.14762736888E+04 -0.30672097364E+03  0.15227363481E+04  0.00000000000E+00 0. -1.
         22    1    1    2    0    0  0.33697442763E+03  0.22706071106E+04  0.23094217767E+04  0.32561691231E+04  0.00000000000E+00 0. -1.
<mgrwt>
<rscale>  0 0.52535199E+04</rscale>
<asrwt>0</asrwt>
<pdfrwt beam="1">  1        2 0.57652924E+00 0.52535199E+04</pdfrwt>
<pdfrwt beam="2">  1       -2 0.28326487E+00 0.52535199E+04</pdfrwt>
<totfact> 0.15395635E-02</totfact>
</mgrwt>
</event>
<event>
 6    1  0.1840740E-006  0.2142203E+04  0.7818608E-02  0.8542877E-01
         -1   -1    0    0    0  501 -0.00000000000E+00  0.00000000000E+00  0.57223259720E+03  0.57223259720E+03  0.00000000000E+00 0.  1.
          1   -1    0    0  501    0  0.00000000000E+00 -0.00000000000E+00 -0.20048814615E+04  0.20048814615E+04  0.00000000000E+00 0. -1.
         23    2    1    2    0    0  0.13706393133E+03 -0.68407925480E+02 -0.19905981875E+04  0.19985178154E+04  0.90145153982E+02 0.  0.
         13    1    3    3    0    0  0.50971473264E+02  0.17553536226E+02 -0.76454514578E+03  0.76644340799E+03  0.00000000000E+00 0.  1.
        -13    1    3    3    0    0  0.86092458069E+02 -0.85961461706E+02 -0.12260530417E+04  0.12320744074E+04  0.00000000000E+00 0. -1.
         22    1    1    2    0    0 -0.13706393133E+03  0.68407925480E+02  0.55794932319E+03  0.57859624333E+03  0.00000000000E+00 0.  1.
<mgrwt>
<rscale>  0 0.21422031E+04</rscale>
<asrwt>0</asrwt>
<pdfrwt beam="1">  1        1 0.30844330E+00 0.21422031E+04</pdfrwt>
<pdfrwt beam="2">  1       -1 0.88035784E-01 0.21422031E+04</pdfrwt>
<totfact> 0.34358941E+00</totfact>
</mgrwt>
</event>
<event>
 6    1  0.1603085E-006  0.1886115E+04  0.7818608E-02  0.8661799E-01
         -1   -1    0    0    0  501 -0.00000000000E+00  0.00000000000E+00  0.55852457480E+03  0.55852457480E+03  0.00000000000E+00 0.  1.
          1   -1    0    0  501    0  0.00000000000E+00 -0.00000000000E+00 -0.15923332958E+04  0.15923332958E+04  0.00000000000E+00 0. -1.
         23    2    1    2    0    0 -0.20368837921E+03 -0.71180648557E+03  0.14397778999E+03  0.75969343238E+03  0.90813426670E+02 0.  0.
         11    1    3    3    0    0 -0.29818487667E+02 -0.16844864987E+03  0.68296908398E+02  0.18419706172E+03  0.00000000000E+00 0. -1.
        -11    1    3    3    0    0 -0.17386989154E+03 -0.54335783570E+03  0.75680881588E+02  0.57549637065E+03  0.00000000000E+00 0.  1.
         22    1    1    2    0    0  0.20368837921E+03  0.71180648557E+03 -0.11777865110E+04  0.13911644382E+04  0.00000000000E+00 0. -1.
<mgrwt>
<rscale>  0 0.18861148E+04</rscale>
<asrwt>0</asrwt>
<pdfrwt beam="1">  1        1 0.24497435E+00 0.18861148E+04</pdfrwt>
<pdfrwt beam="2">  1       -1 0.85926858E-01 0.18861148E+04</pdfrwt>
<totfact> 0.70742303E+00</totfact>
</mgrwt>
</event>
<event>
 6    1  0.1603085E-006  0.1856951E+04  0.7818608E-02  0.8676586E-01
          1   -1    0    0  501    0  0.00000000000E+00  0.00000000000E+00  0.47069310932E+03  0.47069310932E+03  0.00000000000E+00 0. -1.
         -1   -1    0    0    0  501 -0.00000000000E+00 -0.00000000000E+00 -0.18314840136E+04  0.18314840136E+04  0.00000000000E+00 0.  1.
         23    2    1    2    0    0  0.39433700401E+03  0.29884035282E+03 -0.16528016608E+04  0.17276533974E+04  0.90695657210E+02 0.  0.
         13    1    3    3    0    0  0.17647204180E+03  0.16898238841E+03 -0.93350901577E+03  0.96495415003E+03  0.00000000000E+00 0. -1.
        -13    1    3    3    0    0  0.21786496220E+03  0.12985796442E+03 -0.71929264505E+03  0.76269924735E+03  0.00000000000E+00 0.  1.
         22    1    1    2    0    0 -0.39433700401E+03 -0.29884035282E+03  0.29201075659E+03  0.57452372550E+03  0.00000000000E+00 0. -1.
<mgrwt>
<rscale>  0 0.18569512E+04</rscale>
<asrwt>0</asrwt>
<pdfrwt beam="1">  1        1 0.72414325E-01 0.18569512E+04</pdfrwt>
<pdfrwt beam="2">  1       -1 0.28176677E+00 0.18569512E+04</pdfrwt>
<totfact> 0.19616978E+00</totfact>
</mgrwt>
</event>
<event>
 6    1  0.1603085E-006  0.1463733E+04  0.7818608E-02  0.8908935E-01
          3   -1    0    0  501    0  0.00000000000E+00  0.00000000000E+00  0.63131378294E+03  0.63131378294E+03  0.00000000000E+00 0. -1.
         -3   -1    0    0    0  501 -0.00000000000E+00 -0.00000000000E+00 -0.84843494714E+03  0.84843494714E+03  0.00000000000E+00 0.  1.
         23    2    1    2    0    0 -0.26351455182E+03  0.14723908130E+03 -0.77983522553E+03  0.84118285180E+03  0.91248808725E+02 0.  0.
         11    1    3    3    0    0 -0.14466875413E+03  0.41057292523E+02 -0.30013883527E+03  0.33570533229E+03  0.00000000000E+00 0. -1.
        -11    1    3    3    0    0 -0.11884579769E+03  0.10618178878E+03 -0.47969639026E+03  0.50547751951E+03  0.00000000000E+00 0.  1.
         22    1    1    2    0    0  0.26351455182E+03 -0.14723908130E+03  0.56271406133E+03  0.63856587828E+03  0.00000000000E+00 0. -1.
<mgrwt>
<rscale>  0 0.14637331E+04</rscale>
<asrwt>0</asrwt>
<pdfrwt beam="1">  1        3 0.97125198E-01 0.14637331E+04</pdfrwt>
<pdfrwt beam="2">  1       -3 0.13052845E+00 0.14637331E+04</pdfrwt>
<totfact> 0.10916612E+00</totfact>
</mgrwt>
</event>
<event>
 6    1  0.1603085E-006  0.1661725E+04  0.7818608E-02  0.8783500E-01
          1   -1    0    0  501    0  0.00000000000E+00  0.00000000000E+00  0.10256400587E+04  0.10256400587E+04  0.00000000000E+00 0. -1.
         -1   -1    0    0    0  501 -0.00000000000E+00 -0.00000000000E+00 -0.67307467181E+03  0.67307467181E+03  0.00000000000E+00 0.  1.
         23    2    1    2    0    0  0.36042538129E+03 -0.72722693458E+03  0.34587695200E+03  0.88704348853E+03  0.91922873929E+02 0.  0.
         11    1    3    3    0    0  0.26262188642E+03 -0.44360314187E+03  0.24267149632E+03  0.56977491857E+03  0.00000000000E+00 0. -1.
        -11    1    3    3    0    0  0.97803494879E+02 -0.28362379271E+03  0.10320545568E+03  0.31726856996E+03  0.00000000000E+00 0.  1.
         22    1    1    2    0    0 -0.36042538129E+03  0.72722693458E+03  0.66884348661E+01  0.81167124196E+03  0.00000000000E+00 0. -1.
<mgrwt>
<rscale>  0 0.16617248E+04</rscale>
<asrwt>0</asrwt>
<pdfrwt beam="1">  1        1 0.15779078E+00 0.16617248E+04</pdfrwt>
<pdfrwt beam="2">  1       -1 0.10354995E+00 0.16617248E+04</pdfrwt>
<totfact> 0.12134068E+01</totfact>
</mgrwt>
</event>
<event>
 6    1  0.1603085E-006  0.1948646E+04  0.7818608E-02  0.8631014E-01
          2   -1    0    0  501    0  0.00000000000E+00  0.00000000000E+00  0.34788071359E+04  0.34788071359E+04  0.00000000000E+00 0. -1.
         -2   -1    0    0    0  501 -0.00000000000E+00 -0.00000000000E+00 -0.27288236621E+03  0.27288236621E+03  0.00000000000E+00 0.  1.
         23    2    1    2    0    0  0.93708277567E+02 -0.78477903307E+03  0.26962291802E+04  0.28112380329E+04  0.93531348848E+02 0.  0.
         11    1    3    3    0    0  0.37452172254E+02 -0.84635554382E+02  0.27294132198E+03  0.28820618924E+03  0.00000000000E+00 0. -1.
        -11    1    3    3    0    0  0.56256105313E+02 -0.70014347869E+03  0.24232878582E+04  0.25230318436E+04  0.00000000000E+00 0.  1.
         22    1    1    2    0    0 -0.93708277567E+02  0.78477903307E+03  0.50969558946E+03  0.94045146922E+03  0.00000000000E+00 0.  1.
<mgrwt>
<rscale>  0 0.19486458E+04</rscale>
<asrwt>0</asrwt>
<pdfrwt beam="1">  1        2 0.53520107E+00 0.19486458E+04</pdfrwt>
<pdfrwt beam="2">  1       -2 0.41981905E-01 0.19486458E+04</pdfrwt>
<totfact> 0.42453159E+00</totfact>
</mgrwt>
</event>
<event>
 6    1  0.1603085E-006  0.3839391E+04  0.7818608E-02  0.8037754E-01
         -2   -1    0    0    0  501 -0.00000000000E+00  0.00000000000E+00  0.17324129489E+04  0.17324129489E+04  0.00000000000E+00 0. -1.
          2   -1    0    0  501    0  0.00000000000E+00 -0.00000000000E+00 -0.21272240492E+04  0.21272240492E+04  0.00000000000E+00 0.  1.
         23    2    1    2    0    0 -0.13773660857E+04  0.12357403543E+04 -0.70723433622E+03  0.19829910977E+04  0.88779107191E+02 0.  0.
         11    1    3    3    0    0 -0.37679368772E+03  0.34782581635E+03 -0.15450469118E+03  0.53556323737E+03  0.00000000000E+00 0.  1.
        -11    1    3    3    0    0 -0.10005723979E+04  0.88791453798E+03 -0.55272964504E+03  0.14474278603E+04  0.00000000000E+00 0. -1.
         22    1    1    2    0    0  0.13773660857E+04 -0.12357403543E+04  0.31242323594E+03  0.18766459004E+04  0.00000000000E+00 0.  1.
<mgrwt>
<rscale>  0 0.38393908E+04</rscale>
<asrwt>0</asrwt>
<pdfrwt beam="1">  1        2 0.32726524E+00 0.38393908E+04</pdfrwt>
<pdfrwt beam="2">  1       -2 0.26652507E+00 0.38393908E+04</pdfrwt>
<totfact> 0.23079249E-01</totfact>
</mgrwt>
</event>
<event>
 6    1  0.1603085E-006  0.3206602E+04  0.7818608E-02  0.8187076E-01
         -3   -1    0    0    0  501 -0.00000000000E+00  0.00000000000E+00  0.19556539322E+04  0.19556539322E+04  0.00000000000E+00 0.  1.
          3   -1    0    0  501    0  0.00000000000E+00 -0.00000000000E+00 -0.13144319605E+04  0.13144319605E+04  0.00000000000E+00 0. -1.
         23    2    1    2    0    0 -0.28822731959E+03  0.71247569050E+03 -0.11124950781E+04  0.13553482898E+04  0.92882131739E+02 0.  0.
         11    1    3    3    0    0 -0.12844655702E+02  0.36739122729E+02 -0.10001915282E+03  0.10732464418E+03  0.00000000000E+00 0. -1.
        -11    1    3    3    0    0 -0.27538266389E+03  0.67573656777E+03 -0.10124759253E+04  0.12480236456E+04  0.00000000000E+00 0.  1.
         22    1    1    2    0    0  0.28822731959E+03 -0.71247569050E+03  0.17537170499E+04  0.19147376030E+04  0.00000000000E+00 0.  1.
<mgrwt>
<rscale>  0 0.32066020E+04</rscale>
<asrwt>0</asrwt>
<pdfrwt beam="1">  1        3 0.20222030E+00 0.32066020E+04</pdfrwt>
<pdfrwt beam="2">  1       -3 0.30086984E+00 0.32066020E+04</pdfrwt>
<totfact> 0.11678430E-02</totfact>
</mgrwt>
</event>
<event>
 6    1  0.1603085E-006  0.9421450E+03  0.7818608E-02  0.9374379E-01
          2   -1    0    0  501    0  0.00000000000E+00  0.00000000000E+00  0.77562975020E+03  0.77562975020E+03  0.00000000000E+00 0. -1.
         -2   -1    0    0    0  501 -0.00000000000E+00 -0.00000000000E+00 -0.28610209973E+03  0.28610209973E+03  0.00000000000E+00 0.  1.
         23    2    1    2    0    0 -0.40575574927E+03  0.13572353892E+03  0.36653692981E+02  0.43871224473E+03  0.89812768484E+02 0.  0.
         13    1    3    3    0    0 -0.20775362203E+03  0.11624384414E+03  0.14112549545E+02  0.23848136787E+03  0.00000000000E+00 0. -1.
        -13    1    3    3    0    0 -0.19800212724E+03  0.19479694786E+02  0.22541143437E+02  0.20023087686E+03  0.00000000000E+00 0.  1.
         22    1    1    2    0    0  0.40575574927E+03 -0.13572353892E+03  0.45287395749E+03  0.62301960519E+03  0.00000000000E+00 0. -1.
<mgrwt>
<rscale>  0 0.94214500E+03</rscale>
<asrwt>0</asrwt>
<pdfrwt beam="1">  1        2 0.11932765E+00 0.94214500E+03</pdfrwt>
<pdfrwt beam="2">  1       -2 0.44015708E-01 0.94214500E+03</pdfrwt>
<totfact> 0.17580683E+02</totfact>
</mgrwt>
</event>
<event>
 6    1  0.1603085E-006  0.1514641E+04  0.7818608E-02  0.8874775E-01
          1   -1    0    0  501    0  0.00000000000E+00  0.00000000000E+00  0.14188517446E+04  0.14188517446E+04  0.00000000000E+00 0. -1.
         -1   -1    0    0    0  501 -0.00000000000E+00 -0.00000000000E+00 -0.40422407438E+03  0.40422407438E+03  0.00000000000E+00 0.  1.
         23    2    1    2    0    0 -0.36400332090E+03 -0.92958823136E+01 -0.28543383755E+03  0.47298517202E+03  0.98273426122E+02 0.  0.
         13    1    3    3    0    0 -0.14348696206E+03  0.21436936021E+02 -0.62685941714E+02  0.15804296187E+03  0.00000000000E+00 0. -1.
        -13    1    3    3    0    0 -0.22051635884E+03 -0.30732818335E+02 -0.22274789583E+03  0.31494221015E+03  0.00000000000E+00 0.  1.
         22    1    1    2    0    0  0.36400332090E+03  0.92958823136E+01  0.13000615078E+04  0.13500906470E+04  0.00000000000E+00 0. -1.
<mgrwt>
<rscale>  0 0.15146406E+04</rscale>
<asrwt>0</asrwt>
<pdfrwt beam="1">  1        1 0.21828488E+00 0.15146406E+04</pdfrwt>
<pdfrwt beam="2">  1       -1 0.62188320E-01 0.15146406E+04</pdfrwt>
<totfact> 0.18883107E+01</totfact>
</mgrwt>
</event>
<event>
 6    1  0.1603085E-006  0.1689590E+04  0.7818608E-02  0.8767324E-01
          2   -1    0    0  501    0  0.00000000000E+00  0.00000000000E+00  0.22598503997E+04  0.22598503997E+04  0.00000000000E+00 0. -1.
         -2   -1    0    0    0  501 -0.00000000000E+00 -0.00000000000E+00 -0.31580802058E+03  0.31580802058E+03  0.00000000000E+00 0.  1.
         23    2    1    2    0    0 -0.76779672826E+03 -0.13365861831E+03  0.14625182008E+04  0.16595569104E+04  0.88279152793E+02 0.  0.
         13    1    3    3    0    0 -0.15553197741E+03 -0.63653412834E+02  0.30850741790E+03  0.35131009075E+03  0.00000000000E+00 0. -1.
        -13    1    3    3    0    0 -0.61226475085E+03 -0.70005205478E+02  0.11540107829E+04  0.13082468196E+04  0.00000000000E+00 0.  1.
         22    1    1    2    0    0  0.76779672826E+03  0.13365861831E+03  0.48152417826E+03  0.91610150989E+03  0.00000000000E+00 0.  1.
<mgrwt>
<rscale>  0 0.16895903E+04</rscale>
<asrwt>0</asrwt>
<pdfrwt beam="1">  1        2 0.34766928E+00 0.16895903E+04</pdfrwt>
<pdfrwt beam="2">  1       -2 0.48585851E-01 0.16895903E+04</pdfrwt>
<totfact> 0.18266837E+01</totfact>
</mgrwt>
</event>
<event>
 6    1  0.1603085E-006  0.1584418E+04  0.7818608E-02  0.8830178E-01
          2   -1    0    0  501    0  0.00000000000E+00  0.00000000000E+00  0.27283438814E+04  0.27283438814E+04  0.00000000000E+00 0. -1.
         -2   -1    0    0    0  501 -0.00000000000E+00 -0.00000000000E+00 -0.23002780049E+03  0.23002780049E+03  0.00000000000E+00 0.  1.
         23    2    1    2    0    0  0.57678583535E+03 -0.53010790974E+03  0.10693375946E+04  0.13287472435E+04  0.91597216607E+02 0.  0.
         13    1    3    3    0    0  0.48072474024E+03 -0.39526667178E+03  0.81954782977E+03  0.10290727200E+04  0.00000000000E+00 0. -1.
        -13    1    3    3    0    0  0.96061095107E+02 -0.13484123796E+03  0.24978976486E+03  0.29967452357E+03  0.00000000000E+00 0.  1.
         22    1    1    2    0    0 -0.57678583535E+03  0.53010790974E+03  0.14289784863E+04  0.16296244384E+04  0.00000000000E+00 0. -1.
<mgrwt>
<rscale>  0 0.15844178E+04</rscale>
<asrwt>0</asrwt>
<pdfrwt beam="1">  1        2 0.41974519E+00 0.15844178E+04</pdfrwt>
<pdfrwt beam="2">  1       -2 0.35388894E-01 0.15844178E+04</pdfrwt>
<totfact> 0.18460112E+01</totfact>
</mgrwt>
</event>
<event>
 6    1  0.1603085E-006  0.1349870E+04  0.7818608E-02  0.8990927E-01
          2   -1    0    0  501    0  0.00000000000E+00  0.00000000000E+00  0.37636214980E+04  0.37636214980E+04  0.00000000000E+00 0. -1.
         -2   -1    0    0    0  501 -0.00000000000E+00 -0.00000000000E+00 -0.12103686844E+03  0.12103686844E+03  0.00000000000E+00 0.  1.
         23    2    1    2    0    0  0.63094121242E+03  0.16205376399E+03  0.13577036928E+04  0.15087313619E+04  0.92535230293E+02 0.  0.
         13    1    3    3    0    0  0.18852623690E+03  0.11894068494E+02  0.44382015747E+03  0.48234836274E+03  0.00000000000E+00 0. -1.
        -13    1    3    3    0    0  0.44241497552E+03  0.15015969549E+03  0.91388353537E+03  0.10263829991E+04  0.00000000000E+00 0.  1.
         22    1    1    2    0    0 -0.63094121242E+03 -0.16205376399E+03  0.22848809367E+04  0.23759270045E+04  0.00000000000E+00 0. -1.
<mgrwt>
<rscale>  0 0.13498696E+04</rscale>
<asrwt>0</asrwt>
<pdfrwt beam="1">  1        2 0.57901860E+00 0.13498696E+04</pdfrwt>
<pdfrwt beam="2">  1       -2 0.18621060E-01 0.13498696E+04</pdfrwt>
<totfact> 0.12691469E+01</totfact>
</mgrwt>
</event>
<event>
 6    1  0.1603085E-006  0.8895334E+03  0.7818608E-02  0.9438761E-01
         -2   -1    0    0    0  501 -0.00000000000E+00  0.00000000000E+00  0.65678418340E+02  0.65678418340E+02  0.00000000000E+00 0.  1.
          2   -1    0    0  501    0  0.00000000000E+00 -0.00000000000E+00 -0.30119090554E+04  0.30119090554E+04  0.00000000000E+00 0. -1.
         23    2    1    2    0    0  0.26636870797E+03 -0.24136073738E+03 -0.23659498186E+04  0.23949945333E+04  0.95252170575E+02 0.  0.
         11    1    3    3    0    0  0.11129466966E+03 -0.15571316404E+03 -0.13871655282E+04  0.14003075718E+04  0.00000000000E+00 0.  1.
        -11    1    3    3    0    0  0.15507403831E+03 -0.85647573335E+02 -0.97878429038E+03  0.99468696145E+03  0.00000000000E+00 0. -1.
         22    1    1    2    0    0 -0.26636870797E+03  0.24136073738E+03 -0.58028081842E+03  0.68259294046E+03  0.00000000000E+00 0.  1.
<mgrwt>
<rscale>  0 0.88953341E+03</rscale>
<asrwt>0</asrwt>
<pdfrwt beam="1">  1        2 0.46337069E+00 0.88953341E+03</pdfrwt>
<pdfrwt beam="2">  1       -2 0.10104371E-01 0.88953341E+03</pdfrwt>
<totfact> 0.11999903E+02</totfact>
</mgrwt>
</event>
<event>
 6    1  0.1603085E-006  0.9209667E+03  0.7818608E-02  0.9399745E-01
          1   -1    0    0  501    0  0.00000000000E+00  0.00000000000E+00  0.63543336054E+03  0.63543336054E+03  0.00000000000E+00 0. -1.
         -1   -1    0    0    0  501 -0.00000000000E+00 -0.00000000000E+00 -0.33370124664E+03  0.33370124664E+03  0.00000000000E+00 0.  1.
         23    2    1    2    0    0  0.43512506745E+03  0.67462823135E+02  0.27701263147E+03  0.52811747640E+03  0.91033038272E+02 0.  0.
         11    1    3    3    0    0  0.22357738443E+02  0.22511850036E+02  0.60015013932E+01  0.32290399181E+02  0.00000000000E+00 0.  1.
        -11    1    3    3    0    0  0.41276732901E+03  0.44950973099E+02  0.27101113007E+03  0.49582707722E+03  0.00000000000E+00 0. -1.
         22    1    1    2    0    0 -0.43512506745E+03 -0.67462823135E+02  0.24719482437E+02  0.44101713078E+03  0.00000000000E+00 0.  1.
<mgrwt>
<rscale>  0 0.92096668E+03</rscale>
<asrwt>0</asrwt>
<pdfrwt beam="1">  1        1 0.97758978E-01 0.92096668E+03</pdfrwt>
<pdfrwt beam="2">  1       -1 0.51338653E-01 0.92096668E+03</pdfrwt>
<totfact> 0.12098363E+02</totfact>
</mgrwt>
</event>
<event>
 6    1  0.1603085E-006  0.2978807E+04  0.7818608E-02  0.8249809E-01
          1   -1    0    0  501    0  0.00000000000E+00  0.00000000000E+00  0.17607039683E+04  0.17607039683E+04  0.00000000000E+00 0.  1.
         -1   -1    0    0    0  501 -0.00000000000E+00 -0.00000000000E+00 -0.12599070941E+04  0.12599070941E+04  0.00000000000E+00 0. -1.
         23    2    1    2    0    0 -0.13301920178E+04  0.55304047198E+03 -0.12706829307E+03  0.14491533836E+04  0.92922603051E+02 0.  0.
         13    1    3    3    0    0 -0.90251376642E+03  0.39664543179E+03 -0.12540749182E+03  0.99377348332E+03  0.00000000000E+00 0.  1.
        -13    1    3    3    0    0 -0.42767825140E+03  0.15639504019E+03 -0.16608012535E+01  0.45537990027E+03  0.00000000000E+00 0. -1.
         22    1    1    2    0    0  0.13301920178E+04 -0.55304047198E+03  0.62786516729E+03  0.15714576788E+04  0.00000000000E+00 0. -1.
<mgrwt>
<rscale>  0 0.29788074E+04</rscale>
<asrwt>0</asrwt>
<pdfrwt beam="1">  1        1 0.27087753E+00 0.29788074E+04</pdfrwt>
<pdfrwt beam="2">  1       -1 0.19383186E+00 0.29788074E+04</pdfrwt>
<totfact> 0.61364823E-01</totfact>
</mgrwt>
</event>
<event>
 6    1  0.1603085E-006  0.1279687E+04  0.7818608E-02  0.9045830E-01
          1   -1    0    0  501    0  0.00000000000E+00  0.00000000000E+00  0.71062914270E+03  0.71062914270E+03  0.00000000000E+00 0. -1.
         -1   -1    0    0    0  501 -0.00000000000E+00 -0.00000000000E+00 -0.57610884637E+03  0.57610884637E+03  0.00000000000E+00 0.  1.
         23    2    1    2    0    0 -0.54978639755E+03 -0.22132997953E+03 -0.16325627657E+03  0.62347112714E+03  0.10397880446E+03 0.  0.
         13    1    3    3    0    0 -0.47603936983E+03 -0.15077915630E+03 -0.12797169305E+03  0.51548481047E+03  0.00000000000E+00 0. -1.
        -13    1    3    3    0    0 -0.73747027720E+02 -0.70550823224E+02 -0.35284583518E+02  0.10798631668E+03  0.00000000000E+00 0.  1.
         22    1    1    2    0    0  0.54978639755E+03  0.22132997953E+03  0.29777657290E+03  0.66326686193E+03  0.00000000000E+00 0.  1.
<mgrwt>
<rscale>  0 0.12796870E+04</rscale>
<asrwt>0</asrwt>
<pdfrwt beam="1">  1        1 0.10932756E+00 0.12796870E+04</pdfrwt>
<pdfrwt beam="2">  1       -1 0.88632130E-01 0.12796870E+04</pdfrwt>
<totfact> 0.32749436E+01</totfact>
</mgrwt>
</event>
<event>
 6    1  0.1603085E-006  0.1681387E+04  0.7818608E-02  0.8772052E-01
          2   -1    0    0  501    0  0.00000000000E+00  0.00000000000E+00  0.32264859503E+04  0.32264859503E+04  0.00000000000E+00 0.  1.
         -2   -1    0    0    0  501 -0.00000000000E+00 -0.00000000000E+00 -0.21905109217E+03  0.21905109217E+03  0.00000000000E+00 0. -1.
         23    2    1    2    0    0  0.79292424016E+03  0.23981500057E+03  0.17709621813E+04  0.19572142395E+04  0.90224424336E+02 0.  0.
         11    1    3    3    0    0  0.47964546528E+03  0.18947747379E+03  0.10714694957E+04  0.11891208372E+04  0.00000000000E+00 0. -1.
        -11    1    3    3    0    0  0.31327877488E+03  0.50337526779E+02  0.69949268564E+03  0.76809340230E+03  0.00000000000E+00 0.  1.
         22    1    1    2    0    0 -0.79292424016E+03 -0.23981500057E+03  0.12364726768E+04  0.14883228029E+04  0.00000000000E+00 0. -1.
<mgrwt>
<rscale>  0 0.16813867E+04</rscale>
<asrwt>0</asrwt>
<pdfrwt beam="1">  1        2 0.49638242E+00 0.16813867E+04</pdfrwt>
<pdfrwt beam="2">  1       -2 0.33700170E-01 0.16813867E+04</pdfrwt>
<totfact> 0.98480491E+00</totfact>
</mgrwt>
</event>
<event>
 6    1  0.1603085E-006  0.1782335E+04  0.7818608E-02  0.8715750E-01
         -1   -1    0    0    0  501 -0.00000000000E+00  0.00000000000E+00  0.85309012931E+03  0.85309012931E+03  0.00000000000E+00 0.  1.
          1   -1    0    0  501    0  0.00000000000E+00 -0.00000000000E+00 -0.93094413643E+03  0.93094413643E+03  0.00000000000E+00 0. -1.
         23    2    1    2    0    0  0.29295630889E+03 -0.50413003412E+03  0.63259826753E+03  0.86495161179E+03  0.89388100110E+02 0.  0.
         11    1    3    3    0    0  0.20841067446E+03 -0.40468022415E+03  0.44636249880E+03  0.63752691973E+03  0.00000000000E+00 0. -1.
        -11    1    3    3    0    0  0.84545634432E+02 -0.99449809963E+02  0.18623576873E+03  0.22742469206E+03  0.00000000000E+00 0.  1.
         22    1    1    2    0    0 -0.29295630889E+03  0.50413003412E+03 -0.71045227466E+03  0.91908265395E+03  0.00000000000E+00 0. -1.
<mgrwt>
<rscale>  0 0.17823347E+04</rscale>
<asrwt>0</asrwt>
<pdfrwt beam="1">  1        1 0.14322217E+00 0.17823347E+04</pdfrwt>
<pdfrwt beam="2">  1       -1 0.13124464E+00 0.17823347E+04</pdfrwt>
<totfact> 0.80340767E+00</totfact>
</mgrwt>
</event>
<event>
 6    1  0.1603085E-006  0.1387166E+04  0.7818608E-02  0.8963162E-01
         -2   -1    0    0    0  501 -0.00000000000E+00  0.00000000000E+00  0.18603921211E+03  0.18603921211E+03  0.00000000000E+00 0.  1.
          2   -1    0    0  501    0  0.00000000000E+00 -0.00000000000E+00 -0.25857830484E+04  0.25857830484E+04  0.00000000000E+00 0. -1.
         23    2    1    2    0    0 -0.68002953089E+01 -0.25811806578E+03 -0.24848880383E+04  0.24999386181E+04  0.91396669239E+02 0.  0.
         11    1    3    3    0    0  0.35319685339E+01 -0.71524290185E+02 -0.11240364616E+04  0.11263153049E+04  0.00000000000E+00 0. -1.
        -11    1    3    3    0    0 -0.10332263843E+02 -0.18659377560E+03 -0.13608515767E+04  0.13736233132E+04  0.00000000000E+00 0.  1.
         22    1    1    2    0    0  0.68002953089E+01  0.25811806578E+03  0.85144202023E+02  0.27188364246E+03  0.00000000000E+00 0.  1.
<mgrwt>
<rscale>  0 0.13871655E+04</rscale>
<asrwt>0</asrwt>
<pdfrwt beam="1">  1        2 0.39781279E+00 0.13871655E+04</pdfrwt>
<pdfrwt beam="2">  1       -2 0.28621416E-01 0.13871655E+04</pdfrwt>
<totfact> 0.33983308E+01</totfact>
</mgrwt>
</event>
<event>
 6    1  0.1603085E-006  0.4939283E+04  0.7818608E-02  0.7837942E-01
          2   -1    0    0  501    0  0.00000000000E+00  0.00000000000E+00  0.30703354529E+04  0.30703354529E+04  0.00000000000E+00 0.  1.
         -2   -1    0    0    0  501 -0.00000000000E+00 -0.00000000000E+00 -0.19864696159E+04  0.19864696159E+04  0.00000000000E+00 0. -1.
         23    2    1    2    0    0  0.16615195443E+04  0.18255031570E+04  0.58641154983E+03  0.25387562727E+04  0.91082018843E+02 0.  0.
         13    1    3    3    0    0  0.14059967911E+04  0.15025845429E+04  0.50767432782E+03  0.21195094971E+04  0.00000000000E+00 0. -1.
        -13    1    3    3    0    0  0.25552275314E+03  0.32291861408E+03  0.78737222006E+02  0.41924677556E+03  0.00000000000E+00 0.  1.
         22    1    1    2    0    0 -0.16615195443E+04 -0.18255031570E+04  0.49745428718E+03  0.25180487962E+04  0.00000000000E+00 0. -1.
<mgrwt>
<rscale>  0 0.49392826E+04</rscale>
<asrwt>0</asrwt>
<pdfrwt beam="1">  1        2 0.47235930E+00 0.49392826E+04</pdfrwt>
<pdfrwt beam="2">  1       -2 0.30561071E+00 0.49392826E+04</pdfrwt>
<totfact> 0.33742259E-02</totfact>
</mgrwt>
</event>
<event>
 6    1  0.1603085E-006  0.1415434E+04  0.7818608E-02  0.8942722E-01
          1   -1    0    0  501    0  0.00000000000E+00  0.00000000000E+00  0.11319031539E+04  0.11319031539E+04  0.00000000000E+00 0. -1.
         -1   -1    0    0    0  501 -0.00000000000E+00 -0.00000000000E+00 -0.44249642933E+03  0.44249642933E+03  0.00000000000E+00 0.  1.
         23    2    1    2    0    0 -0.61386370431E+02 -0.50951374700E+03 -0.19134305718E+03  0.55504060676E+03  0.89918656406E+02 0.  0.
         13    1    3    3    0    0 -0.49422888310E+02 -0.38999224983E+03 -0.10433861843E+03  0.40672241654E+03  0.00000000000E+00 0.  1.
        -13    1    3    3    0    0 -0.11963482121E+02 -0.11952149716E+03 -0.87004438753E+02  0.14831819022E+03  0.00000000000E+00 0. -1.
         22    1    1    2    0    0  0.61386370431E+02  0.50951374700E+03  0.88074978178E+03  0.10193589765E+04  0.00000000000E+00 0. -1.
<mgrwt>
<rscale>  0 0.14154336E+04</rscale>
<asrwt>0</asrwt>
<pdfrwt beam="1">  1        1 0.17413895E+00 0.14154336E+04</pdfrwt>
<pdfrwt beam="2">  1       -1 0.68076374E-01 0.14154336E+04</pdfrwt>
<totfact> 0.25529191E+01</totfact>
</mgrwt>
</event>
<event>
 6    1  0.1603085E-006  0.3459832E+04  0.7818608E-02  0.8123376E-01
          1   -1    0    0  501    0  0.00000000000E+00  0.00000000000E+00  0.11810996946E+04  0.11810996946E+04  0.00000000000E+00 0. -1.
         -1   -1    0    0    0  501 -0.00000000000E+00 -0.00000000000E+00 -0.25337477583E+04  0.25337477583E+04  0.00000000000E+00 0.  1.
         23    2    1    2    0    0  0.63198472772E+03  0.15099680244E+04 -0.80260593673E+02  0.16415944522E+04  0.94775798151E+02 0.  0.
         11    1    3    3    0    0  0.41933787098E+03  0.88574370041E+03 -0.60164241739E+02  0.98183801558E+03  0.00000000000E+00 0. -1.
        -11    1    3    3    0    0  0.21264685675E+03  0.62422432397E+03 -0.20096351933E+02  0.65975643663E+03  0.00000000000E+00 0.  1.
         22    1    1    2    0    0 -0.63198472772E+03 -0.15099680244E+04 -0.12723874700E+04  0.20732530006E+04  0.00000000000E+00 0.  1.
<mgrwt>
<rscale>  0 0.34598316E+04</rscale>
<asrwt>0</asrwt>
<pdfrwt beam="1">  1        1 0.18170765E+00 0.34598316E+04</pdfrwt>
<pdfrwt beam="2">  1       -1 0.38980734E+00 0.34598316E+04</pdfrwt>
<totfact> 0.75758388E-02</totfact>
</mgrwt>
</event>
<event>
 6    1  0.1603085E-006  0.2033979E+04  0.7818608E-02  0.8590897E-01
         -2   -1    0    0    0  501 -0.00000000000E+00  0.00000000000E+00  0.36130085067E+03  0.36130085067E+03  0.00000000000E+00 0.  1.
          2   -1    0    0  501    0  0.00000000000E+00 -0.00000000000E+00 -0.28626215232E+04  0.28626215232E+04  0.00000000000E+00 0. -1.
         23    2    1    2    0    0  0.42556294042E+03  0.18595889278E+03 -0.26836236576E+04  0.27250046407E+04  0.90165570644E+02 0.  0.
         11    1    3    3    0    0  0.34694831345E+03  0.13342455372E+03 -0.19298072709E+04  0.19652814929E+04  0.00000000000E+00 0.  1.
        -11    1    3    3    0    0  0.78614626968E+02  0.52534339062E+02 -0.75381638677E+03  0.75972314781E+03  0.00000000000E+00 0. -1.
         22    1    1    2    0    0 -0.42556294042E+03 -0.18595889278E+03  0.18230298511E+03  0.49891773314E+03  0.00000000000E+00 0.  1.
<mgrwt>
<rscale>  0 0.20339789E+04</rscale>
<asrwt>0</asrwt>
<pdfrwt beam="1">  1        2 0.44040330E+00 0.20339789E+04</pdfrwt>
<pdfrwt beam="2">  1       -2 0.55584748E-01 0.20339789E+04</pdfrwt>
<totfact> 0.59776266E+00</totfact>
</mgrwt>
</event>
<event>
 6    1  0.1603085E-006  0.3140540E+04  0.7818608E-02  0.8204699E-01
          2   -1    0    0  501    0  0.00000000000E+00  0.00000000000E+00  0.25463821350E+04  0.25463821350E+04  0.00000000000E+00 0. -1.
         -2   -1    0    0    0  501 -0.00000000000E+00 -0.00000000000E+00 -0.96833359277E+03  0.96833359277E+03  0.00000000000E+00 0.  1.
         23    2    1    2    0    0  0.15064602638E+04 -0.41074840623E+03  0.96087814065E+03  0.18357171917E+04  0.91836957576E+02 0.  0.
         13    1    3    3    0    0  0.10547306650E+04 -0.33044144977E+03  0.67184178997E+03  0.12934526347E+04  0.00000000000E+00 0.  1.
        -13    1    3    3    0    0  0.45172959883E+03 -0.80306956455E+02  0.28903635068E+03  0.54226455696E+03  0.00000000000E+00 0. -1.
         22    1    1    2    0    0 -0.15064602638E+04  0.41074840623E+03  0.61717040161E+03  0.16789985362E+04  0.00000000000E+00 0. -1.
<mgrwt>
<rscale>  0 0.31405397E+04</rscale>
<asrwt>0</asrwt>
<pdfrwt beam="1">  1        2 0.39175109E+00 0.31405397E+04</pdfrwt>
<pdfrwt beam="2">  1       -2 0.14897440E+00 0.31405397E+04</pdfrwt>
<totfact> 0.84443313E-01</totfact>
</mgrwt>
</event>
<event>
 6    1  0.1603085E-006  0.1496267E+04  0.7818608E-02  0.8886939E-01
          1   -1    0    0  501    0  0.00000000000E+00  0.00000000000E+00  0.10115336964E+04  0.10115336964E+04  0.00000000000E+00 0. -1.
         -1   -1    0    0    0  501 -0.00000000000E+00 -0.00000000000E+00 -0.55332191100E+03  0.55332191100E+03  0.00000000000E+00 0.  1.
         23    2    1    2    0    0 -0.22056929265E+03 -0.60781178919E+03  0.61772061991E+03  0.89887583879E+03  0.91175793686E+02 0.  0.
         13    1    3    3    0    0 -0.13665712911E+03 -0.41735679370E+03  0.36171031899E+03  0.56894307189E+03  0.00000000000E+00 0. -1.
        -13    1    3    3    0    0 -0.83912163538E+02 -0.19045499549E+03  0.25601030092E+03  0.32993276690E+03  0.00000000000E+00 0.  1.
         22    1    1    2    0    0  0.22056929265E+03  0.60781178919E+03 -0.15950883450E+03  0.66597976863E+03  0.00000000000E+00 0.  1.
<mgrwt>
<rscale>  0 0.14962670E+04</rscale>
<asrwt>0</asrwt>
<pdfrwt beam="1">  1        1 0.15562057E+00 0.14962670E+04</pdfrwt>
<pdfrwt beam="2">  1       -1 0.85126448E-01 0.14962670E+04</pdfrwt>
<totfact> 0.19575203E+01</totfact>
</mgrwt>
</event>
<event>
 6    1  0.1603085E-006  0.1975661E+04  0.7818608E-02  0.8618085E-01
          1   -1    0    0  501    0  0.00000000000E+00  0.00000000000E+00  0.10085891381E+04  0.10085891381E+04  0.00000000000E+00 0. -1.
         -1   -1    0    0    0  501 -0.00000000000E+00 -0.00000000000E+00 -0.96749937875E+03  0.96749937875E+03  0.00000000000E+00 0.  1.
         23    2    1    2    0    0 -0.43129066104E+03 -0.11304865572E+03  0.89980313669E+03  0.10085244118E+04  0.93188902673E+02 0.  0.
         11    1    3    3    0    0 -0.11708224131E+03 -0.99584024625E+01  0.32218526956E+03  0.34294426505E+03  0.00000000000E+00 0.  1.
        -11    1    3    3    0    0 -0.31420841974E+03 -0.10309025325E+03  0.57761786713E+03  0.66558014677E+03  0.00000000000E+00 0. -1.
         22    1    1    2    0    0  0.43129066104E+03  0.11304865572E+03 -0.85871337735E+03  0.96756410501E+03  0.00000000000E+00 0.  1.
<mgrwt>
<rscale>  0 0.19756613E+04</rscale>
<asrwt>0</asrwt>
<pdfrwt beam="1">  1        1 0.15516756E+00 0.19756613E+04</pdfrwt>
<pdfrwt beam="2">  1       -1 0.14884606E+00 0.19756613E+04</pdfrwt>
<totfact> 0.49342986E+00</totfact>
</mgrwt>
</event>
<event>
 6    1  0.1603085E-006  0.3822076E+04  0.7818608E-02  0.8041434E-01
          2   -1    0    0  501    0  0.00000000000E+00  0.00000000000E+00  0.16933923780E+04  0.16933923780E+04  0.00000000000E+00 0. -1.
         -2   -1    0    0    0  501 -0.00000000000E+00 -0.00000000000E+00 -0.21566568093E+04  0.21566568093E+04  0.00000000000E+00 0.  1.
         23    2    1    2    0    0  0.82091273852E+03 -0.12065852754E+04 -0.14730493229E+04  0.20753911137E+04  0.87339658581E+02 0.  0.
         11    1    3    3    0    0  0.16644918476E+03 -0.18671946073E+03 -0.25795082194E+03  0.35931617646E+03  0.00000000000E+00 0.  1.
        -11    1    3    3    0    0  0.65446355376E+03 -0.10198658146E+04 -0.12150985010E+04  0.17160749372E+04  0.00000000000E+00 0. -1.
         22    1    1    2    0    0 -0.82091273852E+03  0.12065852754E+04  0.10097848916E+04  0.17746580737E+04  0.00000000000E+00 0. -1.
<mgrwt>
<rscale>  0 0.38220760E+04</rscale>
<asrwt>0</asrwt>
<pdfrwt beam="1">  1        2 0.26052190E+00 0.38220760E+04</pdfrwt>
<pdfrwt beam="2">  1       -2 0.33179336E+00 0.38220760E+04</pdfrwt>
<totfact> 0.16012230E-01</totfact>
</mgrwt>
</event>
<event>
 6    1  0.1603085E-006  0.3904063E+04  0.7818608E-02  0.8024185E-01
          2   -1    0    0  501    0  0.00000000000E+00  0.00000000000E+00  0.15787783120E+04  0.15787783120E+04  0.00000000000E+00 0. -1.
         -2   -1    0    0    0  501 -0.00000000000E+00 -0.00000000000E+00 -0.24135286447E+04  0.24135286447E+04  0.00000000000E+00 0.  1.
         23    2    1    2    0    0  0.28756448747E+03 -0.14824521369E+04  0.84553171583E+03  0.17331687503E+04  0.92694994157E+02 0.  0.
         11    1    3    3    0    0  0.52884665566E+02 -0.17090448834E+03  0.74615544953E+02  0.19383655882E+03  0.00000000000E+00 0. -1.
        -11    1    3    3    0    0  0.23467982190E+03 -0.13115476486E+04  0.77091617088E+03  0.15393321915E+04  0.00000000000E+00 0.  1.
         22    1    1    2    0    0 -0.28756448747E+03  0.14824521369E+04 -0.16802820486E+04  0.22591382063E+04  0.00000000000E+00 0.  1.
<mgrwt>
<rscale>  0 0.39040628E+04</rscale>
<asrwt>0</asrwt>
<pdfrwt beam="1">  1        2 0.24288897E+00 0.39040628E+04</pdfrwt>
<pdfrwt beam="2">  1       -2 0.37131210E+00 0.39040628E+04</pdfrwt>
<totfact> 0.10371477E-01</totfact>
</mgrwt>
</event>
<event>
 6    1  0.1603085E-006  0.1757458E+04  0.7818608E-02  0.8729256E-01
         -1   -1    0    0    0  501 -0.00000000000E+00  0.00000000000E+00  0.44987036500E+03  0.44987036500E+03  0.00000000000E+00 0.  1.
          1   -1    0    0  501    0  0.00000000000E+00 -0.00000000000E+00 -0.17164155190E+04  0.17164155190E+04  0.00000000000E+00 0. -1.
         23    2    1    2    0    0  0.79566201162E+02  0.55179484549E+03 -0.14683578923E+04  0.15733805684E+04  0.92968711530E+02 0.  0.
         11    1    3    3    0    0  0.68275838870E+01  0.10932699077E+03 -0.40019661762E+03  0.41491726834E+03  0.00000000000E+00 0.  1.
        -11    1    3    3    0    0  0.72738617275E+02  0.44246785472E+03 -0.10681612747E+04  0.11584633001E+04  0.00000000000E+00 0. -1.
         22    1    1    2    0    0 -0.79566201162E+02 -0.55179484549E+03  0.20181273833E+03  0.59290531556E+03  0.00000000000E+00 0.  1.
<mgrwt>
<rscale>  0 0.17574578E+04</rscale>
<asrwt>0</asrwt>
<pdfrwt beam="1">  1        1 0.26406393E+00 0.17574578E+04</pdfrwt>
<pdfrwt beam="2">  1       -1 0.69210825E-01 0.17574578E+04</pdfrwt>
<totfact> 0.92886832E+00</totfact>
</mgrwt>
</event>
<event>
 6    1  0.1603085E-006  0.3057954E+04  0.7818608E-02  0.8227373E-01
         -1   -1    0    0    0  501 -0.00000000000E+00  0.00000000000E+00  0.96432326215E+03  0.96432326215E+03  0.00000000000E+00 0.  1.
          1   -1    0    0  501    0  0.00000000000E+00 -0.00000000000E+00 -0.24242600599E+04  0.24242600599E+04  0.00000000000E+00 0. -1.
         23    2    1    2    0    0 -0.21409310816E+03  0.14752558078E+04 -0.11003348663E+04  0.18551136919E+04  0.92165255458E+02 0.  0.
         13    1    3    3    0    0 -0.18860095606E+03  0.10031369718E+04 -0.75806704915E+03  0.12714243020E+04  0.00000000000E+00 0. -1.
        -13    1    3    3    0    0 -0.25492152097E+02  0.47211883604E+03 -0.34226781716E+03  0.58368938985E+03  0.00000000000E+00 0.  1.
         22    1    1    2    0    0  0.21409310816E+03 -0.14752558078E+04 -0.35960193143E+03  0.15334696302E+04  0.00000000000E+00 0.  1.
<mgrwt>
<rscale>  0 0.30579538E+04</rscale>
<asrwt>0</asrwt>
<pdfrwt beam="1">  1        1 0.37296308E+00 0.30579538E+04</pdfrwt>
<pdfrwt beam="2">  1       -1 0.14835743E+00 0.30579538E+04</pdfrwt>
<totfact> 0.46511041E-01</totfact>
</mgrwt>
</event>
<event>
 6    1  0.1603085E-006  0.4519854E+04  0.7818608E-02  0.7907170E-01
         -1   -1    0    0    0  501 -0.00000000000E+00  0.00000000000E+00  0.26854042805E+04  0.26854042805E+04  0.00000000000E+00 0.  1.
          1   -1    0    0  501    0  0.00000000000E+00 -0.00000000000E+00 -0.19018623614E+04  0.19018623614E+04  0.00000000000E+00 0. -1.
         23    2    1    2    0    0  0.10122370475E+04 -0.16655452006E+04  0.15510921093E+04  0.24925595144E+04  0.91112817424E+02 0.  0.
         11    1    3    3    0    0  0.87387605924E+03 -0.14069537180E+04  0.12806330915E+04  0.20936091437E+04  0.00000000000E+00 0. -1.
        -11    1    3    3    0    0  0.13836098827E+03 -0.25859148263E+03  0.27045901778E+03  0.39895037068E+03  0.00000000000E+00 0.  1.
         22    1    1    2    0    0 -0.10122370475E+04  0.16655452006E+04 -0.76755019027E+03  0.20947071276E+04  0.00000000000E+00 0. -1.
<mgrwt>
<rscale>  0 0.45198537E+04</rscale>
<asrwt>0</asrwt>
<pdfrwt beam="1">  1        1 0.29259421E+00 0.45198537E+04</pdfrwt>
<pdfrwt beam="2">  1       -1 0.41313912E+00 0.45198537E+04</pdfrwt>
<totfact> 0.15150910E-02</totfact>
</mgrwt>
</event>
<event>
 6    1  0.1603085E-006  0.1714419E+04  0.7818608E-02  0.8753183E-01
         -1   -1    0    0    0  501 -0.00000000000E+00  0.00000000000E+00  0.10748706879E+04  0.10748706879E+04  0.00000000000E+00 0.  1.
          1   -1    0    0  501    0  0.00000000000E+00 -0.00000000000E+00 -0.68362495440E+03  0.68362495440E+03  0.00000000000E+00 0. -1.
         23    2    1    2    0    0  0.57627932779E+03 -0.35647237047E+03 -0.33806977036E+03  0.76296989237E+03  0.93067032227E+02 0.  0.
         11    1    3    3    0    0  0.30414934721E+03 -0.17273176863E+03 -0.22406427298E+03  0.41538883920E+03  0.00000000000E+00 0. -1.
        -11    1    3    3    0    0  0.27212998058E+03 -0.18374060184E+03 -0.11400549739E+03  0.34758105318E+03  0.00000000000E+00 0.  1.
         22    1    1    2    0    0 -0.57627932779E+03  0.35647237047E+03  0.72931550382E+03  0.99552574987E+03  0.00000000000E+00 0.  1.
<mgrwt>
<rscale>  0 0.17144193E+04</rscale>
<asrwt>0</asrwt>
<pdfrwt beam="1">  1        1 0.10517307E+00 0.17144193E+04</pdfrwt>
<pdfrwt beam="2">  1       -1 0.16536472E+00 0.17144193E+04</pdfrwt>
<totfact> 0.71479549E+00</totfact>
</mgrwt>
</event>
<event>
 6    1  0.1603085E-006  0.1457218E+04  0.7818608E-02  0.8913412E-01
         -2   -1    0    0    0  501 -0.00000000000E+00  0.00000000000E+00  0.13155392454E+03  0.13155392454E+03  0.00000000000E+00 0.  1.
          2   -1    0    0  501    0  0.00000000000E+00 -0.00000000000E+00 -0.40353851557E+04  0.40353851557E+04  0.00000000000E+00 0. -1.
         23    2    1    2    0    0  0.65166442462E+03 -0.19068774311E+03 -0.12266499789E+04  0.14049963229E+04  0.91192975462E+02 0.  0.
         13    1    3    3    0    0  0.20469170647E+03 -0.17413622966E+02 -0.35000256698E+03  0.40583706811E+03  0.00000000000E+00 0. -1.
        -13    1    3    3    0    0  0.44697271816E+03 -0.17327412014E+03 -0.87664741194E+03  0.99915925475E+03  0.00000000000E+00 0.  1.
         22    1    1    2    0    0 -0.65166442462E+03  0.19068774311E+03 -0.26771812522E+04  0.27619427574E+04  0.00000000000E+00 0. -1.
<mgrwt>
<rscale>  0 0.14572176E+04</rscale>
<asrwt>0</asrwt>
<pdfrwt beam="1">  1        2 0.62082842E+00 0.14572176E+04</pdfrwt>
<pdfrwt beam="2">  1       -2 0.20239067E-01 0.14572176E+04</pdfrwt>
<totfact> 0.66690882E+00</totfact>
</mgrwt>
</event>
<event>
 6    1  0.1603085E-006  0.1523177E+04  0.7818608E-02  0.8869185E-01
         -2   -1    0    0    0  501 -0.00000000000E+00  0.00000000000E+00  0.34080070545E+03  0.34080070545E+03  0.00000000000E+00 0.  1.
          2   -1    0    0  501    0  0.00000000000E+00 -0.00000000000E+00 -0.17019243618E+04  0.17019243618E+04  0.00000000000E+00 0. -1.
         23    2    1    2    0    0  0.67095530222E+03 -0.19322538772E+03 -0.10856637995E+04  0.12921285040E+04  0.58421890005E+02 0.  0.
         13    1    3    3    0    0  0.12485607076E+03 -0.38291160832E+02 -0.16349499001E+03  0.20925071843E+03  0.00000000000E+00 0.  1.
        -13    1    3    3    0    0  0.54609923146E+03 -0.15493422689E+03 -0.92216880948E+03  0.10828777856E+04  0.00000000000E+00 0. -1.
         22    1    1    2    0    0 -0.67095530222E+03  0.19322538772E+03 -0.27545985684E+03  0.75059656325E+03  0.00000000000E+00 0. -1.
<mgrwt>
<rscale>  0 0.15231770E+04</rscale>
<asrwt>0</asrwt>
<pdfrwt beam="1">  1        2 0.26183452E+00 0.15231770E+04</pdfrwt>
<pdfrwt beam="2">  1       -2 0.52430877E-01 0.15231770E+04</pdfrwt>
<totfact> 0.32387345E+01</totfact>
</mgrwt>
</event>
<event>
 6    1  0.1603085E-006  0.1216179E+04  0.7818608E-02  0.9098812E-01
          2   -1    0    0  501    0  0.00000000000E+00  0.00000000000E+00  0.70811546406E+03  0.70811546406E+03  0.00000000000E+00 0. -1.
         -2   -1    0    0    0  501 -0.00000000000E+00 -0.00000000000E+00 -0.52219308994E+03  0.52219308994E+03  0.00000000000E+00 0.  1.
         23    2    1    2    0    0  0.13004223995E+03 -0.39067470246E+03  0.54130283560E+03  0.68640325001E+03  0.92752113079E+02 0.  0.
         13    1    3    3    0    0 -0.10258474993E+01 -0.13035094179E+03  0.17843061938E+03  0.22097489975E+03  0.00000000000E+00 0. -1.
        -13    1    3    3    0    0  0.13106808745E+03 -0.26032376067E+03  0.36287221622E+03  0.46542835025E+03  0.00000000000E+00 0.  1.
         22    1    1    2    0    0 -0.13004223995E+03  0.39067470246E+03 -0.35538046147E+03  0.54390530399E+03  0.00000000000E+00 0.  1.
<mgrwt>
<rscale>  0 0.12161793E+04</rscale>
<asrwt>0</asrwt>
<pdfrwt beam="1">  1        2 0.10894084E+00 0.12161793E+04</pdfrwt>
<pdfrwt beam="2">  1       -2 0.80337398E-01 0.12161793E+04</pdfrwt>
<totfact> 0.54523509E+01</totfact>
</mgrwt>
</event>
<event>
 6    1  0.1603085E-006  0.5979782E+03  0.7818608E-02  0.9909609E-01
          1   -1    0    0  501    0  0.00000000000E+00  0.00000000000E+00  0.27190126895E+04  0.27190126895E+04  0.00000000000E+00 0. -1.
         -1   -1    0    0    0  501 -0.00000000000E+00 -0.00000000000E+00 -0.32877555197E+02  0.32877555197E+02  0.00000000000E+00 0.  1.
         23    2    1    2    0    0 -0.23547703256E+03  0.17228446793E+03  0.14101068198E+04  0.14429289656E+04  0.92257171994E+02 0.  0.
         11    1    3    3    0    0 -0.56815740419E+02  0.95837280577E+02  0.48509140548E+03  0.49772129187E+03  0.00000000000E+00 0.  1.
        -11    1    3    3    0    0 -0.17866129214E+03  0.76447187348E+02  0.92501541432E+03  0.94520767374E+03  0.00000000000E+00 0. -1.
         22    1    1    2    0    0  0.23547703256E+03 -0.17228446793E+03  0.12760283145E+04  0.13089612791E+04  0.00000000000E+00 0. -1.
<mgrwt>
<rscale>  0 0.59797823E+03</rscale>
<asrwt>0</asrwt>
<pdfrwt beam="1">  1        1 0.41830947E+00 0.59797823E+03</pdfrwt>
<pdfrwt beam="2">  1       -1 0.50580876E-02 0.59797823E+03</pdfrwt>
<totfact> 0.18506262E+02</totfact>
</mgrwt>
</event>
<event>
 6    1  0.1603085E-006  0.1360303E+04  0.7818608E-02  0.8983065E-01
          2   -1    0    0  501    0  0.00000000000E+00  0.00000000000E+00  0.97315240010E+03  0.97315240010E+03  0.00000000000E+00 0. -1.
         -2   -1    0    0    0  501 -0.00000000000E+00 -0.00000000000E+00 -0.47536890271E+03  0.47536890271E+03  0.00000000000E+00 0.  1.
         23    2    1    2    0    0  0.56505718234E+03 -0.34512807381E+03  0.99813200204E+02  0.67600375343E+03  0.92819141768E+02 0.  0.
         13    1    3    3    0    0  0.42729396859E+03 -0.21459101365E+03  0.57899874199E+02  0.48164492541E+03  0.00000000000E+00 0.  1.
        -13    1    3    3    0    0  0.13776321374E+03 -0.13053706016E+03  0.41913326004E+02  0.19435882803E+03  0.00000000000E+00 0. -1.
         22    1    1    2    0    0 -0.56505718234E+03  0.34512807381E+03  0.39797029719E+03  0.77251754937E+03  0.00000000000E+00 0.  1.
<mgrwt>
<rscale>  0 0.13603035E+04</rscale>
<asrwt>0</asrwt>
<pdfrwt beam="1">  1        2 0.14971575E+00 0.13603035E+04</pdfrwt>
<pdfrwt beam="2">  1       -2 0.73133677E-01 0.13603035E+04</pdfrwt>
<totfact> 0.43217968E+01</totfact>
</mgrwt>
</event>
<event>
 6    1  0.1603085E-006  0.2539879E+04  0.7818608E-02  0.8388915E-01
         -1   -1    0    0    0  501 -0.00000000000E+00  0.00000000000E+00  0.84376488761E+03  0.84376488761E+03  0.00000000000E+00 0.  1.
          1   -1    0    0  501    0  0.00000000000E+00 -0.00000000000E+00 -0.19113697512E+04  0.19113697512E+04  0.00000000000E+00 0. -1.
         23    2    1    2    0    0  0.11337457522E+04 -0.34948153858E+03 -0.10210047074E+04  0.15678316653E+04  0.90159535825E+02 0.  0.
         13    1    3    3    0    0  0.83528312593E+03 -0.22976214360E+03 -0.70423741326E+03  0.11164402704E+04  0.00000000000E+00 0. -1.
        -13    1    3    3    0    0  0.29846262624E+03 -0.11971939498E+03 -0.31676729409E+03  0.45139139491E+03  0.00000000000E+00 0.  1.
         22    1    1    2    0    0 -0.11337457522E+04  0.34948153858E+03 -0.46600156255E+02  0.11873029735E+04  0.00000000000E+00 0.  1.
<mgrwt>
<rscale>  0 0.25398793E+04</rscale>
<asrwt>0</asrwt>
<pdfrwt beam="1">  1        1 0.29405688E+00 0.25398793E+04</pdfrwt>
<pdfrwt beam="2">  1       -1 0.12980998E+00 0.25398793E+04</pdfrwt>
<totfact> 0.15422995E+00</totfact>
</mgrwt>
</event>
<event>
 6    1  0.1603085E-006  0.3765569E+04  0.7818608E-02  0.8053584E-01
          2   -1    0    0  501    0  0.00000000000E+00  0.00000000000E+00  0.21573313828E+04  0.21573313828E+04  0.00000000000E+00 0.  1.
         -2   -1    0    0    0  501 -0.00000000000E+00 -0.00000000000E+00 -0.16431769466E+04  0.16431769466E+04  0.00000000000E+00 0. -1.
         23    2    1    2    0    0  0.76137214676E+03  0.68325421634E+03 -0.13366965506E+04  0.16857569858E+04  0.92168741771E+02 0.  0.
         13    1    3    3    0    0  0.33249225079E+03  0.31829313938E+03 -0.53044495106E+03  0.70230582051E+03  0.00000000000E+00 0. -1.
        -13    1    3    3    0    0  0.42887989597E+03  0.36496107696E+03 -0.80625159952E+03  0.98345116533E+03  0.00000000000E+00 0.  1.
         22    1    1    2    0    0 -0.76137214676E+03 -0.68325421634E+03  0.18508509868E+04  0.21147513436E+04  0.00000000000E+00 0.  1.
<mgrwt>
<rscale>  0 0.37655689E+04</rscale>
<asrwt>0</asrwt>
<pdfrwt beam="1">  1        2 0.33189713E+00 0.37655689E+04</pdfrwt>
<pdfrwt beam="2">  1       -2 0.25279646E+00 0.37655689E+04</pdfrwt>
<totfact> 0.27104122E-01</totfact>
</mgrwt>
</event>
<event>
 6    1  0.1603085E-006  0.8268778E+03  0.7818608E-02  0.9521907E-01
         -1   -1    0    0    0  501 -0.00000000000E+00  0.00000000000E+00  0.13583671422E+03  0.13583671422E+03  0.00000000000E+00 0.  1.
          1   -1    0    0  501    0  0.00000000000E+00 -0.00000000000E+00 -0.12583617978E+04  0.12583617978E+04  0.00000000000E+00 0. -1.
         23    2    1    2    0    0  0.40473226698E+03 -0.35127775882E+02 -0.63758648912E+03  0.76157887197E+03  0.91889491022E+02 0.  0.
         13    1    3    3    0    0  0.27608096632E+03 -0.53528365122E+02 -0.37648780194E+03  0.46992451611E+03  0.00000000000E+00 0. -1.
        -13    1    3    3    0    0  0.12865130066E+03  0.18400589240E+02 -0.26109868718E+03  0.29165435586E+03  0.00000000000E+00 0.  1.
         22    1    1    2    0    0 -0.40473226698E+03  0.35127775882E+02 -0.48493859444E+03  0.63261964003E+03  0.00000000000E+00 0.  1.
<mgrwt>
<rscale>  0 0.82687782E+03</rscale>
<asrwt>0</asrwt>
<pdfrwt beam="1">  1        1 0.19359413E+00 0.82687782E+03</pdfrwt>
<pdfrwt beam="2">  1       -1 0.20897955E-01 0.82687782E+03</pdfrwt>
<totfact> 0.18603996E+02</totfact>
</mgrwt>
</event>
<event>
 6    1  0.1603085E-006  0.3209140E+04  0.7818608E-02  0.8186407E-01
          2   -1    0    0  501    0  0.00000000000E+00  0.00000000000E+00  0.40770532277E+04  0.40770532277E+04  0.00000000000E+00 0. -1.
         -2   -1    0    0    0  501 -0.00000000000E+00 -0.00000000000E+00 -0.63149668208E+03  0.63149668208E+03  0.00000000000E+00 0.  1.
         23    2    1    2    0    0 -0.11462197232E+04 -0.58043709222E+03  0.31313993561E+04  0.33858928826E+04  0.88779577425E+02 0.  0.
         13    1    3    3    0    0 -0.18687279319E+03 -0.69235703495E+02  0.54758239427E+03  0.58271905922E+03  0.00000000000E+00 0.  1.
        -13    1    3    3    0    0 -0.95934692996E+03 -0.51120138872E+03  0.25838169618E+04  0.28031738234E+04  0.00000000000E+00 0. -1.
         22    1    1    2    0    0  0.11462197232E+04  0.58043709222E+03  0.31415718951E+03  0.13226570272E+04  0.00000000000E+00 0.  1.
<mgrwt>
<rscale>  0 0.32091404E+04</rscale>
<asrwt>0</asrwt>
<pdfrwt beam="1">  1        2 0.62723894E+00 0.32091404E+04</pdfrwt>
<pdfrwt beam="2">  1       -2 0.97153338E-01 0.32091404E+04</pdfrwt>
<totfact> 0.21966066E-01</totfact>
</mgrwt>
</event>
<event>
 6    1  0.1603085E-006  0.2404271E+04  0.7818608E-02  0.8437906E-01
         -2   -1    0    0    0  501 -0.00000000000E+00  0.00000000000E+00  0.12451017564E+04  0.12451017564E+04  0.00000000000E+00 0.  1.
          2   -1    0    0  501    0  0.00000000000E+00 -0.00000000000E+00 -0.11606523446E+04  0.11606523446E+04  0.00000000000E+00 0. -1.
         23    2    1    2    0    0 -0.57878640829E+03  0.27499763660E+03  0.10579359710E+04  0.12402956129E+04  0.92126446149E+02 0.  0.
         13    1    3    3    0    0 -0.15338686003E+03  0.37404808252E+02  0.21631934685E+03  0.26780722233E+03  0.00000000000E+00 0.  1.
        -13    1    3    3    0    0 -0.42539954826E+03  0.23759282835E+03  0.84161662419E+03  0.97248839060E+03  0.00000000000E+00 0. -1.
         22    1    1    2    0    0  0.57878640829E+03 -0.27499763660E+03 -0.97348655924E+03  0.11654584881E+04  0.00000000000E+00 0. -1.
<mgrwt>
<rscale>  0 0.24042714E+04</rscale>
<asrwt>0</asrwt>
<pdfrwt beam="1">  1        2 0.17856190E+00 0.24042714E+04</pdfrwt>
<pdfrwt beam="2">  1       -2 0.19155412E+00 0.24042714E+04</pdfrwt>
<totfact> 0.27208178E+00</totfact>
</mgrwt>
</event>
<event>
 6    1  0.1603085E-006  0.1310772E+04  0.7818608E-02  0.9021066E-01
         -1   -1    0    0    0  501 -0.00000000000E+00  0.00000000000E+00  0.65401809911E+03  0.65401809911E+03  0.00000000000E+00 0.  1.
          1   -1    0    0  501    0  0.00000000000E+00 -0.00000000000E+00 -0.65675674137E+03  0.65675674137E+03  0.00000000000E+00 0. -1.
         23    2    1    2    0    0  0.23685547657E+03  0.24670714898E+02 -0.60853226804E+03  0.65985619887E+03  0.91594328329E+02 0.  0.
         11    1    3    3    0    0  0.10918217679E+03 -0.33480036217E+02 -0.29667518472E+03  0.31789593546E+03  0.00000000000E+00 0.  1.
        -11    1    3    3    0    0  0.12767329978E+03  0.58150751115E+02 -0.31185708332E+03  0.34196026341E+03  0.00000000000E+00 0. -1.
         22    1    1    2    0    0 -0.23685547657E+03 -0.24670714898E+02  0.60579362578E+03  0.65091864160E+03  0.00000000000E+00 0.  1.
<mgrwt>
<rscale>  0 0.13107720E+04</rscale>
<asrwt>0</asrwt>
<pdfrwt beam="1">  1        1 0.10103950E+00 0.13107720E+04</pdfrwt>
<pdfrwt beam="2">  1       -1 0.10061817E+00 0.13107720E+04</pdfrwt>
<totfact> 0.27682949E+01</totfact>
</mgrwt>
</event>
<event>
 6    1  0.1603085E-006  0.1893618E+04  0.7818608E-02  0.8658040E-01
          2   -1    0    0  501    0  0.00000000000E+00  0.00000000000E+00  0.15750784141E+04  0.15750784141E+04  0.00000000000E+00 0. -1.
         -2   -1    0    0    0  501 -0.00000000000E+00 -0.00000000000E+00 -0.56914465245E+03  0.56914465245E+03  0.00000000000E+00 0.  1.
         23    2    1    2    0    0  0.69144880943E+03 -0.31160726164E+03  0.11415410642E+04  0.13737752214E+04  0.94561176183E+02 0.  0.
         13    1    3    3    0    0  0.20349413964E+03 -0.13954059016E+03  0.38126123400E+03  0.45413827159E+03  0.00000000000E+00 0. -1.
        -13    1    3    3    0    0  0.48795466979E+03 -0.17206667148E+03  0.76027983021E+03  0.91963694979E+03  0.00000000000E+00 0.  1.
         22    1    1    2    0    0 -0.69144880943E+03  0.31160726164E+03 -0.13560730258E+03  0.77044784514E+03  0.00000000000E+00 0. -1.
<mgrwt>
<rscale>  0 0.18936182E+04</rscale>
<asrwt>0</asrwt>
<pdfrwt beam="1">  1        2 0.24231975E+00 0.18936182E+04</pdfrwt>
<pdfrwt beam="2">  1       -2 0.87560716E-01 0.18936182E+04</pdfrwt>
<totfact> 0.12149353E+01</totfact>
</mgrwt>
</event>
<event>
 6    1  0.1603085E-006  0.3197080E+04  0.7818608E-02  0.8189589E-01
         -2   -1    0    0    0  501 -0.00000000000E+00  0.00000000000E+00  0.11280581680E+04  0.11280581680E+04  0.00000000000E+00 0.  1.
          2   -1    0    0  501    0  0.00000000000E+00 -0.00000000000E+00 -0.22652461005E+04  0.22652461005E+04  0.00000000000E+00 0. -1.
         23    2    1    2    0    0  0.37738472081E+03 -0.14510428714E+04 -0.11536120593E+04  0.18938995886E+04  0.89945685274E+02 0.  0.
         13    1    3    3    0    0  0.32633221983E+03 -0.11836620216E+04 -0.90583231645E+03  0.15258049300E+04  0.00000000000E+00 0. -1.
        -13    1    3    3    0    0  0.51052500977E+02 -0.26738084978E+03 -0.24777974287E+03  0.36809465856E+03  0.00000000000E+00 0.  1.
         22    1    1    2    0    0 -0.37738472081E+03  0.14510428714E+04  0.16424126820E+02  0.14994046799E+04  0.00000000000E+00 0.  1.
<mgrwt>
<rscale>  0 0.31970795E+04</rscale>
<asrwt>0</asrwt>
<pdfrwt beam="1">  1        2 0.34849940E+00 0.31970795E+04</pdfrwt>
<pdfrwt beam="2">  1       -2 0.17354741E+00 0.31970795E+04</pdfrwt>
<totfact> 0.80375691E-01</totfact>
</mgrwt>
</event>
<event>
 6    1  0.1603085E-006  0.1939044E+04  0.7818608E-02  0.8635662E-01
         -1   -1    0    0    0  501 -0.00000000000E+00  0.00000000000E+00  0.37379524046E+03  0.37379524046E+03  0.00000000000E+00 0.  1.
          1   -1    0    0  501    0  0.00000000000E+00 -0.00000000000E+00 -0.25146726330E+04  0.25146726330E+04  0.00000000000E+00 0. -1.
         23    2    1    2    0    0 -0.64910519841E+03  0.51488715065E+03 -0.32931817910E+03  0.89643546401E+03  0.93272405034E+02 0.  0.
         11    1    3    3    0    0 -0.20286634134E+03  0.18872535928E+03 -0.15158672626E+03  0.31583310349E+03  0.00000000000E+00 0.  1.
        -11    1    3    3    0    0 -0.44623885706E+03  0.32616179137E+03 -0.17773145284E+03  0.58060236051E+03  0.00000000000E+00 0. -1.
         22    1    1    2    0    0  0.64910519841E+03 -0.51488715065E+03 -0.18115592134E+04  0.19920324094E+04  0.00000000000E+00 0. -1.
<mgrwt>
<rscale>  0 0.19390437E+04</rscale>
<asrwt>0</asrwt>
<pdfrwt beam="1">  1        1 0.38687271E+00 0.19390437E+04</pdfrwt>
<pdfrwt beam="2">  1       -1 0.57506960E-01 0.19390437E+04</pdfrwt>
<totfact> 0.37817389E+00</totfact>
</mgrwt>
</event>
<event>
 6    1  0.1603085E-006  0.4087266E+04  0.7818608E-02  0.7987170E-01
          2   -1    0    0  501    0  0.00000000000E+00  0.00000000000E+00  0.16529575761E+04  0.16529575761E+04  0.00000000000E+00 0.  1.
         -2   -1    0    0    0  501 -0.00000000000E+00 -0.00000000000E+00 -0.25266446217E+04  0.25266446217E+04  0.00000000000E+00 0. -1.
         23    2    1    2    0    0  0.88872749661E+03 -0.17715837661E+04  0.68009670209E+02  0.19852598571E+04  0.91026267757E+02 0.  0.
         13    1    3    3    0    0  0.66927586280E+03 -0.13261472651E+04  0.90252999814E+02  0.14882010460E+04  0.00000000000E+00 0. -1.
        -13    1    3    3    0    0  0.21945163381E+03 -0.44543650099E+03 -0.22243329605E+02  0.49705881111E+03  0.00000000000E+00 0.  1.
         22    1    1    2    0    0 -0.88872749661E+03  0.17715837661E+04 -0.94169671585E+03  0.21943423407E+04  0.00000000000E+00 0. -1.
<mgrwt>
<rscale>  0 0.40872663E+04</rscale>
<asrwt>0</asrwt>
<pdfrwt beam="1">  1        2 0.25430117E+00 0.40872663E+04</pdfrwt>
<pdfrwt beam="2">  1       -2 0.38871455E+00 0.40872663E+04</pdfrwt>
<totfact> 0.71721699E-02</totfact>
</mgrwt>
</event>
<event>
 6    1  0.1603085E-006  0.8636067E+04  0.7818608E-02  0.7428825E-01
          1   -1    0    0  501    0  0.00000000000E+00  0.00000000000E+00  0.40022855989E+04  0.40022855989E+04  0.00000000000E+00 0. -1.
         -1   -1    0    0    0  501 -0.00000000000E+00 -0.00000000000E+00 -0.46586915429E+04  0.46586915429E+04  0.00000000000E+00 0.  1.
         23    2    1    2    0    0 -0.33058218573E+04  0.27484984436E+04  0.71183357997E+02  0.43006918256E+04  0.90450329926E+02 0.  0.
         11    1    3    3    0    0 -0.15482477839E+04  0.13452550337E+04  0.41043822637E+02  0.20514548256E+04  0.00000000000E+00 0. -1.
        -11    1    3    3    0    0 -0.17575740734E+04  0.14032434099E+04  0.30139535361E+02  0.22492370001E+04  0.00000000000E+00 0.  1.
         22    1    1    2    0    0  0.33058218573E+04 -0.27484984436E+04 -0.72758930198E+03  0.43602853162E+04  0.00000000000E+00 0. -1.
<mgrwt>
<rscale>  0 0.86360672E+04</rscale>
<asrwt>0</asrwt>
<pdfrwt beam="1">  1        1 0.61573625E+00 0.86360672E+04</pdfrwt>
<pdfrwt beam="2">  1       -1 0.71672177E+00 0.86360672E+04</pdfrwt>
<totfact> 0.94352685E-06</totfact>
</mgrwt>
</event>
<event>
 6    1  0.1976096E-006  0.2570091E+04  0.7818608E-02  0.8378432E-01
          1   -1    0    0  501    0  0.00000000000E+00  0.00000000000E+00  0.94438640034E+03  0.94438640034E+03  0.00000000000E+00 0. -1.
         -1   -1    0    0    0  501 -0.00000000000E+00 -0.00000000000E+00 -0.17485867289E+04  0.17485867289E+04  0.00000000000E+00 0.  1.
         23    2    1    2    0    0  0.83866950621E+03 -0.11413851086E+03 -0.14136634141E+04  0.16499777347E+04  0.87109909860E+02 0.  0.
         13    1    3    3    0    0  0.57932484729E+03 -0.89362777288E+02 -0.10513904124E+04  0.12037544533E+04  0.00000000000E+00 0.  1.
        -13    1    3    3    0    0  0.25934465892E+03 -0.24775733573E+02 -0.36227300173E+03  0.44622328141E+03  0.00000000000E+00 0. -1.
         22    1    1    2    0    0 -0.83866950621E+03  0.11413851086E+03  0.60946308555E+03  0.10429953945E+04  0.00000000000E+00 0. -1.
<mgrwt>
<rscale>  0 0.25700907E+04</rscale>
<asrwt>0</asrwt>
<pdfrwt beam="1">  1        1 0.14529022E+00 0.25700907E+04</pdfrwt>
<pdfrwt beam="2">  1       -1 0.26901334E+00 0.25700907E+04</pdfrwt>
<totfact> 0.77542140E-01</totfact>
</mgrwt>
</event>
<event>
 6    1  0.1603085E-006  0.1017591E+04  0.7818608E-02  0.9289459E-01
         -2   -1    0    0    0  501 -0.00000000000E+00  0.00000000000E+00  0.36253937574E+03  0.36253937574E+03  0.00000000000E+00 0. -1.
          2   -1    0    0  501    0  0.00000000000E+00 -0.00000000000E+00 -0.71405467081E+03  0.71405467081E+03  0.00000000000E+00 0.  1.
         23    2    1    2    0    0 -0.41685476845E+03 -0.26970769318E+03 -0.27348744464E+03  0.57400228061E+03  0.90405188053E+02 0.  0.
         13    1    3    3    0    0 -0.33579769094E+03 -0.18608090846E+03 -0.24025960381E+03  0.45289167685E+03  0.00000000000E+00 0. -1.
        -13    1    3    3    0    0 -0.81057077509E+02 -0.83626784715E+02 -0.33227840823E+02  0.12111060375E+03  0.00000000000E+00 0.  1.
         22    1    1    2    0    0  0.41685476845E+03  0.26970769318E+03 -0.78027850433E+02  0.50259176593E+03  0.00000000000E+00 0. -1.
<mgrwt>
<rscale>  0 0.10175911E+04</rscale>
<asrwt>0</asrwt>
<pdfrwt beam="1">  1        2 0.10985456E+00 0.10175911E+04</pdfrwt>
<pdfrwt beam="2">  1       -2 0.55775289E-01 0.10175911E+04</pdfrwt>
<totfact> 0.12036692E+02</totfact>
</mgrwt>
</event>
<event>
 6    1  0.1603085E-006  0.1835604E+04  0.7818608E-02  0.8687592E-01
         -1   -1    0    0    0  501 -0.00000000000E+00  0.00000000000E+00  0.76700349747E+03  0.76700349747E+03  0.00000000000E+00 0.  1.
          1   -1    0    0  501    0  0.00000000000E+00 -0.00000000000E+00 -0.10982485500E+04  0.10982485500E+04  0.00000000000E+00 0. -1.
         23    2    1    2    0    0 -0.64923034442E+03  0.16954807286E+03 -0.79863239125E+03  0.10475127775E+04  0.96035064396E+02 0.  0.
         11    1    3    3    0    0 -0.50263599651E+03  0.15488514849E+03 -0.67116006271E+03  0.85269466047E+03  0.00000000000E+00 0. -1.
        -11    1    3    3    0    0 -0.14659434791E+03  0.14662924373E+02 -0.12747232854E+03  0.19481811706E+03  0.00000000000E+00 0.  1.
         22    1    1    2    0    0  0.64923034442E+03 -0.16954807286E+03  0.46738733876E+03  0.81773926991E+03  0.00000000000E+00 0.  1.
<mgrwt>
<rscale>  0 0.18356040E+04</rscale>
<asrwt>0</asrwt>
<pdfrwt beam="1">  1        1 0.16896131E+00 0.18356040E+04</pdfrwt>
<pdfrwt beam="2">  1       -1 0.11800054E+00 0.18356040E+04</pdfrwt>
<totfact> 0.77181303E+00</totfact>
</mgrwt>
</event>
<event>
 6    1  0.1603085E-006  0.3760339E+04  0.7818608E-02  0.8054720E-01
         -2   -1    0    0    0  501 -0.00000000000E+00  0.00000000000E+00  0.16208764730E+04  0.16208764730E+04  0.00000000000E+00 0.  1.
          2   -1    0    0  501    0  0.00000000000E+00 -0.00000000000E+00 -0.21809422236E+04  0.21809422236E+04  0.00000000000E+00 0. -1.
         23    2    1    2    0    0  0.10756861739E+04  0.15003641583E+04  0.73834919285E+02  0.18498905700E+04  0.91924824062E+02 0.  0.
         13    1    3    3    0    0  0.90195042668E+03  0.12588729468E+04  0.95731372318E+02  0.15515927829E+04  0.00000000000E+00 0.  1.
        -13    1    3    3    0    0  0.17373574724E+03  0.24149121148E+03 -0.21896453033E+02  0.29829778703E+03  0.00000000000E+00 0. -1.
         22    1    1    2    0    0 -0.10756861739E+04 -0.15003641583E+04 -0.63390066982E+03  0.19519281266E+04  0.00000000000E+00 0. -1.
<mgrwt>
<rscale>  0 0.37603393E+04</rscale>
<asrwt>0</asrwt>
<pdfrwt beam="1">  1        2 0.33552957E+00 0.37603393E+04</pdfrwt>
<pdfrwt beam="2">  1       -2 0.24936561E+00 0.37603393E+04</pdfrwt>
<totfact> 0.27609748E-01</totfact>
</mgrwt>
</event>
<event>
 6    1  0.2098038E-006  0.3842925E+04  0.7818608E-02  0.8037006E-01
         -2   -1    0    0    0  501 -0.00000000000E+00  0.00000000000E+00  0.15223725621E+04  0.15223725621E+04  0.00000000000E+00 0.  1.
          2   -1    0    0  501    0  0.00000000000E+00 -0.00000000000E+00 -0.24251734255E+04  0.24251734255E+04  0.00000000000E+00 0. -1.
         23    2    1    2    0    0 -0.14142655481E+04  0.12355630306E+04 -0.39475230656E+02  0.18806414927E+04  0.92147094595E+02 0.  0.
         11    1    3    3    0    0 -0.45396915543E+03  0.42202604023E+03  0.25844202854E+02  0.62037238457E+03  0.00000000000E+00 0. -1.
        -11    1    3    3    0    0 -0.96029639269E+03  0.81353699033E+03 -0.65319433510E+02  0.12602691081E+04  0.00000000000E+00 0.  1.
         22    1    1    2    0    0  0.14142655481E+04 -0.12355630306E+04 -0.86332563280E+03  0.20669044950E+04  0.00000000000E+00 0. -1.
<mgrwt>
<rscale>  0 0.38429247E+04</rscale>
<asrwt>0</asrwt>
<pdfrwt beam="1">  1        2 0.37310360E+00 0.38429247E+04</pdfrwt>
<pdfrwt beam="2">  1       -2 0.23421116E+00 0.38429247E+04</pdfrwt>
<totfact> 0.24724993E-01</totfact>
</mgrwt>
</event>
<event>
 6    1  0.1603085E-006  0.3044766E+04  0.7818608E-02  0.8231062E-01
          2   -1    0    0  501    0  0.00000000000E+00  0.00000000000E+00  0.24145045366E+04  0.24145045366E+04  0.00000000000E+00 0. -1.
         -2   -1    0    0    0  501 -0.00000000000E+00 -0.00000000000E+00 -0.95988655201E+03  0.95988655201E+03  0.00000000000E+00 0.  1.
         23    2    1    2    0    0 -0.17533457283E+03  0.11763697135E+04 -0.32252536196E+03  0.12359742935E+04  0.94983839982E+02 0.  0.
         13    1    3    3    0    0 -0.29212740802E+02  0.11181774375E+03 -0.58244526821E+02  0.12941799314E+03  0.00000000000E+00 0.  1.
        -13    1    3    3    0    0 -0.14612183202E+03  0.10645519698E+04 -0.26428083514E+03  0.11065563004E+04  0.00000000000E+00 0. -1.
         22    1    1    2    0    0  0.17533457283E+03 -0.11763697135E+04  0.17771433465E+04  0.21384167951E+04  0.00000000000E+00 0. -1.
<mgrwt>
<rscale>  0 0.30447663E+04</rscale>
<asrwt>0</asrwt>
<pdfrwt beam="1">  1        2 0.37146224E+00 0.30447663E+04</pdfrwt>
<pdfrwt beam="2">  1       -2 0.14767485E+00 0.30447663E+04</pdfrwt>
<totfact> 0.10385333E+00</totfact>
</mgrwt>
</event>
<event>
 6    1  0.1603085E-006  0.2861748E+04  0.7818608E-02  0.8284350E-01
          1   -1    0    0  501    0  0.00000000000E+00  0.00000000000E+00  0.12193868385E+04  0.12193868385E+04  0.00000000000E+00 0. -1.
         -1   -1    0    0    0  501 -0.00000000000E+00 -0.00000000000E+00 -0.16790406868E+04  0.16790406868E+04  0.00000000000E+00 0.  1.
         23    2    1    2    0    0 -0.55974233548E+02 -0.12550632724E+04 -0.92014905579E+03  0.15603794063E+04  0.98957941475E+02 0.  0.
         13    1    3    3    0    0 -0.47724284905E+02 -0.85426168079E+03 -0.56970649949E+03  0.10279134799E+04  0.00000000000E+00 0. -1.
        -13    1    3    3    0    0 -0.82499486435E+01 -0.40080159159E+03 -0.35044255630E+03  0.53246592637E+03  0.00000000000E+00 0.  1.
         22    1    1    2    0    0  0.55974233548E+02  0.12550632724E+04  0.46049520750E+03  0.13380481190E+04  0.00000000000E+00 0. -1.
<mgrwt>
<rscale>  0 0.28617478E+04</rscale>
<asrwt>0</asrwt>
<pdfrwt beam="1">  1        1 0.18759797E+00 0.28617478E+04</pdfrwt>
<pdfrwt beam="2">  1       -1 0.25831395E+00 0.28617478E+04</pdfrwt>
<totfact> 0.54807303E-01</totfact>
</mgrwt>
</event>
<event>
 6    1  0.1603085E-006  0.2997808E+04  0.7818608E-02  0.8244357E-01
         -2   -1    0    0    0  501 -0.00000000000E+00  0.00000000000E+00  0.71284598324E+03  0.71284598324E+03  0.00000000000E+00 0.  1.
          2   -1    0    0  501    0  0.00000000000E+00 -0.00000000000E+00 -0.31517505962E+04  0.31517505962E+04  0.00000000000E+00 0. -1.
         23    2    1    2    0    0  0.12174219105E+03 -0.10534142725E+04 -0.25836950585E+04  0.27943316292E+04  0.91138948810E+02 0.  0.
         13    1    3    3    0    0  0.10758771095E+03 -0.58249232225E+03 -0.13832037303E+04  0.15047009605E+04  0.00000000000E+00 0. -1.
        -13    1    3    3    0    0  0.14154480097E+02 -0.47092195028E+03 -0.12004913281E+04  0.12896306686E+04  0.00000000000E+00 0.  1.
         22    1    1    2    0    0 -0.12174219105E+03  0.10534142725E+04  0.14479044552E+03  0.10702649503E+04  0.00000000000E+00 0.  1.
<mgrwt>
<rscale>  0 0.29978077E+04</rscale>
<asrwt>0</asrwt>
<pdfrwt beam="1">  1        2 0.48488470E+00 0.29978077E+04</pdfrwt>
<pdfrwt beam="2">  1       -2 0.10966861E+00 0.29978077E+04</pdfrwt>
<totfact> 0.78926772E-01</totfact>
</mgrwt>
</event>
<event>
 6    1  0.1603085E-006  0.2349230E+04  0.7818608E-02  0.8458759E-01
         -2   -1    0    0    0  501 -0.00000000000E+00  0.00000000000E+00  0.15016108662E+04  0.15016108662E+04  0.00000000000E+00 0.  1.
          2   -1    0    0  501    0  0.00000000000E+00 -0.00000000000E+00 -0.91882706468E+03  0.91882706468E+03  0.00000000000E+00 0. -1.
         23    2    1    2    0    0  0.19373147742E+03  0.62325107630E+03  0.12958462989E+04  0.14537777452E+04  0.90985232664E+02 0.  0.
         11    1    3    3    0    0  0.13675095197E+03  0.31068330426E+03  0.61540480727E+03  0.70281435332E+03  0.00000000000E+00 0. -1.
        -11    1    3    3    0    0  0.56980525449E+02  0.31256777203E+03  0.68044149159E+03  0.75096339183E+03  0.00000000000E+00 0.  1.
         22    1    1    2    0    0 -0.19373147742E+03 -0.62325107630E+03 -0.71306249738E+03  0.96666018570E+03  0.00000000000E+00 0. -1.
<mgrwt>
<rscale>  0 0.23492303E+04</rscale>
<asrwt>0</asrwt>
<pdfrwt beam="1">  1        2 0.14135801E+00 0.23492303E+04</pdfrwt>
<pdfrwt beam="2">  1       -2 0.23101706E+00 0.23492303E+04</pdfrwt>
<totfact> 0.21660197E+00</totfact>
</mgrwt>
</event>
<event>
 6    1  0.1603085E-006  0.2770311E+04  0.7818608E-02  0.8312545E-01
          2   -1    0    0  501    0  0.00000000000E+00  0.00000000000E+00  0.26626690041E+04  0.26626690041E+04  0.00000000000E+00 0. -1.
         -2   -1    0    0    0  501 -0.00000000000E+00 -0.00000000000E+00 -0.72057628512E+03  0.72057628512E+03  0.00000000000E+00 0.  1.
         23    2    1    2    0    0 -0.12398575454E+04  0.40853341668E+03  0.41201207980E+03  0.13719539011E+04  0.91418090869E+02 0.  0.
         13    1    3    3    0    0 -0.80034296706E+03  0.21743022779E+03  0.25839683193E+03  0.86867352419E+03  0.00000000000E+00 0.  1.
        -13    1    3    3    0    0 -0.43951457838E+03  0.19110318889E+03  0.15361524787E+03  0.50328037691E+03  0.00000000000E+00 0. -1.
         22    1    1    2    0    0  0.12398575454E+04 -0.40853341668E+03  0.15300806392E+04  0.20112913881E+04  0.00000000000E+00 0. -1.
<mgrwt>
<rscale>  0 0.27703113E+04</rscale>
<asrwt>0</asrwt>
<pdfrwt beam="1">  1        2 0.40964138E+00 0.27703113E+04</pdfrwt>
<pdfrwt beam="2">  1       -2 0.11085789E+00 0.27703113E+04</pdfrwt>
<totfact> 0.15712694E+00</totfact>
</mgrwt>
</event>
<event>
 6    1  0.1695275E-006  0.2059166E+04  0.7818608E-02  0.8579448E-01
          1   -1    0    0  501    0  0.00000000000E+00  0.00000000000E+00  0.12152857964E+04  0.12152857964E+04  0.00000000000E+00 0. -1.
         -1   -1    0    0    0  501 -0.00000000000E+00 -0.00000000000E+00 -0.87225636209E+03  0.87225636209E+03  0.00000000000E+00 0.  1.
         23    2    1    2    0    0  0.20774806427E+03  0.34343322524E+03 -0.78711441676E+03  0.88823787578E+03  0.91168966749E+02 0.  0.
         11    1    3    3    0    0  0.12726371230E+03  0.25672221344E+03 -0.62493412085E+03  0.68749182013E+03  0.00000000000E+00 0. -1.
        -11    1    3    3    0    0  0.80484351968E+02  0.86711011808E+02 -0.16218029591E+03  0.20074605566E+03  0.00000000000E+00 0.  1.
         22    1    1    2    0    0 -0.20774806427E+03 -0.34343322524E+03  0.11301438511E+04  0.11993042827E+04  0.00000000000E+00 0. -1.
<mgrwt>
<rscale>  0 0.20591656E+04</rscale>
<asrwt>0</asrwt>
<pdfrwt beam="1">  1        1 0.18696705E+00 0.20591656E+04</pdfrwt>
<pdfrwt beam="2">  1       -1 0.13419329E+00 0.20591656E+04</pdfrwt>
<totfact> 0.44965096E+00</totfact>
</mgrwt>
</event>
<event>
 6    1  0.1603085E-006  0.2071988E+04  0.7818608E-02  0.8573684E-01
          1   -1    0    0  501    0  0.00000000000E+00  0.00000000000E+00  0.10239325808E+04  0.10239325808E+04  0.00000000000E+00 0. -1.
         -1   -1    0    0    0  501 -0.00000000000E+00 -0.00000000000E+00 -0.10481975849E+04  0.10481975849E+04  0.00000000000E+00 0.  1.
         23    2    1    2    0    0  0.47497245478E+03  0.12392861312E+03 -0.92210479738E+03  0.10488641063E+04  0.94241828602E+02 0.  0.
         11    1    3    3    0    0  0.26474323817E+03  0.78751410326E+02 -0.61266088502E+03  0.67204473572E+03  0.00000000000E+00 0.  1.
        -11    1    3    3    0    0  0.21022921661E+03  0.45177202795E+02 -0.30944391236E+03  0.37681937061E+03  0.00000000000E+00 0. -1.
         22    1    1    2    0    0 -0.47497245478E+03 -0.12392861312E+03  0.89783979330E+03  0.10232660594E+04  0.00000000000E+00 0. -1.
<mgrwt>
<rscale>  0 0.20719881E+04</rscale>
<asrwt>0</asrwt>
<pdfrwt beam="1">  1        1 0.15752809E+00 0.20719881E+04</pdfrwt>
<pdfrwt beam="2">  1       -1 0.16126117E+00 0.20719881E+04</pdfrwt>
<totfact> 0.38205699E+00</totfact>
</mgrwt>
</event>
<event>
 6    1  0.1603085E-006  0.1763435E+04  0.7818608E-02  0.8725989E-01
          1   -1    0    0  501    0  0.00000000000E+00  0.00000000000E+00  0.24000121521E+04  0.24000121521E+04  0.00000000000E+00 0. -1.
         -1   -1    0    0    0  501 -0.00000000000E+00 -0.00000000000E+00 -0.32392593472E+03  0.32392593472E+03  0.00000000000E+00 0.  1.
         23    2    1    2    0    0 -0.27747670663E+03 -0.74967729374E+03  0.16067634840E+04  0.17969681868E+04  0.91631890926E+02 0.  0.
         13    1    3    3    0    0 -0.13297629703E+03 -0.26528125350E+03  0.66228915045E+03  0.72572981049E+03  0.00000000000E+00 0. -1.
        -13    1    3    3    0    0 -0.14450040961E+03 -0.48439604024E+03  0.94447433352E+03  0.10712383763E+04  0.00000000000E+00 0.  1.
         22    1    1    2    0    0  0.27747670663E+03  0.74967729374E+03  0.46932273341E+03  0.92696990004E+03  0.00000000000E+00 0.  1.
<mgrwt>
<rscale>  0 0.17634355E+04</rscale>
<asrwt>0</asrwt>
<pdfrwt beam="1">  1        1 0.36923263E+00 0.17634355E+04</pdfrwt>
<pdfrwt beam="2">  1       -1 0.49834761E-01 0.17634355E+04</pdfrwt>
<totfact> 0.60798454E+00</totfact>
</mgrwt>
</event>
<event>
 6    1  0.1603085E-006  0.2033281E+04  0.7818608E-02  0.8591217E-01
         -1   -1    0    0    0  501 -0.00000000000E+00  0.00000000000E+00  0.43466124831E+03  0.43466124831E+03  0.00000000000E+00 0.  1.
          1   -1    0    0  501    0  0.00000000000E+00 -0.00000000000E+00 -0.23778469646E+04  0.23778469646E+04  0.00000000000E+00 0. -1.
         23    2    1    2    0    0 -0.98292483793E+03  0.49302217158E+02 -0.63278077361E+03  0.11736875823E+04  0.92515337663E+02 0.  0.
         11    1    3    3    0    0 -0.35576756426E+03 -0.43779267465E+01 -0.27481060324E+03  0.44956711810E+03  0.00000000000E+00 0. -1.
        -11    1    3    3    0    0 -0.62715727367E+03  0.53680143904E+02 -0.35797017037E+03  0.72412046417E+03  0.00000000000E+00 0.  1.
         22    1    1    2    0    0  0.98292483793E+03 -0.49302217158E+02 -0.13104049427E+04  0.16388206307E+04  0.00000000000E+00 0. -1.
<mgrwt>
<rscale>  0 0.20332810E+04</rscale>
<asrwt>0</asrwt>
<pdfrwt beam="1">  1        1 0.36582261E+00 0.20332810E+04</pdfrwt>
<pdfrwt beam="2">  1       -1 0.66870961E-01 0.20332810E+04</pdfrwt>
<totfact> 0.34491434E+00</totfact>
</mgrwt>
</event>
<event>
 6    1  0.1603085E-006  0.1302749E+04  0.7818608E-02  0.9027388E-01
          4   -1    0    0  501    0  0.00000000000E+00  0.00000000000E+00  0.12858520738E+04  0.12858520738E+04  0.00000000000E+00 0. -1.
         -4   -1    0    0    0  501 -0.00000000000E+00 -0.00000000000E+00 -0.32996688506E+03  0.32996688506E+03  0.00000000000E+00 0.  1.
         23    2    1    2    0    0 -0.52878314677E+03  0.30599355216E+03  0.21204438274E+03  0.65324801863E+03  0.92338958876E+02 0.  0.
         11    1    3    3    0    0 -0.46466418698E+03  0.26895568796E+03  0.15221298818E+03  0.55804906819E+03  0.00000000000E+00 0. -1.
        -11    1    3    3    0    0 -0.64118959797E+02  0.37037864198E+02  0.59831394559E+02  0.95198950438E+02  0.00000000000E+00 0.  1.
         22    1    1    2    0    0  0.52878314677E+03 -0.30599355216E+03  0.74384080596E+03  0.96257094018E+03  0.00000000000E+00 0. -1.
<mgrwt>
<rscale>  0 0.13027488E+04</rscale>
<asrwt>0</asrwt>
<pdfrwt beam="1">  1        4 0.19782339E+00 0.13027488E+04</pdfrwt>
<pdfrwt beam="2">  1       -4 0.50764137E-01 0.13027488E+04</pdfrwt>
<totfact> 0.99616748E-01</totfact>
</mgrwt>
</event>
<event>
 6    1  0.1603085E-006  0.2561845E+04  0.7818608E-02  0.8381278E-01
          2   -1    0    0  501    0  0.00000000000E+00  0.00000000000E+00  0.18614534708E+04  0.18614534708E+04  0.00000000000E+00 0. -1.
         -2   -1    0    0    0  501 -0.00000000000E+00 -0.00000000000E+00 -0.88144150011E+03  0.88144150011E+03  0.00000000000E+00 0.  1.
         23    2    1    2    0    0 -0.28999374529E+03  0.11988941045E+04  0.12493172156E+03  0.12420266627E+04  0.74691697268E+02 0.  0.
         11    1    3    3    0    0 -0.17036622875E+03  0.63726412215E+03  0.10070471356E+03  0.66728678438E+03  0.00000000000E+00 0.  1.
        -11    1    3    3    0    0 -0.11962751654E+03  0.56162998236E+03  0.24227008007E+02  0.57473987831E+03  0.00000000000E+00 0. -1.
         22    1    1    2    0    0  0.28999374529E+03 -0.11988941045E+04  0.85508024911E+03  0.15008683082E+04  0.00000000000E+00 0. -1.
<mgrwt>
<rscale>  0 0.25618449E+04</rscale>
<asrwt>0</asrwt>
<pdfrwt beam="1">  1        2 0.28637746E+00 0.25618449E+04</pdfrwt>
<pdfrwt beam="2">  1       -2 0.13560638E+00 0.25618449E+04</pdfrwt>
<totfact> 0.27609380E+00</totfact>
</mgrwt>
</event>
<event>
 6    1  0.1603085E-006  0.4570090E+04  0.7818608E-02  0.7898480E-01
         -1   -1    0    0    0  501 -0.00000000000E+00  0.00000000000E+00  0.25166015577E+04  0.25166015577E+04  0.00000000000E+00 0.  1.
          1   -1    0    0  501    0  0.00000000000E+00 -0.00000000000E+00 -0.20747944727E+04  0.20747944727E+04  0.00000000000E+00 0. -1.
         23    2    1    2    0    0 -0.98907088845E+03  0.20558682325E+04  0.33035212971E+03  0.23072599533E+04  0.97265361369E+02 0.  0.
         13    1    3    3    0    0 -0.44244669851E+03  0.95641211109E+03  0.10632035483E+03  0.10591445723E+04  0.00000000000E+00 0.  1.
        -13    1    3    3    0    0 -0.54662418994E+03  0.10994561214E+04  0.22403177488E+03  0.12481153809E+04  0.00000000000E+00 0. -1.
         22    1    1    2    0    0  0.98907088845E+03 -0.20558682325E+04  0.11145495521E+03  0.22841360771E+04  0.00000000000E+00 0. -1.
<mgrwt>
<rscale>  0 0.45700902E+04</rscale>
<asrwt>0</asrwt>
<pdfrwt beam="1">  1        1 0.31919915E+00 0.45700902E+04</pdfrwt>
<pdfrwt beam="2">  1       -1 0.38716947E+00 0.45700902E+04</pdfrwt>
<totfact> 0.17327428E-02</totfact>
</mgrwt>
</event>
<event>
 6    1  0.1603085E-006  0.2225542E+04  0.7818608E-02  0.8507872E-01
         -1   -1    0    0    0  501 -0.00000000000E+00  0.00000000000E+00  0.10629479670E+04  0.10629479670E+04  0.00000000000E+00 0.  1.
          1   -1    0    0  501    0  0.00000000000E+00 -0.00000000000E+00 -0.11649292274E+04  0.11649292274E+04  0.00000000000E+00 0. -1.
         23    2    1    2    0    0  0.22915922787E+03 -0.30650197812E+03 -0.10948793875E+04  0.11637794051E+04  0.95729912559E+02 0.  0.
         13    1    3    3    0    0  0.14427598949E+02 -0.25298768898E+02 -0.18943887263E+03  0.19166447188E+03  0.00000000000E+00 0.  1.
        -13    1    3    3    0    0  0.21473162892E+03 -0.28120320922E+03 -0.90544051491E+03  0.97211493322E+03  0.00000000000E+00 0. -1.
         22    1    1    2    0    0 -0.22915922787E+03  0.30650197812E+03  0.99289812717E+03  0.10640977893E+04  0.00000000000E+00 0.  1.
<mgrwt>
<rscale>  0 0.22255419E+04</rscale>
<asrwt>0</asrwt>
<pdfrwt beam="1">  1        1 0.17921988E+00 0.22255419E+04</pdfrwt>
<pdfrwt beam="2">  1       -1 0.16353046E+00 0.22255419E+04</pdfrwt>
<totfact> 0.28355956E+00</totfact>
</mgrwt>
</event>
<event>
 6    1  0.1603085E-006  0.1503491E+04  0.7818608E-02  0.8882135E-01
          1   -1    0    0  501    0  0.00000000000E+00  0.00000000000E+00  0.16452246039E+04  0.16452246039E+04  0.00000000000E+00 0. -1.
         -1   -1    0    0    0  501 -0.00000000000E+00 -0.00000000000E+00 -0.34349187940E+03  0.34349187940E+03  0.00000000000E+00 0.  1.
         23    2    1    2    0    0  0.55253668808E+03  0.40055446599E+03  0.24584583900E+03  0.73148230190E+03  0.94262980694E+02 0.  0.
         11    1    3    3    0    0  0.86704534100E+02  0.48095150771E+02  0.39423900510E+01  0.99228837545E+02  0.00000000000E+00 0.  1.
        -11    1    3    3    0    0  0.46583215398E+03  0.35245931522E+03  0.24190344895E+03  0.63225346435E+03  0.00000000000E+00 0. -1.
         22    1    1    2    0    0 -0.55253668808E+03 -0.40055446599E+03  0.10558868855E+04  0.12572341814E+04  0.00000000000E+00 0. -1.
<mgrwt>
<rscale>  0 0.15034910E+04</rscale>
<asrwt>0</asrwt>
<pdfrwt beam="1">  1        1 0.25311147E+00 0.15034910E+04</pdfrwt>
<pdfrwt beam="2">  1       -1 0.52844905E-01 0.15034910E+04</pdfrwt>
<totfact> 0.18137090E+01</totfact>
</mgrwt>
</event>
<event>
 6    1  0.1603085E-006  0.2429394E+04  0.7818608E-02  0.8428580E-01
         -2   -1    0    0    0  501 -0.00000000000E+00  0.00000000000E+00  0.34657253370E+03  0.34657253370E+03  0.00000000000E+00 0.  1.
          2   -1    0    0  501    0  0.00000000000E+00 -0.00000000000E+00 -0.42573725601E+04  0.42573725601E+04  0.00000000000E+00 0. -1.
         23    2    1    2    0    0  0.32993051428E+03 -0.11671875139E+04 -0.19110485228E+04  0.22651020224E+04  0.86022545911E+02 0.  0.
         13    1    3    3    0    0  0.96415192600E+02 -0.37449766140E+03 -0.53809962153E+03  0.66264288304E+03  0.00000000000E+00 0.  1.
        -13    1    3    3    0    0  0.23351532168E+03 -0.79268985245E+03 -0.13729489013E+04  0.16024591393E+04  0.00000000000E+00 0. -1.
         22    1    1    2    0    0 -0.32993051428E+03  0.11671875139E+04 -0.19997515035E+04  0.23388430714E+04  0.00000000000E+00 0.  1.
<mgrwt>
<rscale>  0 0.24293937E+04</rscale>
<asrwt>0</asrwt>
<pdfrwt beam="1">  1        2 0.65498038E+00 0.24293937E+04</pdfrwt>
<pdfrwt beam="2">  1       -2 0.53318852E-01 0.24293937E+04</pdfrwt>
<totfact> 0.61947911E-01</totfact>
</mgrwt>
</event>
<event>
 6    1  0.1603085E-006  0.1686214E+04  0.7818608E-02  0.8769266E-01
         -1   -1    0    0    0  501 -0.00000000000E+00  0.00000000000E+00  0.96174930243E+03  0.96174930243E+03  0.00000000000E+00 0.  1.
          1   -1    0    0  501    0  0.00000000000E+00 -0.00000000000E+00 -0.73910065982E+03  0.73910065982E+03  0.00000000000E+00 0. -1.
         23    2    1    2    0    0  0.45240918381E+03  0.12692630980E+03  0.81447591837E+03  0.94517550717E+03  0.95923719919E+02 0.  0.
         11    1    3    3    0    0  0.11903618327E+03  0.33022383750E+02  0.30555505062E+03  0.32958152211E+03  0.00000000000E+00 0. -1.
        -11    1    3    3    0    0  0.33337300055E+03  0.93903926055E+02  0.50892086775E+03  0.61559398507E+03  0.00000000000E+00 0.  1.
         22    1    1    2    0    0 -0.45240918381E+03 -0.12692630980E+03 -0.59182727576E+03  0.75567445507E+03  0.00000000000E+00 0. -1.
<mgrwt>
<rscale>  0 0.16862142E+04</rscale>
<asrwt>0</asrwt>
<pdfrwt beam="1">  1        1 0.11370779E+00 0.16862142E+04</pdfrwt>
<pdfrwt beam="2">  1       -1 0.14796143E+00 0.16862142E+04</pdfrwt>
<totfact> 0.86426207E+00</totfact>
</mgrwt>
</event>
<event>
 6    1  0.1603085E-006  0.2302316E+04  0.7818608E-02  0.8477009E-01
          2   -1    0    0  501    0  0.00000000000E+00  0.00000000000E+00  0.92494207147E+03  0.92494207147E+03  0.00000000000E+00 0. -1.
         -2   -1    0    0    0  501 -0.00000000000E+00 -0.00000000000E+00 -0.14327000579E+04  0.14327000579E+04  0.00000000000E+00 0.  1.
         23    2    1    2    0    0  0.35451101914E+03  0.46513740439E+03 -0.12673836556E+04  0.13989649028E+04  0.93864802714E+02 0.  0.
         13    1    3    3    0    0  0.15315177815E+03  0.14076984391E+03 -0.38701579024E+03  0.43937778506E+03  0.00000000000E+00 0. -1.
        -13    1    3    3    0    0  0.20135924099E+03  0.32436756048E+03 -0.88036786535E+03  0.95958711775E+03  0.00000000000E+00 0.  1.
         22    1    1    2    0    0 -0.35451101914E+03 -0.46513740439E+03  0.75962566911E+03  0.95867722661E+03  0.00000000000E+00 0. -1.
<mgrwt>
<rscale>  0 0.23023158E+04</rscale>
<asrwt>0</asrwt>
<pdfrwt beam="1">  1        2 0.14229878E+00 0.23023158E+04</pdfrwt>
<pdfrwt beam="2">  1       -2 0.22041539E+00 0.23023158E+04</pdfrwt>
<totfact> 0.25113222E+00</totfact>
</mgrwt>
</event>
<event>
 6    1  0.1603085E-006  0.1465102E+04  0.7818608E-02  0.8907997E-01
          2   -1    0    0  501    0  0.00000000000E+00  0.00000000000E+00  0.87340136727E+03  0.87340136727E+03  0.00000000000E+00 0. -1.
         -2   -1    0    0    0  501 -0.00000000000E+00 -0.00000000000E+00 -0.61441535633E+03  0.61441535633E+03  0.00000000000E+00 0.  1.
         23    2    1    2    0    0  0.26900005747E+03  0.67747300391E+03  0.97194667629E+02  0.74115271569E+03  0.92357147032E+02 0.  0.
         11    1    3    3    0    0  0.21613646415E+03  0.45094660112E+03  0.92135612910E+02  0.50848478774E+03  0.00000000000E+00 0.  1.
        -11    1    3    3    0    0  0.52863593319E+02  0.22652640280E+03  0.50590547185E+01  0.23266792795E+03  0.00000000000E+00 0. -1.
         22    1    1    2    0    0 -0.26900005747E+03 -0.67747300391E+03  0.16179134331E+03  0.74666400792E+03  0.00000000000E+00 0. -1.
<mgrwt>
<rscale>  0 0.14651023E+04</rscale>
<asrwt>0</asrwt>
<pdfrwt beam="1">  1        2 0.13436944E+00 0.14651023E+04</pdfrwt>
<pdfrwt beam="2">  1       -2 0.94525440E-01 0.14651023E+04</pdfrwt>
<totfact> 0.27935928E+01</totfact>
</mgrwt>
</event>
<event>
 6    1  0.1603085E-006  0.2142840E+04  0.7818608E-02  0.8542603E-01
          2   -1    0    0  501    0  0.00000000000E+00  0.00000000000E+00  0.18434921628E+04  0.18434921628E+04  0.00000000000E+00 0. -1.
         -2   -1    0    0    0  501 -0.00000000000E+00 -0.00000000000E+00 -0.62269919310E+03  0.62269919310E+03  0.00000000000E+00 0.  1.
         23    2    1    2    0    0 -0.53902210368E+03 -0.83374357635E+03  0.15340003473E+03  0.10084530882E+04  0.88163944864E+02 0.  0.
         11    1    3    3    0    0 -0.19133589438E+03 -0.22437729555E+03  0.34936346257E+02  0.29694299710E+03  0.00000000000E+00 0.  1.
        -11    1    3    3    0    0 -0.34768620930E+03 -0.60936628080E+03  0.11846368847E+03  0.71151009114E+03  0.00000000000E+00 0. -1.
         22    1    1    2    0    0  0.53902210368E+03  0.83374357635E+03  0.10673929350E+04  0.14577382677E+04  0.00000000000E+00 0. -1.
<mgrwt>
<rscale>  0 0.21428402E+04</rscale>
<asrwt>0</asrwt>
<pdfrwt beam="1">  1        2 0.28361418E+00 0.21428402E+04</pdfrwt>
<pdfrwt beam="2">  1       -2 0.95799877E-01 0.21428402E+04</pdfrwt>
<totfact> 0.68499679E+00</totfact>
</mgrwt>
</event>
<event>
 6    1  0.1603085E-006  0.9872961E+03  0.7818608E-02  0.9322589E-01
          2   -1    0    0  501    0  0.00000000000E+00  0.00000000000E+00  0.77452843065E+03  0.77452843065E+03  0.00000000000E+00 0. -1.
         -2   -1    0    0    0  501 -0.00000000000E+00 -0.00000000000E+00 -0.31462810842E+03  0.31462810842E+03  0.00000000000E+00 0.  1.
         23    2    1    2    0    0  0.27837631340E+03  0.37865798235E+03  0.81547746219E+02  0.48581094057E+03  0.92124891349E+02 0.  0.
         13    1    3    3    0    0  0.23828511342E+03  0.36626331824E+03  0.74605831317E+02  0.44327716345E+03  0.00000000000E+00 0.  1.
        -13    1    3    3    0    0  0.40091199978E+02  0.12394664111E+02  0.69419149011E+01  0.42533777126E+02  0.00000000000E+00 0. -1.
         22    1    1    2    0    0 -0.27837631340E+03 -0.37865798235E+03  0.37835257601E+03  0.60334559850E+03  0.00000000000E+00 0. -1.
<mgrwt>
<rscale>  0 0.98729614E+03</rscale>
<asrwt>0</asrwt>
<pdfrwt beam="1">  1        2 0.11915822E+00 0.98729614E+03</pdfrwt>
<pdfrwt beam="2">  1       -2 0.48404325E-01 0.98729614E+03</pdfrwt>
<totfact> 0.14520212E+02</totfact>
</mgrwt>
</event>
<event>
 6    1  0.1603085E-006  0.2096159E+04  0.7818608E-02  0.8562937E-01
          1   -1    0    0  501    0  0.00000000000E+00  0.00000000000E+00  0.67580882178E+03  0.67580882178E+03  0.00000000000E+00 0. -1.
         -1   -1    0    0    0  501 -0.00000000000E+00 -0.00000000000E+00 -0.16254164013E+04  0.16254164013E+04  0.00000000000E+00 0.  1.
         23    2    1    2    0    0 -0.42957061289E+03 -0.94926495849E+03 -0.57801708561E+03  0.11950089838E+04  0.91147393115E+02 0.  0.
         11    1    3    3    0    0 -0.12492267895E+03 -0.29260730681E+03 -0.22466726794E+03  0.38948696126E+03  0.00000000000E+00 0.  1.
        -11    1    3    3    0    0 -0.30464793394E+03 -0.65665765168E+03 -0.35334981768E+03  0.80552202256E+03  0.00000000000E+00 0. -1.
         22    1    1    2    0    0  0.42957061289E+03  0.94926495849E+03 -0.37159049395E+03  0.11062162393E+04  0.00000000000E+00 0. -1.
<mgrwt>
<rscale>  0 0.20961591E+04</rscale>
<asrwt>0</asrwt>
<pdfrwt beam="1">  1        1 0.10397059E+00 0.20961591E+04</pdfrwt>
<pdfrwt beam="2">  1       -1 0.25006406E+00 0.20961591E+04</pdfrwt>
<totfact> 0.18411925E+00</totfact>
</mgrwt>
</event>
<event>
 6    1  0.1603085E-006  0.2065881E+04  0.7818608E-02  0.8576424E-01
         -2   -1    0    0    0  501 -0.00000000000E+00  0.00000000000E+00  0.22977099226E+03  0.22977099226E+03  0.00000000000E+00 0.  1.
          2   -1    0    0  501    0  0.00000000000E+00 -0.00000000000E+00 -0.46436065051E+04  0.46436065051E+04  0.00000000000E+00 0. -1.
         23    2    1    2    0    0 -0.89720302290E+03 -0.37314749194E+03 -0.30230434185E+04  0.31767588117E+04  0.93769516619E+02 0.  0.
         11    1    3    3    0    0 -0.30140516076E+03 -0.15200230669E+03 -0.93046293914E+03  0.98980354277E+03  0.00000000000E+00 0. -1.
        -11    1    3    3    0    0 -0.59579786213E+03 -0.22114518524E+03 -0.20925804794E+04  0.21869552689E+04  0.00000000000E+00 0.  1.
         22    1    1    2    0    0  0.89720302290E+03  0.37314749194E+03 -0.13907920943E+04  0.16966186857E+04  0.00000000000E+00 0.  1.
<mgrwt>
<rscale>  0 0.20658810E+04</rscale>
<asrwt>0</asrwt>
<pdfrwt beam="1">  1        2 0.71440103E+00 0.20658810E+04</pdfrwt>
<pdfrwt beam="2">  1       -2 0.35349382E-01 0.20658810E+04</pdfrwt>
<totfact> 0.62215797E-01</totfact>
</mgrwt>
</event>
<event>
 6    1  0.1603085E-006  0.2514729E+04  0.7818608E-02  0.8397757E-01
          1   -1    0    0  501    0  0.00000000000E+00  0.00000000000E+00  0.15460759288E+04  0.15460759288E+04  0.00000000000E+00 0. -1.
         -1   -1    0    0    0  501 -0.00000000000E+00 -0.00000000000E+00 -0.10225668316E+04  0.10225668316E+04  0.00000000000E+00 0.  1.
         23    2    1    2    0    0  0.11116508788E+04 -0.16268323084E+03 -0.31085945002E+03  0.11692127398E+04  0.90505929870E+02 0.  0.
         13    1    3    3    0    0  0.22671710272E+03 -0.19103153401E+02 -0.98329603409E+02  0.24785940781E+03  0.00000000000E+00 0. -1.
        -13    1    3    3    0    0  0.88493377607E+03 -0.14358007744E+03 -0.21252984661E+03  0.92135333199E+03  0.00000000000E+00 0.  1.
         22    1    1    2    0    0 -0.11116508788E+04  0.16268323084E+03  0.83436854729E+03  0.13994300206E+04  0.00000000000E+00 0. -1.
<mgrwt>
<rscale>  0 0.25147294E+04</rscale>
<asrwt>0</asrwt>
<pdfrwt beam="1">  1        1 0.23785784E+00 0.25147294E+04</pdfrwt>
<pdfrwt beam="2">  1       -1 0.15731797E+00 0.25147294E+04</pdfrwt>
<totfact> 0.16520916E+00</totfact>
</mgrwt>
</event>
<event>
 6    1  0.1603085E-006  0.3314277E+04  0.7818608E-02  0.8159272E-01
         -1   -1    0    0    0  501 -0.00000000000E+00  0.00000000000E+00  0.16062329390E+04  0.16062329390E+04  0.00000000000E+00 0. -1.
          1   -1    0    0  501    0  0.00000000000E+00 -0.00000000000E+00 -0.17096577956E+04  0.17096577956E+04  0.00000000000E+00 0.  1.
         23    2    1    2    0    0  0.11379568665E+04 -0.72553047298E+03 -0.10117394198E+04  0.16891222684E+04  0.90427245156E+02 0.  0.
         11    1    3    3    0    0  0.93400871517E+03 -0.56837367929E+03 -0.78413071594E+03  0.13454671676E+04  0.00000000000E+00 0.  1.
        -11    1    3    3    0    0  0.20394815137E+03 -0.15715679369E+03 -0.22760870382E+03  0.34365510080E+03  0.00000000000E+00 0. -1.
         22    1    1    2    0    0 -0.11379568665E+04  0.72553047298E+03  0.90831456316E+03  0.16267684663E+04  0.00000000000E+00 0. -1.
<mgrwt>
<rscale>  0 0.33142774E+04</rscale>
<asrwt>0</asrwt>
<pdfrwt beam="1">  1        1 0.26302428E+00 0.33142774E+04</pdfrwt>
<pdfrwt beam="2">  1       -1 0.24711276E+00 0.33142774E+04</pdfrwt>
<totfact> 0.28325540E-01</totfact>
</mgrwt>
</event>
<event>
 6    1  0.1603085E-006  0.3275225E+04  0.7818608E-02  0.8169228E-01
          1   -1    0    0  501    0  0.00000000000E+00  0.00000000000E+00  0.16167017383E+04  0.16167017383E+04  0.00000000000E+00 0. -1.
         -1   -1    0    0    0  501 -0.00000000000E+00 -0.00000000000E+00 -0.16587937319E+04  0.16587937319E+04  0.00000000000E+00 0.  1.
         23    2    1    2    0    0 -0.15307963197E+04 -0.34482362011E+03 -0.48508510086E+03  0.16450097774E+04  0.92243759281E+02 0.  0.
         11    1    3    3    0    0 -0.91541397740E+03 -0.18229456394E+03 -0.24766841617E+03  0.96568820146E+03  0.00000000000E+00 0. -1.
        -11    1    3    3    0    0 -0.61538234230E+03 -0.16252905617E+03 -0.23741668469E+03  0.67932157590E+03  0.00000000000E+00 0.  1.
         22    1    1    2    0    0  0.15307963197E+04  0.34482362011E+03  0.44299310733E+03  0.16304856928E+04  0.00000000000E+00 0. -1.
<mgrwt>
<rscale>  0 0.32752250E+04</rscale>
<asrwt>0</asrwt>
<pdfrwt beam="1">  1        1 0.24872334E+00 0.32752250E+04</pdfrwt>
<pdfrwt beam="2">  1       -1 0.25519904E+00 0.32752250E+04</pdfrwt>
<totfact> 0.29132051E-01</totfact>
</mgrwt>
</event>
<event>
 6    1  0.1603085E-006  0.2064332E+04  0.7818608E-02  0.8577120E-01
          2   -1    0    0  501    0  0.00000000000E+00  0.00000000000E+00  0.16674015080E+04  0.16674015080E+04  0.00000000000E+00 0. -1.
         -2   -1    0    0    0  501 -0.00000000000E+00 -0.00000000000E+00 -0.63893812303E+03  0.63893812303E+03  0.00000000000E+00 0.  1.
         23    2    1    2    0    0  0.66036097535E+03 -0.67964501491E+03  0.96636479240E+03  0.13566816930E+04  0.93436288753E+02 0.  0.
         13    1    3    3    0    0  0.28717866300E+03 -0.32452020229E+03  0.38207359287E+03  0.57772413533E+03  0.00000000000E+00 0. -1.
        -13    1    3    3    0    0  0.37318231235E+03 -0.35512481262E+03  0.58429119953E+03  0.77895755767E+03  0.00000000000E+00 0.  1.
         22    1    1    2    0    0 -0.66036097535E+03  0.67964501491E+03  0.62098592568E+02  0.94965793803E+03  0.00000000000E+00 0.  1.
<mgrwt>
<rscale>  0 0.20643317E+04</rscale>
<asrwt>0</asrwt>
<pdfrwt beam="1">  1        2 0.25652331E+00 0.20643317E+04</pdfrwt>
<pdfrwt beam="2">  1       -2 0.98298173E-01 0.20643317E+04</pdfrwt>
<totfact> 0.81301830E+00</totfact>
</mgrwt>
</event>
<event>
 6    1  0.1603085E-006  0.2330785E+04  0.7818608E-02  0.8465881E-01
         -2   -1    0    0    0  501 -0.00000000000E+00  0.00000000000E+00  0.10039142137E+04  0.10039142137E+04  0.00000000000E+00 0.  1.
          2   -1    0    0  501    0  0.00000000000E+00 -0.00000000000E+00 -0.13528441849E+04  0.13528441849E+04  0.00000000000E+00 0. -1.
         23    2    1    2    0    0 -0.33168861257E+03  0.15135055437E+03  0.94268181232E+03  0.10146759402E+04  0.89408826719E+02 0.  0.
         11    1    3    3    0    0 -0.20826913622E+03  0.10244018679E+03  0.70766278818E+03  0.74475274202E+03  0.00000000000E+00 0. -1.
        -11    1    3    3    0    0 -0.12341947636E+03  0.48910367587E+02  0.23501902414E+03  0.26992319817E+03  0.00000000000E+00 0.  1.
         22    1    1    2    0    0  0.33168861257E+03 -0.15135055437E+03 -0.12916117835E+04  0.13420824585E+04  0.00000000000E+00 0. -1.
<mgrwt>
<rscale>  0 0.23307849E+04</rscale>
<asrwt>0</asrwt>
<pdfrwt beam="1">  1        2 0.20812988E+00 0.23307849E+04</pdfrwt>
<pdfrwt beam="2">  1       -2 0.15444834E+00 0.23307849E+04</pdfrwt>
<totfact> 0.38613733E+00</totfact>
</mgrwt>
</event>
<event>
 6    1  0.1603085E-006  0.1837504E+04  0.7818608E-02  0.8686605E-01
         -1   -1    0    0    0  501 -0.00000000000E+00  0.00000000000E+00  0.55147535017E+03  0.55147535017E+03  0.00000000000E+00 0.  1.
          1   -1    0    0  501    0  0.00000000000E+00 -0.00000000000E+00 -0.15306315749E+04  0.15306315749E+04  0.00000000000E+00 0. -1.
         23    2    1    2    0    0 -0.13708848837E+03 -0.75670509831E+03 -0.10557272310E+04  0.13092816030E+04  0.90898130633E+02 0.  0.
         13    1    3    3    0    0 -0.51807570191E+02 -0.15254298846E+03 -0.27085657272E+03  0.31514547537E+03  0.00000000000E+00 0. -1.
        -13    1    3    3    0    0 -0.85280918176E+02 -0.60416210985E+03 -0.78487065832E+03  0.99413612764E+03  0.00000000000E+00 0.  1.
         22    1    1    2    0    0  0.13708848837E+03  0.75670509831E+03  0.76571006296E+02  0.77282532208E+03  0.00000000000E+00 0.  1.
<mgrwt>
<rscale>  0 0.18375044E+04</rscale>
<asrwt>0</asrwt>
<pdfrwt beam="1">  1        1 0.23548178E+00 0.18375044E+04</pdfrwt>
<pdfrwt beam="2">  1       -1 0.84842362E-01 0.18375044E+04</pdfrwt>
<totfact> 0.80542618E+00</totfact>
</mgrwt>
</event>
<event>
 6    1  0.1603085E-006  0.2397142E+04  0.7818608E-02  0.8440574E-01
          2   -1    0    0  501    0  0.00000000000E+00  0.00000000000E+00  0.11486981817E+04  0.11486981817E+04  0.00000000000E+00 0. -1.
         -2   -1    0    0    0  501 -0.00000000000E+00 -0.00000000000E+00 -0.12506091309E+04  0.12506091309E+04  0.00000000000E+00 0.  1.
         23    2    1    2    0    0  0.74613292347E+03  0.67713520043E+03  0.59572527478E+03  0.11737777454E+04  0.87402365127E+02 0.  0.
         13    1    3    3    0    0  0.39776969219E+03  0.30210680743E+03  0.29758803390E+03  0.58141885852E+03  0.00000000000E+00 0.  1.
        -13    1    3    3    0    0  0.34836323128E+03  0.37502839300E+03  0.29813724088E+03  0.59235888688E+03  0.00000000000E+00 0. -1.
         22    1    1    2    0    0 -0.74613292347E+03 -0.67713520043E+03 -0.69763622397E+03  0.12255295672E+04  0.00000000000E+00 0.  1.
<mgrwt>
<rscale>  0 0.23971420E+04</rscale>
<asrwt>0</asrwt>
<pdfrwt beam="1">  1        2 0.17672280E+00 0.23971420E+04</pdfrwt>
<pdfrwt beam="2">  1       -2 0.19240140E+00 0.23971420E+04</pdfrwt>
<totfact> 0.27322996E+00</totfact>
</mgrwt>
</event>
<event>
 6    1  0.1603085E-006  0.7025388E+03  0.7818608E-02  0.9712900E-01
          1   -1    0    0  501    0  0.00000000000E+00  0.00000000000E+00  0.11071995694E+04  0.11071995694E+04  0.00000000000E+00 0. -1.
         -1   -1    0    0    0  501 -0.00000000000E+00 -0.00000000000E+00 -0.11144351167E+03  0.11144351167E+03  0.00000000000E+00 0.  1.
         23    2    1    2    0    0  0.26033797147E+03  0.13780424943E+03  0.81932976046E+03  0.87528887778E+03  0.89796952231E+02 0.  0.
         11    1    3    3    0    0  0.12370783198E+03  0.77695033239E+02  0.28173277776E+03  0.31735390961E+03  0.00000000000E+00 0.  1.
        -11    1    3    3    0    0  0.13663013949E+03  0.60109216194E+02  0.53759698270E+03  0.55793496816E+03  0.00000000000E+00 0. -1.
         22    1    1    2    0    0 -0.26033797147E+03 -0.13780424943E+03  0.17642629727E+03  0.34335420329E+03  0.00000000000E+00 0.  1.
<mgrwt>
<rscale>  0 0.70253885E+03</rscale>
<asrwt>0</asrwt>
<pdfrwt beam="1">  1        1 0.17033839E+00 0.70253885E+03</pdfrwt>
<pdfrwt beam="2">  1       -1 0.17145156E-01 0.70253885E+03</pdfrwt>
<totfact> 0.33542304E+02</totfact>
</mgrwt>
</event>
<event>
 6    1  0.1603085E-006  0.2403579E+04  0.7818608E-02  0.8438165E-01
          1   -1    0    0  501    0  0.00000000000E+00  0.00000000000E+00  0.25369267235E+04  0.25369267235E+04  0.00000000000E+00 0. -1.
         -1   -1    0    0    0  501 -0.00000000000E+00 -0.00000000000E+00 -0.56931008173E+03  0.56931008173E+03  0.00000000000E+00 0.  1.
         23    2    1    2    0    0 -0.28660222595E+03 -0.76928825030E+03 -0.14689169722E+03  0.83795755354E+03  0.81550247359E+02 0.  0.
         13    1    3    3    0    0 -0.25601299774E+03 -0.59750342885E+03 -0.12712173166E+03  0.66235408745E+03  0.00000000000E+00 0. -1.
        -13    1    3    3    0    0 -0.30589228207E+02 -0.17178482145E+03 -0.19769965563E+02  0.17560346608E+03  0.00000000000E+00 0.  1.
         22    1    1    2    0    0  0.28660222595E+03  0.76928825030E+03  0.21145083390E+04  0.22682792517E+04  0.00000000000E+00 0. -1.
<mgrwt>
<rscale>  0 0.24035790E+04</rscale>
<asrwt>0</asrwt>
<pdfrwt beam="1">  1        1 0.39029641E+00 0.24035790E+04</pdfrwt>
<pdfrwt beam="2">  1       -1 0.87586168E-01 0.24035790E+04</pdfrwt>
<totfact> 0.14667404E+00</totfact>
</mgrwt>
</event>
<event>
 6    1  0.1603085E-006  0.4628907E+04  0.7818608E-02  0.7888450E-01
         -2   -1    0    0    0  501 -0.00000000000E+00  0.00000000000E+00  0.24254431444E+04  0.24254431444E+04  0.00000000000E+00 0.  1.
          2   -1    0    0  501    0  0.00000000000E+00 -0.00000000000E+00 -0.22085432213E+04  0.22085432213E+04  0.00000000000E+00 0. -1.
         23    2    1    2    0    0 -0.17328612828E+04  0.14804955314E+04  0.50596709467E+03  0.23365453820E+04  0.93628936551E+02 0.  0.
         13    1    3    3    0    0 -0.10542791877E+04  0.84239649227E+03  0.28678436052E+03  0.13796310106E+04  0.00000000000E+00 0.  1.
        -13    1    3    3    0    0 -0.67858209505E+03  0.63809903910E+03  0.21918273414E+03  0.95691437149E+03  0.00000000000E+00 0. -1.
         22    1    1    2    0    0  0.17328612828E+04 -0.14804955314E+04 -0.28906717160E+03  0.22974409837E+04  0.00000000000E+00 0.  1.
<mgrwt>
<rscale>  0 0.46289074E+04</rscale>
<asrwt>0</asrwt>
<pdfrwt beam="1">  1        2 0.33977588E+00 0.46289074E+04</pdfrwt>
<pdfrwt beam="2">  1       -2 0.37314510E+00 0.46289074E+04</pdfrwt>
<totfact> 0.42446164E-02</totfact>
</mgrwt>
</event>
<event>
 6    1  0.1603085E-006  0.1494718E+04  0.7818608E-02  0.8887973E-01
         -1   -1    0    0    0  501 -0.00000000000E+00  0.00000000000E+00  0.11867644211E+04  0.11867644211E+04  0.00000000000E+00 0.  1.
          1   -1    0    0  501    0  0.00000000000E+00 -0.00000000000E+00 -0.47064574411E+03  0.47064574411E+03  0.00000000000E+00 0. -1.
         23    2    1    2    0    0  0.65281252351E+03 -0.28065306858E+03  0.60619686322E+03  0.93837390682E+03  0.90225363789E+02 0.  0.
         13    1    3    3    0    0  0.89225134594E+02 -0.55875336917E+02  0.12861690538E+03  0.16620916421E+03  0.00000000000E+00 0.  1.
        -13    1    3    3    0    0  0.56358738892E+03 -0.22477773166E+03  0.47757995784E+03  0.77216474261E+03  0.00000000000E+00 0. -1.
         22    1    1    2    0    0 -0.65281252351E+03  0.28065306858E+03  0.10992181379E+03  0.71903625841E+03  0.00000000000E+00 0. -1.
<mgrwt>
<rscale>  0 0.14947182E+04</rscale>
<asrwt>0</asrwt>
<pdfrwt beam="1">  1        1 0.72407038E-01 0.14947182E+04</pdfrwt>
<pdfrwt beam="2">  1       -1 0.18257914E+00 0.14947182E+04</pdfrwt>
<totfact> 0.92955279E+00</totfact>
</mgrwt>
</event>
<event>
 6    1  0.1603085E-006  0.1978655E+04  0.7818608E-02  0.8616666E-01
          2   -1    0    0  501    0  0.00000000000E+00  0.00000000000E+00  0.20607464851E+04  0.20607464851E+04  0.00000000000E+00 0. -1.
         -2   -1    0    0    0  501 -0.00000000000E+00 -0.00000000000E+00 -0.47495856999E+03  0.47495856999E+03  0.00000000000E+00 0.  1.
         23    2    1    2    0    0  0.73431558130E+03 -0.63978021353E+03  0.10014735942E+04  0.13999404139E+04  0.91354846686E+02 0.  0.
         13    1    3    3    0    0  0.65806163531E+03 -0.60448015518E+03  0.92886054345E+03  0.12888845111E+04  0.00000000000E+00 0. -1.
        -13    1    3    3    0    0  0.76253945986E+02 -0.35300058351E+02  0.72613050776E+02  0.11105590277E+03  0.00000000000E+00 0.  1.
         22    1    1    2    0    0 -0.73431558130E+03  0.63978021353E+03  0.58431432091E+03  0.11357646412E+04  0.00000000000E+00 0.  1.
<mgrwt>
<rscale>  0 0.19786553E+04</rscale>
<asrwt>0</asrwt>
<pdfrwt beam="1">  1        2 0.31703792E+00 0.19786553E+04</pdfrwt>
<pdfrwt beam="2">  1       -2 0.73070551E-01 0.19786553E+04</pdfrwt>
<totfact> 0.97290751E+00</totfact>
</mgrwt>
</event>
<event>
 6    1  0.1603085E-006  0.1361878E+04  0.7818608E-02  0.8981885E-01
         -2   -1    0    0    0  501 -0.00000000000E+00  0.00000000000E+00  0.27186601259E+03  0.27186601259E+03  0.00000000000E+00 0.  1.
          2   -1    0    0  501    0  0.00000000000E+00 -0.00000000000E+00 -0.17055380433E+04  0.17055380433E+04  0.00000000000E+00 0. -1.
         23    2    1    2    0    0  0.10919210750E+02 -0.54641720709E+03 -0.13022730909E+04  0.14153038204E+04  0.92079896342E+02 0.  0.
         11    1    3    3    0    0 -0.20303458649E+02 -0.36305240354E+02 -0.72889133942E+02  0.83923338572E+02  0.00000000000E+00 0. -1.
        -11    1    3    3    0    0  0.31222669400E+02 -0.51011196673E+03 -0.12293839570E+04  0.13313804818E+04  0.00000000000E+00 0.  1.
         22    1    1    2    0    0 -0.10919210750E+02  0.54641720709E+03 -0.13139893978E+03  0.56210023549E+03  0.00000000000E+00 0.  1.
<mgrwt>
<rscale>  0 0.13618779E+04</rscale>
<asrwt>0</asrwt>
<pdfrwt beam="1">  1        2 0.26239047E+00 0.13618779E+04</pdfrwt>
<pdfrwt beam="2">  1       -2 0.41825540E-01 0.13618779E+04</pdfrwt>
<totfact> 0.51472490E+01</totfact>
</mgrwt>
</event>
<event>
 6    1  0.1603085E-006  0.2849316E+04  0.7818608E-02  0.8288119E-01
          2   -1    0    0  501    0  0.00000000000E+00  0.00000000000E+00  0.13211270580E+04  0.13211270580E+04  0.00000000000E+00 0. -1.
         -2   -1    0    0    0  501 -0.00000000000E+00 -0.00000000000E+00 -0.15363017259E+04  0.15363017259E+04  0.00000000000E+00 0.  1.
         23    2    1    2    0    0  0.10572382076E+04  0.77843476654E+02  0.84469846679E+03  0.13583813210E+04  0.88724737618E+02 0.  0.
         13    1    3    3    0    0  0.91835332696E+03  0.94110282907E+02  0.75103088991E+03  0.11900743574E+04  0.00000000000E+00 0.  1.
        -13    1    3    3    0    0  0.13888488065E+03 -0.16266806254E+02  0.93667576877E+02  0.16830696366E+03  0.00000000000E+00 0. -1.
         22    1    1    2    0    0 -0.10572382076E+04 -0.77843476654E+02 -0.10598731346E+04  0.14990474629E+04  0.00000000000E+00 0.  1.
<mgrwt>
<rscale>  0 0.28493156E+04</rscale>
<asrwt>0</asrwt>
<pdfrwt beam="1">  1        2 0.20325032E+00 0.28493156E+04</pdfrwt>
<pdfrwt beam="2">  1       -2 0.23635411E+00 0.28493156E+04</pdfrwt>
<totfact> 0.10868223E+00</totfact>
</mgrwt>
</event>
<event>
 6    1  0.1603085E-006  0.1049384E+04  0.7818608E-02  0.9255980E-01
          2   -1    0    0  501    0  0.00000000000E+00  0.00000000000E+00  0.11628587543E+04  0.11628587543E+04  0.00000000000E+00 0. -1.
         -2   -1    0    0    0  501 -0.00000000000E+00 -0.00000000000E+00 -0.23674557854E+03  0.23674557854E+03  0.00000000000E+00 0.  1.
         23    2    1    2    0    0 -0.22869554215E+03  0.41421107152E+03  0.75576622775E+03  0.89672209465E+03  0.95160187372E+02 0.  0.
         13    1    3    3    0    0 -0.10605085053E+03  0.21448034624E+03  0.46771779532E+03  0.52536514719E+03  0.00000000000E+00 0. -1.
        -13    1    3    3    0    0 -0.12264469163E+03  0.19973072528E+03  0.28804843242E+03  0.37135694746E+03  0.00000000000E+00 0.  1.
         22    1    1    2    0    0  0.22869554215E+03 -0.41421107152E+03  0.17034694800E+03  0.50288223817E+03  0.00000000000E+00 0.  1.
<mgrwt>
<rscale>  0 0.10493839E+04</rscale>
<asrwt>0</asrwt>
<pdfrwt beam="1">  1        2 0.17890134E+00 0.10493839E+04</pdfrwt>
<pdfrwt beam="2">  1       -2 0.36422397E-01 0.10493839E+04</pdfrwt>
<totfact> 0.14075096E+02</totfact>
</mgrwt>
</event>
<event>
 6    1  0.1603085E-006  0.2093083E+04  0.7818608E-02  0.8564296E-01
          2   -1    0    0  501    0  0.00000000000E+00  0.00000000000E+00  0.22952161796E+04  0.22952161796E+04  0.00000000000E+00 0. -1.
         -2   -1    0    0    0  501 -0.00000000000E+00 -0.00000000000E+00 -0.47718783033E+03  0.47718783033E+03  0.00000000000E+00 0.  1.
         23    2    1    2    0    0  0.56217402362E+03  0.13144857856E+03 -0.24224626355E+03  0.63276622706E+03  0.91605045015E+02 0.  0.
         11    1    3    3    0    0  0.43912753240E+03  0.12804690252E+03 -0.22041533693E+03  0.50775182886E+03  0.00000000000E+00 0. -1.
        -11    1    3    3    0    0  0.12304649122E+03  0.34016760410E+01 -0.21830926614E+02  0.12501439820E+03  0.00000000000E+00 0.  1.
         22    1    1    2    0    0 -0.56217402362E+03 -0.13144857856E+03  0.20602746129E+04  0.21396377829E+04  0.00000000000E+00 0. -1.
<mgrwt>
<rscale>  0 0.20930831E+04</rscale>
<asrwt>0</asrwt>
<pdfrwt beam="1">  1        2 0.35311017E+00 0.20930831E+04</pdfrwt>
<pdfrwt beam="2">  1       -2 0.73413514E-01 0.20930831E+04</pdfrwt>
<totfact> 0.70428159E+00</totfact>
</mgrwt>
</event>
<event>
 6    1  0.2825279E-006  0.4481625E+04  0.7818608E-02  0.7913862E-01
         -2   -1    0    0    0  501 -0.00000000000E+00  0.00000000000E+00  0.14200597614E+04  0.14200597614E+04  0.00000000000E+00 0.  1.
          2   -1    0    0  501    0  0.00000000000E+00 -0.00000000000E+00 -0.35359358558E+04  0.35359358558E+04  0.00000000000E+00 0. -1.
         23    2    1    2    0    0 -0.31956063912E+03 -0.51014647080E+03  0.13275346853E+04  0.14603631677E+04  0.89128093541E+02 0.  0.
         13    1    3    3    0    0 -0.11996909784E+03 -0.23614182184E+03  0.67317470135E+03  0.72340840678E+03  0.00000000000E+00 0. -1.
        -13    1    3    3    0    0 -0.19959154128E+03 -0.27400464896E+03  0.65435998395E+03  0.73695476089E+03  0.00000000000E+00 0.  1.
         22    1    1    2    0    0  0.31956063912E+03  0.51014647080E+03 -0.34434107798E+04  0.34956324495E+04  0.00000000000E+00 0. -1.
<mgrwt>
<rscale>  0 0.44816248E+04</rscale>
<asrwt>0</asrwt>
<pdfrwt beam="1">  1        2 0.54399013E+00 0.44816248E+04</pdfrwt>
<pdfrwt beam="2">  1       -2 0.21847073E+00 0.44816248E+04</pdfrwt>
<totfact> 0.58703546E-02</totfact>
</mgrwt>
</event>
<event>
 6    1  0.1603085E-006  0.2534295E+04  0.7818608E-02  0.8390869E-01
         -2   -1    0    0    0  501 -0.00000000000E+00  0.00000000000E+00  0.71698722042E+03  0.71698722042E+03  0.00000000000E+00 0.  1.
          2   -1    0    0  501    0  0.00000000000E+00 -0.00000000000E+00 -0.22394586135E+04  0.22394586135E+04  0.00000000000E+00 0. -1.
         23    2    1    2    0    0 -0.43767300928E+03  0.11866165746E+04 -0.81644239922E+03  0.15079661142E+04  0.88130880228E+02 0.  0.
         11    1    3    3    0    0 -0.13147808575E+02  0.88449386489E+02 -0.42542030740E+02  0.99025164580E+02  0.00000000000E+00 0.  1.
        -11    1    3    3    0    0 -0.42452520070E+03  0.10981671882E+04 -0.77390036848E+03  0.14089409496E+04  0.00000000000E+00 0. -1.
         22    1    1    2    0    0  0.43767300928E+03 -0.11866165746E+04 -0.70602899386E+03  0.14484797197E+04  0.00000000000E+00 0. -1.
<mgrwt>
<rscale>  0 0.25342953E+04</rscale>
<asrwt>0</asrwt>
<pdfrwt beam="1">  1        2 0.34453209E+00 0.25342953E+04</pdfrwt>
<pdfrwt beam="2">  1       -2 0.11030573E+00 0.25342953E+04</pdfrwt>
<totfact> 0.28470849E+00</totfact>
</mgrwt>
</event>
<event>
 6    1  0.1603085E-006  0.7707458E+03  0.7818608E-02  0.9603354E-01
          2   -1    0    0  501    0  0.00000000000E+00  0.00000000000E+00  0.13445934214E+04  0.13445934214E+04  0.00000000000E+00 0.  1.
         -2   -1    0    0    0  501 -0.00000000000E+00 -0.00000000000E+00 -0.11045143020E+03  0.11045143020E+03  0.00000000000E+00 0. -1.
         23    2    1    2    0    0  0.23463862158E+03 -0.29854102692E+03  0.67162240969E+03  0.77636207808E+03  0.86483452689E+02 0.  0.
         13    1    3    3    0    0  0.98459233407E+02 -0.19361335783E+03  0.35940145914E+03  0.41994018836E+03  0.00000000000E+00 0. -1.
        -13    1    3    3    0    0  0.13617938818E+03 -0.10492766910E+03  0.31222095055E+03  0.35642188972E+03  0.00000000000E+00 0.  1.
         22    1    1    2    0    0 -0.23463862158E+03  0.29854102692E+03  0.56251958154E+03  0.67868277355E+03  0.00000000000E+00 0.  1.
<mgrwt>
<rscale>  0 0.77074579E+03</rscale>
<asrwt>0</asrwt>
<pdfrwt beam="1">  1        2 0.20686052E+00 0.77074579E+03</pdfrwt>
<pdfrwt beam="2">  1       -2 0.16992529E-01 0.77074579E+03</pdfrwt>
<totfact> 0.44497387E+02</totfact>
</mgrwt>
</event>
<event>
 6    1  0.1603085E-006  0.3528682E+04  0.7818608E-02  0.8107026E-01
          1   -1    0    0  501    0  0.00000000000E+00  0.00000000000E+00  0.26395356704E+04  0.26395356704E+04  0.00000000000E+00 0. -1.
         -1   -1    0    0    0  501 -0.00000000000E+00 -0.00000000000E+00 -0.11793362053E+04  0.11793362053E+04  0.00000000000E+00 0.  1.
         23    2    1    2    0    0 -0.15599053480E+04 -0.80976185574E+03  0.57939402013E+03  0.18529529584E+04  0.93371719307E+02 0.  0.
         13    1    3    3    0    0 -0.62632860082E+03 -0.32188679747E+03  0.18422757536E+03  0.72790001107E+03  0.00000000000E+00 0.  1.
        -13    1    3    3    0    0 -0.93357674714E+03 -0.48787505827E+03  0.39516644477E+03  0.11250529474E+04  0.00000000000E+00 0. -1.
         22    1    1    2    0    0  0.15599053480E+04  0.80976185574E+03  0.88080544491E+03  0.19659189173E+04  0.00000000000E+00 0.  1.
<mgrwt>
<rscale>  0 0.35286825E+04</rscale>
<asrwt>0</asrwt>
<pdfrwt beam="1">  1        1 0.40608241E+00 0.35286825E+04</pdfrwt>
<pdfrwt beam="2">  1       -1 0.18143634E+00 0.35286825E+04</pdfrwt>
<totfact> 0.17899855E-01</totfact>
</mgrwt>
</event>
<event>
 6    1  0.1603085E-006  0.2491680E+04  0.7818608E-02  0.8405956E-01
          2   -1    0    0  501    0  0.00000000000E+00  0.00000000000E+00  0.12856056970E+04  0.12856056970E+04  0.00000000000E+00 0. -1.
         -2   -1    0    0    0  501 -0.00000000000E+00 -0.00000000000E+00 -0.12073043585E+04  0.12073043585E+04  0.00000000000E+00 0.  1.
         23    2    1    2    0    0 -0.11209774586E+04  0.25151165058E+03 -0.43867187353E+03  0.12331045646E+04  0.90913593273E+02 0.  0.
         13    1    3    3    0    0 -0.26651745385E+03  0.96311429923E+02 -0.90736576798E+02  0.29755767695E+03  0.00000000000E+00 0.  1.
        -13    1    3    3    0    0 -0.85446000475E+03  0.15520022066E+03 -0.34793529673E+03  0.93554688761E+03  0.00000000000E+00 0. -1.
         22    1    1    2    0    0  0.11209774586E+04 -0.25151165058E+03  0.51697321196E+03  0.12598054909E+04  0.00000000000E+00 0. -1.
<mgrwt>
<rscale>  0 0.24916800E+04</rscale>
<asrwt>0</asrwt>
<pdfrwt beam="1">  1        2 0.19778549E+00 0.24916800E+04</pdfrwt>
<pdfrwt beam="2">  1       -2 0.18573913E+00 0.24916800E+04</pdfrwt>
<totfact> 0.24915690E+00</totfact>
</mgrwt>
</event>
<event>
 6    1  0.1603085E-006  0.1527993E+04  0.7818608E-02  0.8866049E-01
          1   -1    0    0  501    0  0.00000000000E+00  0.00000000000E+00  0.12368452720E+04  0.12368452720E+04  0.00000000000E+00 0. -1.
         -1   -1    0    0    0  501 -0.00000000000E+00 -0.00000000000E+00 -0.47191871203E+03  0.47191871203E+03  0.00000000000E+00 0.  1.
         23    2    1    2    0    0  0.67735741167E+03  0.34741198646E+03  0.40371875221E+03  0.86616133043E+03  0.87968562441E+02 0.  0.
         11    1    3    3    0    0  0.57563472287E+03  0.32871744697E+03  0.34747007261E+03  0.74842898492E+03  0.00000000000E+00 0.  1.
        -11    1    3    3    0    0  0.10172268879E+03  0.18694539494E+02  0.56248679602E+02  0.11773234551E+03  0.00000000000E+00 0. -1.
         22    1    1    2    0    0 -0.67735741167E+03 -0.34741198646E+03  0.36120780777E+03  0.84260265361E+03  0.00000000000E+00 0.  1.
<mgrwt>
<rscale>  0 0.15279927E+04</rscale>
<asrwt>0</asrwt>
<pdfrwt beam="1">  1        1 0.19028389E+00 0.15279927E+04</pdfrwt>
<pdfrwt beam="2">  1       -1 0.72602879E-01 0.15279927E+04</pdfrwt>
<totfact> 0.18549575E+01</totfact>
</mgrwt>
</event>
<event>
 6    1  0.1603085E-006  0.2449051E+04  0.7818608E-02  0.8421364E-01
         -1   -1    0    0    0  501 -0.00000000000E+00  0.00000000000E+00  0.66978752227E+03  0.66978752227E+03  0.00000000000E+00 0.  1.
          1   -1    0    0  501    0  0.00000000000E+00 -0.00000000000E+00 -0.22387146799E+04  0.22387146799E+04  0.00000000000E+00 0. -1.
         23    2    1    2    0    0  0.98229326573E+03  0.72775233263E+03 -0.75188816380E+03  0.14381021767E+04  0.90986494053E+02 0.  0.
         13    1    3    3    0    0  0.55944740138E+03  0.44571370459E+03 -0.48289824107E+03  0.86303697059E+03  0.00000000000E+00 0.  1.
        -13    1    3    3    0    0  0.42284586435E+03  0.28203862804E+03 -0.26898992273E+03  0.57506520607E+03  0.00000000000E+00 0. -1.
         22    1    1    2    0    0 -0.98229326573E+03 -0.72775233263E+03 -0.81703899378E+03  0.14704000255E+04  0.00000000000E+00 0. -1.
<mgrwt>
<rscale>  0 0.24490514E+04</rscale>
<asrwt>0</asrwt>
<pdfrwt beam="1">  1        1 0.34441764E+00 0.24490514E+04</pdfrwt>
<pdfrwt beam="2">  1       -1 0.10304423E+00 0.24490514E+04</pdfrwt>
<totfact> 0.16264510E+00</totfact>
</mgrwt>
</event>
<event>
 6    1  0.1603085E-006  0.3821827E+04  0.7818608E-02  0.8041487E-01
         -1   -1    0    0    0  501 -0.00000000000E+00  0.00000000000E+00  0.14915583393E+04  0.14915583393E+04  0.00000000000E+00 0.  1.
          1   -1    0    0  501    0  0.00000000000E+00 -0.00000000000E+00 -0.24481712634E+04  0.24481712634E+04  0.00000000000E+00 0. -1.
         23    2    1    2    0    0 -0.16388370791E+04 -0.27529871671E+03  0.49170351887E+03  0.17353709943E+04  0.90353652164E+02 0.  0.
         13    1    3    3    0    0 -0.46353059218E+03 -0.37568921162E+02  0.12911100874E+03  0.48264032810E+03  0.00000000000E+00 0.  1.
        -13    1    3    3    0    0 -0.11753064869E+04 -0.23772979555E+03  0.36259251013E+03  0.12527306663E+04  0.00000000000E+00 0. -1.
         22    1    1    2    0    0  0.16388370791E+04  0.27529871671E+03 -0.14483164430E+04  0.22043586083E+04  0.00000000000E+00 0. -1.
<mgrwt>
<rscale>  0 0.38218269E+04</rscale>
<asrwt>0</asrwt>
<pdfrwt beam="1">  1        1 0.37664173E+00 0.38218269E+04</pdfrwt>
<pdfrwt beam="2">  1       -1 0.22947052E+00 0.38218269E+04</pdfrwt>
<totfact> 0.11121693E-01</totfact>
</mgrwt>
</event>
<event>
 6    1  0.1603085E-006  0.1955139E+04  0.7818608E-02  0.8627887E-01
         -1   -1    0    0    0  501 -0.00000000000E+00  0.00000000000E+00  0.11136339591E+04  0.11136339591E+04  0.00000000000E+00 0.  1.
          1   -1    0    0  501    0  0.00000000000E+00 -0.00000000000E+00 -0.85812925563E+03  0.85812925563E+03  0.00000000000E+00 0. -1.
         23    2    1    2    0    0 -0.42222021572E+03  0.48301268174E+03  0.86916388430E+03  0.10839857925E+04  0.89488430983E+02 0.  0.
         13    1    3    3    0    0 -0.74795157281E+02  0.44054201859E+02  0.95898228536E+02  0.12935052567E+03  0.00000000000E+00 0.  1.
        -13    1    3    3    0    0 -0.34742505844E+03  0.43895847988E+03  0.77326565577E+03  0.95463526683E+03  0.00000000000E+00 0. -1.
         22    1    1    2    0    0  0.42222021572E+03 -0.48301268174E+03 -0.61365918080E+03  0.88777742225E+03  0.00000000000E+00 0. -1.
<mgrwt>
<rscale>  0 0.19551387E+04</rscale>
<asrwt>0</asrwt>
<pdfrwt beam="1">  1        1 0.13201988E+00 0.19551387E+04</pdfrwt>
<pdfrwt beam="2">  1       -1 0.17132830E+00 0.19551387E+04</pdfrwt>
<totfact> 0.44169178E+00</totfact>
</mgrwt>
</event>
<event>
 6    1  0.1603085E-006  0.3517482E+04  0.7818608E-02  0.8109659E-01
          1   -1    0    0  501    0  0.00000000000E+00  0.00000000000E+00  0.12684366028E+04  0.12684366028E+04  0.00000000000E+00 0. -1.
         -1   -1    0    0    0  501 -0.00000000000E+00 -0.00000000000E+00 -0.24385689048E+04  0.24385689048E+04  0.00000000000E+00 0.  1.
         23    2    1    2    0    0  0.42803338631E+03 -0.16713333459E+04 -0.23238344130E+03  0.17433505841E+04  0.93281630355E+02 0.  0.
         11    1    3    3    0    0  0.18045133181E+03 -0.55060864705E+03 -0.55885031485E+02  0.58211313513E+03  0.00000000000E+00 0. -1.
        -11    1    3    3    0    0  0.24758205450E+03 -0.11207246988E+04 -0.17649840982E+03  0.11612374490E+04  0.00000000000E+00 0.  1.
         22    1    1    2    0    0 -0.42803338631E+03  0.16713333459E+04 -0.93774886061E+03  0.19636549235E+04  0.00000000000E+00 0.  1.
<mgrwt>
<rscale>  0 0.35174821E+04</rscale>
<asrwt>0</asrwt>
<pdfrwt beam="1">  1        1 0.19514409E+00 0.35174821E+04</pdfrwt>
<pdfrwt beam="2">  1       -1 0.37516444E+00 0.35174821E+04</pdfrwt>
<totfact> 0.81836698E-02</totfact>
</mgrwt>
</event>
<event>
 6    1  0.1603085E-006  0.1073692E+04  0.7818608E-02  0.9231220E-01
         -2   -1    0    0    0  501 -0.00000000000E+00  0.00000000000E+00  0.99537902664E+03  0.99537902664E+03  0.00000000000E+00 0.  1.
          2   -1    0    0  501    0  0.00000000000E+00 -0.00000000000E+00 -0.28954136399E+03  0.28954136399E+03  0.00000000000E+00 0. -1.
         23    2    1    2    0    0  0.69204324728E+02  0.44926081581E+03  0.23313164165E+02  0.46488123899E+03  0.94586169993E+02 0.  0.
         13    1    3    3    0    0  0.20994593997E+01  0.24060894354E+03  0.44442140029E+02  0.24468791399E+03  0.00000000000E+00 0.  1.
        -13    1    3    3    0    0  0.67104865328E+02  0.20865187227E+03 -0.21128975864E+02  0.22019332500E+03  0.00000000000E+00 0. -1.
         22    1    1    2    0    0 -0.69204324728E+02 -0.44926081581E+03  0.68252449849E+03  0.82003915164E+03  0.00000000000E+00 0.  1.
<mgrwt>
<rscale>  0 0.10736916E+04</rscale>
<asrwt>0</asrwt>
<pdfrwt beam="1">  1        2 0.44544826E-01 0.10736916E+04</pdfrwt>
<pdfrwt beam="2">  1       -2 0.15313523E+00 0.10736916E+04</pdfrwt>
<totfact> 0.32173629E+01</totfact>
</mgrwt>
</event>
<event>
 6    1  0.1603085E-006  0.1204237E+04  0.7818608E-02  0.9109156E-01
         -1   -1    0    0    0  501 -0.00000000000E+00  0.00000000000E+00  0.33331428383E+03  0.33331428383E+03  0.00000000000E+00 0.  1.
          1   -1    0    0  501    0  0.00000000000E+00 -0.00000000000E+00 -0.10877020747E+04  0.10877020747E+04  0.00000000000E+00 0. -1.
         23    2    1    2    0    0  0.12587977056E+03 -0.22854361408E+03  0.25653415642E+03  0.37696603229E+03  0.90640586487E+02 0.  0.
         13    1    3    3    0    0  0.27198816282E+02 -0.13838535030E+03  0.15137446634E+03  0.20689250795E+03  0.00000000000E+00 0. -1.
        -13    1    3    3    0    0  0.98680954282E+02 -0.90158263779E+02  0.10515969008E+03  0.17007352435E+03  0.00000000000E+00 0.  1.
         22    1    1    2    0    0 -0.12587977056E+03  0.22854361408E+03 -0.10109219473E+04  0.10440503262E+04  0.00000000000E+00 0. -1.
<mgrwt>
<rscale>  0 0.12042369E+04</rscale>
<asrwt>0</asrwt>
<pdfrwt beam="1">  1        1 0.16733878E+00 0.12042369E+04</pdfrwt>
<pdfrwt beam="2">  1       -1 0.51279121E-01 0.12042369E+04</pdfrwt>
<totfact> 0.49004472E+01</totfact>
</mgrwt>
</event>
<event>
 6    1  0.1603085E-006  0.1580955E+04  0.7818608E-02  0.8832334E-01
         -2   -1    0    0    0  501 -0.00000000000E+00  0.00000000000E+00  0.82451528611E+03  0.82451528611E+03  0.00000000000E+00 0.  1.
          2   -1    0    0  501    0  0.00000000000E+00 -0.00000000000E+00 -0.75784465936E+03  0.75784465936E+03  0.00000000000E+00 0. -1.
         23    2    1    2    0    0  0.61503365029E+02  0.40142157338E+03  0.71089131733E+03  0.82082055604E+03  0.58804563419E+02 0.  0.
         11    1    3    3    0    0  0.28326204559E+02  0.33052815889E+03  0.56190786771E+03  0.65252715613E+03  0.00000000000E+00 0.  1.
        -11    1    3    3    0    0  0.33177160471E+02  0.70893414484E+02  0.14898344962E+03  0.16829339991E+03  0.00000000000E+00 0. -1.
         22    1    1    2    0    0 -0.61503365029E+02 -0.40142157338E+03 -0.64422069058E+03  0.76153938943E+03  0.00000000000E+00 0. -1.
<mgrwt>
<rscale>  0 0.15809548E+04</rscale>
<asrwt>0</asrwt>
<pdfrwt beam="1">  1        2 0.11659149E+00 0.15809548E+04</pdfrwt>
<pdfrwt beam="2">  1       -2 0.12684851E+00 0.15809548E+04</pdfrwt>
<totfact> 0.16413939E+01</totfact>
</mgrwt>
</event>
<event>
 6    1  0.1603085E-006  0.2064472E+04  0.7818608E-02  0.8577057E-01
          1   -1    0    0  501    0  0.00000000000E+00  0.00000000000E+00  0.11006829241E+04  0.11006829241E+04  0.00000000000E+00 0. -1.
         -1   -1    0    0    0  501 -0.00000000000E+00 -0.00000000000E+00 -0.96804525042E+03  0.96804525042E+03  0.00000000000E+00 0.  1.
         23    2    1    2    0    0  0.87273093460E+02 -0.65174189579E+03 -0.72841768462E+03  0.98530747063E+03  0.88625035101E+02 0.  0.
         13    1    3    3    0    0  0.94378630415E+02 -0.39085171258E+03 -0.42422662062E+03  0.58450031030E+03  0.00000000000E+00 0.  1.
        -13    1    3    3    0    0 -0.71055369556E+01 -0.26089018321E+03 -0.30419106400E+03  0.40080716032E+03  0.00000000000E+00 0. -1.
         22    1    1    2    0    0 -0.87273093460E+02  0.65174189579E+03  0.86105535832E+03  0.10834207039E+04  0.00000000000E+00 0. -1.
<mgrwt>
<rscale>  0 0.20644717E+04</rscale>
<asrwt>0</asrwt>
<pdfrwt beam="1">  1        1 0.16933583E+00 0.20644717E+04</pdfrwt>
<pdfrwt beam="2">  1       -1 0.14893004E+00 0.20644717E+04</pdfrwt>
<totfact> 0.41557640E+00</totfact>
</mgrwt>
</event>
<event>
 6    1  0.1603085E-006  0.1553745E+04  0.7818608E-02  0.8849479E-01
         -1   -1    0    0    0  501 -0.00000000000E+00  0.00000000000E+00  0.10276844722E+04  0.10276844722E+04  0.00000000000E+00 0.  1.
          1   -1    0    0  501    0  0.00000000000E+00 -0.00000000000E+00 -0.58727223853E+03  0.58727223853E+03  0.00000000000E+00 0. -1.
         23    2    1    2    0    0 -0.10514305096E+03 -0.72054895156E+03 -0.52499939267E+02  0.73563409475E+03  0.90307391551E+02 0.  0.
         13    1    3    3    0    0 -0.30120603082E+02 -0.49605009177E+03 -0.41006161554E+02  0.49865263416E+03  0.00000000000E+00 0. -1.
        -13    1    3    3    0    0 -0.75022447873E+02 -0.22449885980E+03 -0.11493777713E+02  0.23698146058E+03  0.00000000000E+00 0.  1.
         22    1    1    2    0    0  0.10514305096E+03  0.72054895156E+03  0.49291217295E+03  0.87932261600E+03  0.00000000000E+00 0.  1.
<mgrwt>
<rscale>  0 0.15537446E+04</rscale>
<asrwt>0</asrwt>
<pdfrwt beam="1">  1        1 0.90349575E-01 0.15537446E+04</pdfrwt>
<pdfrwt beam="2">  1       -1 0.15810530E+00 0.15537446E+04</pdfrwt>
<totfact> 0.10278684E+01</totfact>
</mgrwt>
</event>
<event>
 6    1  0.1603085E-006  0.1646751E+04  0.7818608E-02  0.8792331E-01
         -2   -1    0    0    0  501 -0.00000000000E+00  0.00000000000E+00  0.95692057853E+03  0.95692057853E+03  0.00000000000E+00 0.  1.
          2   -1    0    0  501    0  0.00000000000E+00 -0.00000000000E+00 -0.70846746931E+03  0.70846746931E+03  0.00000000000E+00 0. -1.
         23    2    1    2    0    0  0.40377293586E+03  0.49555488006E+03 -0.39627839765E+03  0.75748610444E+03  0.90229746139E+02 0.  0.
         11    1    3    3    0    0  0.16406495588E+03  0.16423428703E+03 -0.10142872623E+03  0.25333376658E+03  0.00000000000E+00 0.  1.
        -11    1    3    3    0    0  0.23970797997E+03  0.33132059303E+03 -0.29484967142E+03  0.50415233786E+03  0.00000000000E+00 0. -1.
         22    1    1    2    0    0 -0.40377293586E+03 -0.49555488006E+03  0.64473150687E+03  0.90790194340E+03  0.00000000000E+00 0.  1.
<mgrwt>
<rscale>  0 0.16467509E+04</rscale>
<asrwt>0</asrwt>
<pdfrwt beam="1">  1        2 0.10899500E+00 0.16467509E+04</pdfrwt>
<pdfrwt beam="2">  1       -2 0.14721855E+00 0.16467509E+04</pdfrwt>
<totfact> 0.12132363E+01</totfact>
</mgrwt>
</event>
<event>
 6    1  0.1603085E-006  0.4454265E+04  0.7818608E-02  0.7918693E-01
          1   -1    0    0  501    0  0.00000000000E+00  0.00000000000E+00  0.22822425791E+04  0.22822425791E+04  0.00000000000E+00 0. -1.
         -1   -1    0    0    0  501 -0.00000000000E+00 -0.00000000000E+00 -0.21733531408E+04  0.21733531408E+04  0.00000000000E+00 0.  1.
         23    2    1    2    0    0  0.35563070642E+03  0.83687302435E+03 -0.19781648341E+04  0.21790577355E+04  0.91251551566E+02 0.  0.
         11    1    3    3    0    0  0.29978768352E+03  0.61657462545E+03 -0.15288985286E+04  0.16755797906E+04  0.00000000000E+00 0. -1.
        -11    1    3    3    0    0  0.55843022903E+02  0.22029839890E+03 -0.44926630552E+03  0.50347794494E+03  0.00000000000E+00 0.  1.
         22    1    1    2    0    0 -0.35563070642E+03 -0.83687302435E+03  0.20870542724E+04  0.22765379843E+04  0.00000000000E+00 0. -1.
<mgrwt>
<rscale>  0 0.44542650E+04</rscale>
<asrwt>0</asrwt>
<pdfrwt beam="1">  1        1 0.35111424E+00 0.44542650E+04</pdfrwt>
<pdfrwt beam="2">  1       -1 0.33436202E+00 0.44542650E+04</pdfrwt>
<totfact> 0.28450205E-02</totfact>
</mgrwt>
</event>
<event>
 6    1  0.1603085E-006  0.1413588E+04  0.7818608E-02  0.8944041E-01
         -2   -1    0    0    0  501 -0.00000000000E+00  0.00000000000E+00  0.20497114348E+03  0.20497114348E+03  0.00000000000E+00 0.  1.
          2   -1    0    0  501    0  0.00000000000E+00 -0.00000000000E+00 -0.24372105378E+04  0.24372105378E+04  0.00000000000E+00 0. -1.
         23    2    1    2    0    0 -0.40551127330E+03 -0.20796979691E+03 -0.11816756387E+03  0.47954659104E+03  0.91162111835E+02 0.  0.
         13    1    3    3    0    0 -0.49817395234E+02 -0.56926904277E+02 -0.69266370400E+00  0.75650017062E+02  0.00000000000E+00 0. -1.
        -13    1    3    3    0    0 -0.35569387806E+03 -0.15104289263E+03 -0.11747490016E+03  0.40389657398E+03  0.00000000000E+00 0.  1.
         22    1    1    2    0    0  0.40551127330E+03  0.20796979691E+03 -0.21140718304E+04  0.21626350902E+04  0.00000000000E+00 0. -1.
<mgrwt>
<rscale>  0 0.14135881E+04</rscale>
<asrwt>0</asrwt>
<pdfrwt beam="1">  1        2 0.37495549E+00 0.14135881E+04</pdfrwt>
<pdfrwt beam="2">  1       -2 0.31534020E-01 0.14135881E+04</pdfrwt>
<totfact> 0.34470158E+01</totfact>
</mgrwt>
</event>
<event>
 6    1  0.1603085E-006  0.2172872E+04  0.7818608E-02  0.8529805E-01
         -2   -1    0    0    0  501 -0.00000000000E+00  0.00000000000E+00  0.11683369002E+04  0.11683369002E+04  0.00000000000E+00 0. -1.
          2   -1    0    0  501    0  0.00000000000E+00 -0.00000000000E+00 -0.10102764589E+04  0.10102764589E+04  0.00000000000E+00 0.  1.
         23    2    1    2    0    0 -0.94222515899E+03 -0.15099148546E+03 -0.43754814393E+03  0.10537416927E+04  0.91304424024E+02 0.  0.
         11    1    3    3    0    0 -0.20398757836E+03  0.37578255676E+01 -0.10402713910E+03  0.22901244300E+03  0.00000000000E+00 0.  1.
        -11    1    3    3    0    0 -0.73823758062E+03 -0.15474931103E+03 -0.33352100483E+03  0.82472924973E+03  0.00000000000E+00 0. -1.
         22    1    1    2    0    0  0.94222515899E+03  0.15099148546E+03  0.59560858527E+03  0.11248716663E+04  0.00000000000E+00 0. -1.
<mgrwt>
<rscale>  0 0.21728721E+04</rscale>
<asrwt>0</asrwt>
<pdfrwt beam="1">  1        2 0.15542715E+00 0.21728721E+04</pdfrwt>
<pdfrwt beam="2">  1       -2 0.17974414E+00 0.21728721E+04</pdfrwt>
<totfact> 0.41369913E+00</totfact>
</mgrwt>
</event>
<event>
 6    1  0.1603085E-006  0.2541048E+04  0.7818608E-02  0.8388506E-01
          1   -1    0    0  501    0  0.00000000000E+00  0.00000000000E+00  0.19649103472E+04  0.19649103472E+04  0.00000000000E+00 0. -1.
         -1   -1    0    0    0  501 -0.00000000000E+00 -0.00000000000E+00 -0.82152897595E+03  0.82152897595E+03  0.00000000000E+00 0.  1.
         23    2    1    2    0    0 -0.26847530232E+03 -0.68590033214E+03  0.17053529067E+04  0.18599673807E+04  0.93337385596E+02 0.  0.
         11    1    3    3    0    0 -0.17686854793E+03 -0.54232823839E+03  0.12579489375E+04  0.13812450654E+04  0.00000000000E+00 0. -1.
        -11    1    3    3    0    0 -0.91606754390E+02 -0.14357209374E+03  0.44740396916E+03  0.47872231530E+03  0.00000000000E+00 0.  1.
         22    1    1    2    0    0  0.26847530232E+03  0.68590033214E+03 -0.56197153538E+03  0.92647194246E+03  0.00000000000E+00 0.  1.
<mgrwt>
<rscale>  0 0.25410476E+04</rscale>
<asrwt>0</asrwt>
<pdfrwt beam="1">  1        1 0.30229390E+00 0.25410476E+04</pdfrwt>
<pdfrwt beam="2">  1       -1 0.12638907E+00 0.25410476E+04</pdfrwt>
<totfact> 0.15168704E+00</totfact>
</mgrwt>
</event>
<event>
 6    1  0.1603085E-006  0.4127011E+04  0.7818608E-02  0.7979403E-01
         -2   -1    0    0    0  501 -0.00000000000E+00  0.00000000000E+00  0.23307009337E+04  0.23307009337E+04  0.00000000000E+00 0.  1.
          2   -1    0    0  501    0  0.00000000000E+00 -0.00000000000E+00 -0.18269417696E+04  0.18269417696E+04  0.00000000000E+00 0. -1.
         23    2    1    2    0    0 -0.10102470538E+04 -0.13433908254E+03 -0.15545083904E+04  0.18608816307E+04  0.87965952572E+02 0.  0.
         13    1    3    3    0    0 -0.71693115348E+03 -0.97443437219E+02 -0.10286056608E+04  0.12575830421E+04  0.00000000000E+00 0. -1.
        -13    1    3    3    0    0 -0.29331590031E+03 -0.36895645319E+02 -0.52590272959E+03  0.60329858860E+03  0.00000000000E+00 0.  1.
         22    1    1    2    0    0  0.10102470538E+04  0.13433908254E+03  0.20582675545E+04  0.22967610726E+04  0.00000000000E+00 0.  1.
<mgrwt>
<rscale>  0 0.41270110E+04</rscale>
<asrwt>0</asrwt>
<pdfrwt beam="1">  1        2 0.28106796E+00 0.41270110E+04</pdfrwt>
<pdfrwt beam="2">  1       -2 0.35856938E+00 0.41270110E+04</pdfrwt>
<totfact> 0.89369790E-02</totfact>
</mgrwt>
</event>
<event>
 6    1  0.1603085E-006  0.2756561E+04  0.7818608E-02  0.8316883E-01
         -3   -1    0    0    0  501 -0.00000000000E+00  0.00000000000E+00  0.12168264402E+04  0.12168264402E+04  0.00000000000E+00 0.  1.
          3   -1    0    0  501    0  0.00000000000E+00 -0.00000000000E+00 -0.15611567357E+04  0.15611567357E+04  0.00000000000E+00 0. -1.
         23    2    1    2    0    0  0.60107070959E+03 -0.53696005545E+03  0.95286378819E+03  0.12507881688E+04  0.83123674979E+02 0.  0.
         13    1    3    3    0    0  0.32268914139E+03 -0.24197391306E+03  0.51081702554E+03  0.65085612093E+03  0.00000000000E+00 0. -1.
        -13    1    3    3    0    0  0.27838156820E+03 -0.29498614238E+03  0.44204676265E+03  0.59993204789E+03  0.00000000000E+00 0.  1.
         22    1    1    2    0    0 -0.60107070959E+03  0.53696005545E+03 -0.12971940837E+04  0.15271950071E+04  0.00000000000E+00 0. -1.
<mgrwt>
<rscale>  0 0.27565608E+04</rscale>
<asrwt>0</asrwt>
<pdfrwt beam="1">  1        3 0.24017796E+00 0.27565608E+04</pdfrwt>
<pdfrwt beam="2">  1       -3 0.18720407E+00 0.27565608E+04</pdfrwt>
<totfact> 0.33842315E-02</totfact>
</mgrwt>
</event>
<event>
 6    1  0.1603085E-006  0.2911398E+04  0.7818608E-02  0.8269494E-01
         -2   -1    0    0    0  501 -0.00000000000E+00  0.00000000000E+00  0.19788776572E+04  0.19788776572E+04  0.00000000000E+00 0.  1.
          2   -1    0    0  501    0  0.00000000000E+00 -0.00000000000E+00 -0.10708391690E+04  0.10708391690E+04  0.00000000000E+00 0. -1.
         23    2    1    2    0    0 -0.32171428448E+03  0.11027621883E+04  0.13878469582E+04  0.18048069128E+04  0.10781599172E+03 0.  0.
         11    1    3    3    0    0 -0.91009323555E+02  0.26152478073E+03  0.40601137762E+03  0.49145004494E+03  0.00000000000E+00 0. -1.
        -11    1    3    3    0    0 -0.23070496092E+03  0.84123740759E+03  0.98183558059E+03  0.13133568678E+04  0.00000000000E+00 0.  1.
         22    1    1    2    0    0  0.32171428448E+03 -0.11027621883E+04 -0.47980846998E+03  0.12449099135E+04  0.00000000000E+00 0. -1.
<mgrwt>
<rscale>  0 0.29113981E+04</rscale>
<asrwt>0</asrwt>
<pdfrwt beam="1">  1        2 0.16474449E+00 0.29113981E+04</pdfrwt>
<pdfrwt beam="2">  1       -2 0.30444272E+00 0.29113981E+04</pdfrwt>
<totfact> 0.58463456E-01</totfact>
</mgrwt>
</event>
<event>
 6    1  0.1603085E-006  0.3009373E+04  0.7818608E-02  0.8241059E-01
          1   -1    0    0  501    0  0.00000000000E+00  0.00000000000E+00  0.22181225302E+04  0.22181225302E+04  0.00000000000E+00 0. -1.
         -1   -1    0    0    0  501 -0.00000000000E+00 -0.00000000000E+00 -0.10207198403E+04  0.10207198403E+04  0.00000000000E+00 0.  1.
         23    2    1    2    0    0  0.87334802452E+03  0.12659974366E+02  0.19160817266E+04  0.21077382176E+04  0.91072299854E+02 0.  0.
         11    1    3    3    0    0  0.22037812793E+03  0.10198352501E+02  0.39519564194E+03  0.45260371306E+03  0.00000000000E+00 0. -1.
        -11    1    3    3    0    0  0.65296989660E+03  0.24616218642E+01  0.15208860847E+04  0.16551345045E+04  0.00000000000E+00 0.  1.
         22    1    1    2    0    0 -0.87334802452E+03 -0.12659974366E+02 -0.71867903676E+03  0.11311041529E+04  0.00000000000E+00 0.  1.
<mgrwt>
<rscale>  0 0.30093731E+04</rscale>
<asrwt>0</asrwt>
<pdfrwt beam="1">  1        1 0.34124962E+00 0.30093731E+04</pdfrwt>
<pdfrwt beam="2">  1       -1 0.15703382E+00 0.30093731E+04</pdfrwt>
<totfact> 0.55421788E-01</totfact>
</mgrwt>
</event>
<event>
 6    1  0.1603085E-006  0.2229797E+04  0.7818608E-02  0.8506127E-01
          2   -1    0    0  501    0  0.00000000000E+00  0.00000000000E+00  0.16652335359E+04  0.16652335359E+04  0.00000000000E+00 0. -1.
         -2   -1    0    0    0  501 -0.00000000000E+00 -0.00000000000E+00 -0.74644108574E+03  0.74644108574E+03  0.00000000000E+00 0.  1.
         23    2    1    2    0    0  0.35860417612E+03  0.15136721827E+03 -0.66769523045E+03  0.77813486069E+03  0.90376715836E+02 0.  0.
         13    1    3    3    0    0  0.16023915451E+03  0.19695982681E+02 -0.26306289752E+03  0.30865288987E+03  0.00000000000E+00 0. -1.
        -13    1    3    3    0    0  0.19836502161E+03  0.13167123559E+03 -0.40463233293E+03  0.46948197083E+03  0.00000000000E+00 0.  1.
         22    1    1    2    0    0 -0.35860417612E+03 -0.15136721827E+03  0.15864876806E+04  0.16335397609E+04  0.00000000000E+00 0. -1.
<mgrwt>
<rscale>  0 0.22297971E+04</rscale>
<asrwt>0</asrwt>
<pdfrwt beam="1">  1        2 0.25618977E+00 0.22297971E+04</pdfrwt>
<pdfrwt beam="2">  1       -2 0.11483709E+00 0.22297971E+04</pdfrwt>
<totfact> 0.55329016E+00</totfact>
</mgrwt>
</event>
<event>
 6    1  0.1603085E-006  0.1021606E+04  0.7818608E-02  0.9285160E-01
         -1   -1    0    0    0  501 -0.00000000000E+00  0.00000000000E+00  0.29244913351E+03  0.29244913351E+03  0.00000000000E+00 0.  1.
          1   -1    0    0  501    0  0.00000000000E+00 -0.00000000000E+00 -0.89218883691E+03  0.89218883691E+03  0.00000000000E+00 0. -1.
         23    2    1    2    0    0 -0.39898001293E+03 -0.14946530482E+03  0.15919652659E+02  0.43593150539E+03  0.90873065282E+02 0.  0.
         13    1    3    3    0    0 -0.39064239010E+03 -0.14437393169E+03 -0.91377681621E+00  0.41646865918E+03  0.00000000000E+00 0. -1.
        -13    1    3    3    0    0 -0.83376228316E+01 -0.50913731265E+01  0.16833429475E+02  0.19462846212E+02  0.00000000000E+00 0.  1.
         22    1    1    2    0    0  0.39898001293E+03  0.14946530482E+03 -0.61565935607E+03  0.74870646502E+03  0.00000000000E+00 0. -1.
<mgrwt>
<rscale>  0 0.10216063E+04</rscale>
<asrwt>0</asrwt>
<pdfrwt beam="1">  1        1 0.13725982E+00 0.10216063E+04</pdfrwt>
<pdfrwt beam="2">  1       -1 0.44992175E-01 0.10216063E+04</pdfrwt>
<totfact> 0.90539487E+01</totfact>
</mgrwt>
</event>
<event>
 6    1  0.1603085E-006  0.2853895E+04  0.7818608E-02  0.8286729E-01
         -2   -1    0    0    0  501 -0.00000000000E+00  0.00000000000E+00  0.51041117876E+03  0.51041117876E+03  0.00000000000E+00 0.  1.
          2   -1    0    0  501    0  0.00000000000E+00 -0.00000000000E+00 -0.39892925006E+04  0.39892925006E+04  0.00000000000E+00 0. -1.
         23    2    1    2    0    0 -0.27010398301E+03  0.89245934211E+03 -0.41093129332E+02  0.93770599612E+03  0.90355137798E+02 0.  0.
         11    1    3    3    0    0 -0.67736729973E+02  0.14838714178E+03  0.19247533153E+02  0.16424821450E+03  0.00000000000E+00 0. -1.
        -11    1    3    3    0    0 -0.20236725303E+03  0.74407220033E+03 -0.60340662485E+02  0.77345778162E+03  0.00000000000E+00 0.  1.
         22    1    1    2    0    0  0.27010398301E+03 -0.89245934211E+03 -0.34377881925E+04  0.35619976833E+04  0.00000000000E+00 0. -1.
<mgrwt>
<rscale>  0 0.28538952E+04</rscale>
<asrwt>0</asrwt>
<pdfrwt beam="1">  1        2 0.61373731E+00 0.28538952E+04</pdfrwt>
<pdfrwt beam="2">  1       -2 0.78524796E-01 0.28538952E+04</pdfrwt>
<totfact> 0.43593642E-01</totfact>
</mgrwt>
</event>
<event>
 6    1  0.1656869E-006  0.3805451E+04  0.7818608E-02  0.8044986E-01
          2   -1    0    0  501    0  0.00000000000E+00  0.00000000000E+00  0.23928743115E+04  0.23928743115E+04  0.00000000000E+00 0. -1.
         -2   -1    0    0    0  501 -0.00000000000E+00 -0.00000000000E+00 -0.15129773713E+04  0.15129773713E+04  0.00000000000E+00 0.  1.
         23    2    1    2    0    0  0.18217973679E+04 -0.52634208855E+03  0.29494350812E+03  0.19213738771E+04  0.93296615928E+02 0.  0.
         13    1    3    3    0    0  0.87538466610E+03 -0.22231783668E+03  0.10382873089E+03  0.90912262073E+03  0.00000000000E+00 0.  1.
        -13    1    3    3    0    0  0.94641270182E+03 -0.30402425187E+03  0.19111477724E+03  0.10122512563E+04  0.00000000000E+00 0. -1.
         22    1    1    2    0    0 -0.18217973679E+04  0.52634208855E+03  0.58495343207E+03  0.19844778058E+04  0.00000000000E+00 0.  1.
<mgrwt>
<rscale>  0 0.38054512E+04</rscale>
<asrwt>0</asrwt>
<pdfrwt beam="1">  1        2 0.36813451E+00 0.38054512E+04</pdfrwt>
<pdfrwt beam="2">  1       -2 0.23276575E+00 0.38054512E+04</pdfrwt>
<totfact> 0.26425888E-01</totfact>
</mgrwt>
</event>
<event>
 6    1  0.1603085E-006  0.1680971E+04  0.7818608E-02  0.8772292E-01
          2   -1    0    0  501    0  0.00000000000E+00  0.00000000000E+00  0.15399263424E+04  0.15399263424E+04  0.00000000000E+00 0.  1.
         -2   -1    0    0    0  501 -0.00000000000E+00 -0.00000000000E+00 -0.45873348523E+03  0.45873348523E+03  0.00000000000E+00 0. -1.
         23    2    1    2    0    0 -0.80316268819E+03  0.57242061146E+02  0.26746609142E+03  0.85388989155E+03  0.96139895840E+02 0.  0.
         13    1    3    3    0    0 -0.42099638119E+03  0.52075737657E+02  0.95701490523E+02  0.43486619864E+03  0.00000000000E+00 0. -1.
        -13    1    3    3    0    0 -0.38216630699E+03  0.51663234894E+01  0.17176460090E+03  0.41902369291E+03  0.00000000000E+00 0.  1.
         22    1    1    2    0    0  0.80316268819E+03 -0.57242061146E+02  0.81372676580E+03  0.11447699361E+04  0.00000000000E+00 0.  1.
<mgrwt>
<rscale>  0 0.16809709E+04</rscale>
<asrwt>0</asrwt>
<pdfrwt beam="1">  1        2 0.23691174E+00 0.16809709E+04</pdfrwt>
<pdfrwt beam="2">  1       -2 0.70574383E-01 0.16809709E+04</pdfrwt>
<totfact> 0.20970546E+01</totfact>
</mgrwt>
</event>
<event>
 6    1  0.1603085E-006  0.7641508E+03  0.7818608E-02  0.9613408E-01
         -2   -1    0    0    0  501 -0.00000000000E+00  0.00000000000E+00  0.72714440600E+02  0.72714440600E+02  0.00000000000E+00 0.  1.
          2   -1    0    0  501    0  0.00000000000E+00 -0.00000000000E+00 -0.20076014612E+04  0.20076014612E+04  0.00000000000E+00 0. -1.
         23    2    1    2    0    0 -0.13480770326E+03  0.34364457552E+03 -0.78057814555E+03  0.86841916934E+03  0.92654742005E+02 0.  0.
         11    1    3    3    0    0 -0.32608913170E+02  0.18970224380E+02 -0.11199546076E+03  0.11817865231E+03  0.00000000000E+00 0.  1.
        -11    1    3    3    0    0 -0.10219879009E+03  0.32467435114E+03 -0.66858268479E+03  0.75024051703E+03  0.00000000000E+00 0. -1.
         22    1    1    2    0    0  0.13480770326E+03 -0.34364457552E+03 -0.11543088751E+04  0.12118967325E+04  0.00000000000E+00 0.  1.
<mgrwt>
<rscale>  0 0.76415082E+03</rscale>
<asrwt>0</asrwt>
<pdfrwt beam="1">  1        2 0.30886179E+00 0.76415082E+03</pdfrwt>
<pdfrwt beam="2">  1       -2 0.11186836E-01 0.76415082E+03</pdfrwt>
<totfact> 0.38661500E+02</totfact>
</mgrwt>
</event>
<event>
 6    1  0.1603085E-006  0.1995529E+04  0.7818608E-02  0.8608714E-01
         -1   -1    0    0    0  501 -0.00000000000E+00  0.00000000000E+00  0.21405029563E+04  0.21405029563E+04  0.00000000000E+00 0.  1.
          1   -1    0    0  501    0  0.00000000000E+00 -0.00000000000E+00 -0.46509336625E+03  0.46509336625E+03  0.00000000000E+00 0. -1.
         23    2    1    2    0    0 -0.52022577501E+03 -0.79792026322E+03  0.46092623949E+03  0.10621322277E+04  0.91434497444E+02 0.  0.
         13    1    3    3    0    0 -0.32512187103E+03 -0.56500077861E+03  0.33898231361E+03  0.73473744956E+03  0.00000000000E+00 0.  1.
        -13    1    3    3    0    0 -0.19510390398E+03 -0.23291948462E+03  0.12194392588E+03  0.32739477809E+03  0.00000000000E+00 0. -1.
         22    1    1    2    0    0  0.52022577501E+03  0.79792026322E+03  0.12144833505E+04  0.15434640949E+04  0.00000000000E+00 0.  1.
<mgrwt>
<rscale>  0 0.19955287E+04</rscale>
<asrwt>0</asrwt>
<pdfrwt beam="1">  1        1 0.71552827E-01 0.19955287E+04</pdfrwt>
<pdfrwt beam="2">  1       -1 0.32930814E+00 0.19955287E+04</pdfrwt>
<totfact> 0.96763120E-01</totfact>
</mgrwt>
</event>
<event>
 6    1  0.1603085E-006  0.1858261E+04  0.7818608E-02  0.8675916E-01
          2   -1    0    0  501    0  0.00000000000E+00  0.00000000000E+00  0.18327148105E+04  0.18327148105E+04  0.00000000000E+00 0. -1.
         -2   -1    0    0    0  501 -0.00000000000E+00 -0.00000000000E+00 -0.47104062858E+03  0.47104062858E+03  0.00000000000E+00 0.  1.
         23    2    1    2    0    0 -0.52609279457E+03 -0.32415703584E+03 -0.17399043046E+03  0.64842549794E+03  0.91277292390E+02 0.  0.
         13    1    3    3    0    0 -0.23723128657E+03 -0.19651852342E+03 -0.10217650914E+03  0.32455855002E+03  0.00000000000E+00 0. -1.
        -13    1    3    3    0    0 -0.28886150800E+03 -0.12763851242E+03 -0.71813921320E+02  0.32386694791E+03  0.00000000000E+00 0.  1.
         22    1    1    2    0    0  0.52609279457E+03  0.32415703584E+03  0.15356646124E+04  0.16553299412E+04  0.00000000000E+00 0. -1.
<mgrwt>
<rscale>  0 0.18582606E+04</rscale>
<asrwt>0</asrwt>
<pdfrwt beam="1">  1        2 0.28195612E+00 0.18582606E+04</pdfrwt>
<pdfrwt beam="2">  1       -2 0.72467790E-01 0.18582606E+04</pdfrwt>
<totfact> 0.13395631E+01</totfact>
</mgrwt>
</event>
<event>
 6    1  0.1603085E-006  0.2535346E+04  0.7818608E-02  0.8390500E-01
         -1   -1    0    0    0  501 -0.00000000000E+00  0.00000000000E+00  0.15789814972E+04  0.15789814972E+04  0.00000000000E+00 0.  1.
          1   -1    0    0  501    0  0.00000000000E+00 -0.00000000000E+00 -0.10177415009E+04  0.10177415009E+04  0.00000000000E+00 0. -1.
         23    2    1    2    0    0 -0.11795456637E+04  0.15580966458E+03 -0.16185275574E+03  0.12044343239E+04  0.94133424677E+02 0.  0.
         13    1    3    3    0    0 -0.64244831695E+03  0.40317484347E+02 -0.10331172125E+03  0.65194988399E+03  0.00000000000E+00 0.  1.
        -13    1    3    3    0    0 -0.53709734677E+03  0.11549218024E+03 -0.58541034492E+02  0.55248443989E+03  0.00000000000E+00 0. -1.
         22    1    1    2    0    0  0.11795456637E+04 -0.15580966458E+03  0.72309275207E+03  0.13922886743E+04  0.00000000000E+00 0.  1.
<mgrwt>
<rscale>  0 0.25353461E+04</rscale>
<asrwt>0</asrwt>
<pdfrwt beam="1">  1        1 0.15657562E+00 0.25353461E+04</pdfrwt>
<pdfrwt beam="2">  1       -1 0.24292023E+00 0.25353461E+04</pdfrwt>
<totfact> 0.10069130E+00</totfact>
</mgrwt>
</event>
<event>
 6    1  0.1603085E-006  0.3604730E+04  0.7818608E-02  0.8089409E-01
          2   -1    0    0  501    0  0.00000000000E+00  0.00000000000E+00  0.20987630991E+04  0.20987630991E+04  0.00000000000E+00 0. -1.
         -2   -1    0    0    0  501 -0.00000000000E+00 -0.00000000000E+00 -0.15478260611E+04  0.15478260611E+04  0.00000000000E+00 0.  1.
         23    2    1    2    0    0 -0.12287053262E+04  0.11918206048E+04  0.84261248576E+03  0.19101480585E+04  0.92285814832E+02 0.  0.
         13    1    3    3    0    0 -0.78411041240E+03  0.81762696427E+03  0.57381053431E+03  0.12698824831E+04  0.00000000000E+00 0.  1.
        -13    1    3    3    0    0 -0.44459491375E+03  0.37419364055E+03  0.26880195145E+03  0.64026557542E+03  0.00000000000E+00 0. -1.
         22    1    1    2    0    0  0.12287053262E+04 -0.11918206048E+04 -0.29167544775E+03  0.17364411016E+04  0.00000000000E+00 0.  1.
<mgrwt>
<rscale>  0 0.36047303E+04</rscale>
<asrwt>0</asrwt>
<pdfrwt beam="1">  1        2 0.32288663E+00 0.36047303E+04</pdfrwt>
<pdfrwt beam="2">  1       -2 0.23812709E+00 0.36047303E+04</pdfrwt>
<totfact> 0.36482746E-01</totfact>
</mgrwt>
</event>
<event>
 6    1  0.1603085E-006  0.1955714E+04  0.7818608E-02  0.8627610E-01
         -1   -1    0    0    0  501 -0.00000000000E+00  0.00000000000E+00  0.92816621279E+03  0.92816621279E+03  0.00000000000E+00 0.  1.
          1   -1    0    0  501    0  0.00000000000E+00 -0.00000000000E+00 -0.10302084528E+04  0.10302084528E+04  0.00000000000E+00 0. -1.
         23    2    1    2    0    0  0.21317063566E+03 -0.22833612517E+03  0.87489561529E+03  0.93271064697E+03  0.83232850129E+02 0.  0.
         11    1    3    3    0    0  0.13281397705E+03 -0.19522542936E+03  0.62311401372E+03  0.66635095473E+03  0.00000000000E+00 0.  1.
        -11    1    3    3    0    0  0.80356658607E+02 -0.33110695803E+02  0.25178160158E+03  0.26635969224E+03  0.00000000000E+00 0. -1.
         22    1    1    2    0    0 -0.21317063566E+03  0.22833612517E+03 -0.97693785535E+03  0.10256640187E+04  0.00000000000E+00 0. -1.
<mgrwt>
<rscale>  0 0.19557144E+04</rscale>
<asrwt>0</asrwt>
<pdfrwt beam="1">  1        1 0.15849361E+00 0.19557144E+04</pdfrwt>
<pdfrwt beam="2">  1       -1 0.14279480E+00 0.19557144E+04</pdfrwt>
<totfact> 0.53117299E+00</totfact>
</mgrwt>
</event>
<event>
 6    1  0.1603085E-006  0.1168893E+04  0.7818608E-02  0.9140529E-01
         -1   -1    0    0    0  501 -0.00000000000E+00  0.00000000000E+00  0.13106429549E+03  0.13106429549E+03  0.00000000000E+00 0.  1.
          1   -1    0    0  501    0  0.00000000000E+00 -0.00000000000E+00 -0.26061832533E+04  0.26061832533E+04  0.00000000000E+00 0. -1.
         23    2    1    2    0    0  0.10914784429E+03 -0.76301866141E+02 -0.25687980848E+04  0.25744255432E+04  0.10586807863E+03 0.  0.
         13    1    3    3    0    0  0.77947300335E+01 -0.64212639402E+02 -0.75896545572E+03  0.76171686593E+03  0.00000000000E+00 0.  1.
        -13    1    3    3    0    0  0.10135311426E+03 -0.12089226739E+02 -0.18098326291E+04  0.18127086772E+04  0.00000000000E+00 0. -1.
         22    1    1    2    0    0 -0.10914784429E+03  0.76301866141E+02  0.93679126988E+02  0.16282200565E+03  0.00000000000E+00 0.  1.
<mgrwt>
<rscale>  0 0.11688928E+04</rscale>
<asrwt>0</asrwt>
<pdfrwt beam="1">  1        1 0.40095123E+00 0.11688928E+04</pdfrwt>
<pdfrwt beam="2">  1       -1 0.20163740E-01 0.11688928E+04</pdfrwt>
<totfact> 0.23055571E+01</totfact>
</mgrwt>
</event>
<event>
 6    1  0.1603085E-006  0.1673839E+04  0.7818608E-02  0.8776427E-01
          2   -1    0    0  501    0  0.00000000000E+00  0.00000000000E+00  0.11675521996E+04  0.11675521996E+04  0.00000000000E+00 0. -1.
         -2   -1    0    0    0  501 -0.00000000000E+00 -0.00000000000E+00 -0.59991698389E+03  0.59991698389E+03  0.00000000000E+00 0.  1.
         23    2    1    2    0    0 -0.61916040083E+03 -0.78173384618E+01  0.87529362231E+03  0.10760399334E+04  0.91116958814E+02 0.  0.
         11    1    3    3    0    0 -0.38680862460E+03  0.12461457931E+02  0.61402230690E+03  0.72580961234E+03  0.00000000000E+00 0.  1.
        -11    1    3    3    0    0 -0.23235177624E+03 -0.20278796393E+02  0.26127131541E+03  0.35023032102E+03  0.00000000000E+00 0. -1.
         22    1    1    2    0    0  0.61916040083E+03  0.78173384618E+01 -0.30765840663E+03  0.69142925011E+03  0.00000000000E+00 0.  1.
<mgrwt>
<rscale>  0 0.16738392E+04</rscale>
<asrwt>0</asrwt>
<pdfrwt beam="1">  1        2 0.17962342E+00 0.16738392E+04</pdfrwt>
<pdfrwt beam="2">  1       -2 0.92294921E-01 0.16738392E+04</pdfrwt>
<totfact> 0.18835237E+01</totfact>
</mgrwt>
</event>
<event>
 6    1  0.1603085E-006  0.3656812E+04  0.7818608E-02  0.8077601E-01
         -2   -1    0    0    0  501 -0.00000000000E+00  0.00000000000E+00  0.15738833423E+04  0.15738833423E+04  0.00000000000E+00 0.  1.
          2   -1    0    0  501    0  0.00000000000E+00 -0.00000000000E+00 -0.21240887705E+04  0.21240887705E+04  0.00000000000E+00 0. -1.
         23    2    1    2    0    0  0.34868819476E+03 -0.10585583603E+04 -0.17395934922E+04  0.20680110011E+04  0.91404175829E+02 0.  0.
         13    1    3    3    0    0  0.71882197527E+02 -0.22267687988E+03 -0.43750488746E+03  0.49614772972E+03  0.00000000000E+00 0.  1.
        -13    1    3    3    0    0  0.27680599723E+03 -0.83588148037E+03 -0.13020886047E+04  0.15718632714E+04  0.00000000000E+00 0. -1.
         22    1    1    2    0    0 -0.34868819476E+03  0.10585583603E+04  0.11893880640E+04  0.16299611118E+04  0.00000000000E+00 0.  1.
<mgrwt>
<rscale>  0 0.36568117E+04</rscale>
<asrwt>0</asrwt>
<pdfrwt beam="1">  1        2 0.32678289E+00 0.36568117E+04</pdfrwt>
<pdfrwt beam="2">  1       -2 0.24213590E+00 0.36568117E+04</pdfrwt>
<totfact> 0.33207218E-01</totfact>
</mgrwt>
</event>
<event>
 6    1  0.1603085E-006  0.1442153E+04  0.7818608E-02  0.8923859E-01
          2   -1    0    0  501    0  0.00000000000E+00  0.00000000000E+00  0.64649750633E+03  0.64649750633E+03  0.00000000000E+00 0. -1.
         -2   -1    0    0    0  501 -0.00000000000E+00 -0.00000000000E+00 -0.80425862733E+03  0.80425862733E+03  0.00000000000E+00 0.  1.
         23    2    1    2    0    0 -0.48312811475E+03  0.38643339944E+03  0.28824292963E+03  0.68808768628E+03  0.87390674948E+02 0.  0.
         11    1    3    3    0    0 -0.91129865550E+02  0.11886140685E+03  0.79967069145E+02  0.16978639103E+03  0.00000000000E+00 0. -1.
        -11    1    3    3    0    0 -0.39199824920E+03  0.26757199259E+03  0.20827586049E+03  0.51830129525E+03  0.00000000000E+00 0.  1.
         22    1    1    2    0    0  0.48312811475E+03 -0.38643339944E+03 -0.44600405063E+03  0.76266844739E+03  0.00000000000E+00 0. -1.
<mgrwt>
<rscale>  0 0.14421528E+04</rscale>
<asrwt>0</asrwt>
<pdfrwt beam="1">  1        2 0.99461155E-01 0.14421528E+04</pdfrwt>
<pdfrwt beam="2">  1       -2 0.12373210E+00 0.14421528E+04</pdfrwt>
<totfact> 0.21600036E+01</totfact>
</mgrwt>
</event>
<event>
 6    1  0.1603085E-006  0.2332168E+04  0.7818608E-02  0.8465345E-01
         -1   -1    0    0    0  501 -0.00000000000E+00  0.00000000000E+00  0.64199559462E+03  0.64199559462E+03  0.00000000000E+00 0. -1.
          1   -1    0    0  501    0  0.00000000000E+00 -0.00000000000E+00 -0.21180079019E+04  0.21180079019E+04  0.00000000000E+00 0.  1.
         23    2    1    2    0    0  0.58738040276E+02 -0.11616570390E+04 -0.80128422041E+03  0.14153268719E+04  0.90534627740E+02 0.  0.
         11    1    3    3    0    0  0.17926457595E+02 -0.78577215676E+03 -0.58454468429E+03  0.97951606835E+03  0.00000000000E+00 0. -1.
        -11    1    3    3    0    0  0.40811582681E+02 -0.37588488224E+03 -0.21673953612E+03  0.43581080355E+03  0.00000000000E+00 0.  1.
         22    1    1    2    0    0 -0.58738040276E+02  0.11616570390E+04 -0.67472808689E+03  0.13446766246E+04  0.00000000000E+00 0.  1.
<mgrwt>
<rscale>  0 0.23321679E+04</rscale>
<asrwt>0</asrwt>
<pdfrwt beam="1">  1        1 0.32584737E+00 0.23321679E+04</pdfrwt>
<pdfrwt beam="2">  1       -1 0.98768552E-01 0.23321679E+04</pdfrwt>
<totfact> 0.21891998E+00</totfact>
</mgrwt>
</event>
<event>
 6    1  0.1603085E-006  0.1935404E+04  0.7818608E-02  0.8637432E-01
          2   -1    0    0  501    0  0.00000000000E+00  0.00000000000E+00  0.18059138511E+04  0.18059138511E+04  0.00000000000E+00 0.  1.
         -2   -1    0    0    0  501 -0.00000000000E+00 -0.00000000000E+00 -0.51854470968E+03  0.51854470968E+03  0.00000000000E+00 0. -1.
         23    2    1    2    0    0  0.64556378317E+02 -0.57098837194E+03 -0.28647032997E+03  0.64899864523E+03  0.94544934758E+02 0.  0.
         11    1    3    3    0    0 -0.64133430395E+01 -0.27967104268E+03 -0.16991097638E+03  0.32730225019E+03  0.00000000000E+00 0. -1.
        -11    1    3    3    0    0  0.70969721357E+02 -0.29131732925E+03 -0.11655935359E+03  0.32169639504E+03  0.00000000000E+00 0.  1.
         22    1    1    2    0    0 -0.64556378317E+02  0.57098837194E+03  0.15738394714E+04  0.16754599155E+04  0.00000000000E+00 0.  1.
<mgrwt>
<rscale>  0 0.19354039E+04</rscale>
<asrwt>0</asrwt>
<pdfrwt beam="1">  1        2 0.27783290E+00 0.19354039E+04</pdfrwt>
<pdfrwt beam="2">  1       -2 0.79776110E-01 0.19354039E+04</pdfrwt>
<totfact> 0.11124424E+01</totfact>
</mgrwt>
</event>
<event>
 6    1  0.1603085E-006  0.8418614E+03  0.7818608E-02  0.9501326E-01
         -2   -1    0    0    0  501 -0.00000000000E+00  0.00000000000E+00  0.22045633659E+03  0.22045633659E+03  0.00000000000E+00 0.  1.
          2   -1    0    0  501    0  0.00000000000E+00 -0.00000000000E+00 -0.80370867899E+03  0.80370867899E+03  0.00000000000E+00 0. -1.
         23    2    1    2    0    0 -0.33654767222E+03  0.18522654218E+03 -0.48948744749E+03  0.62873479022E+03  0.90201261528E+02 0.  0.
         11    1    3    3    0    0 -0.25412040096E+03  0.18113415791E+03 -0.38812078342E+03  0.49802058579E+03  0.00000000000E+00 0. -1.
        -11    1    3    3    0    0 -0.82427271258E+02  0.40923842691E+01 -0.10136666407E+03  0.13071420444E+03  0.00000000000E+00 0.  1.
         22    1    1    2    0    0  0.33654767222E+03 -0.18522654218E+03 -0.93764894915E+02  0.39543022535E+03  0.00000000000E+00 0.  1.
<mgrwt>
<rscale>  0 0.84186144E+03</rscale>
<asrwt>0</asrwt>
<pdfrwt beam="1">  1        2 0.12364749E+00 0.84186144E+03</pdfrwt>
<pdfrwt beam="2">  1       -2 0.33916360E-01 0.84186144E+03</pdfrwt>
<totfact> 0.27952320E+02</totfact>
</mgrwt>
</event>
<event>
 6    1  0.1603085E-006  0.2559038E+04  0.7818608E-02  0.8382250E-01
         -1   -1    0    0    0  501 -0.00000000000E+00  0.00000000000E+00  0.11938937987E+04  0.11938937987E+04  0.00000000000E+00 0.  1.
          1   -1    0    0  501    0  0.00000000000E+00 -0.00000000000E+00 -0.13712851450E+04  0.13712851450E+04  0.00000000000E+00 0. -1.
         23    2    1    2    0    0  0.27263408497E+03  0.58521547724E+03 -0.11942998806E+04  0.13606419098E+04  0.90485926070E+02 0.  0.
         13    1    3    3    0    0  0.12084882043E+03  0.22521496618E+03 -0.38714769225E+03  0.46390683764E+03  0.00000000000E+00 0. -1.
        -13    1    3    3    0    0  0.15178526454E+03  0.36000051106E+03 -0.80715218830E+03  0.89673507212E+03  0.00000000000E+00 0.  1.
         22    1    1    2    0    0 -0.27263408497E+03 -0.58521547724E+03  0.10169085342E+04  0.12045370339E+04  0.00000000000E+00 0.  1.
<mgrwt>
<rscale>  0 0.25590380E+04</rscale>
<asrwt>0</asrwt>
<pdfrwt beam="1">  1        1 0.21096695E+00 0.25590380E+04</pdfrwt>
<pdfrwt beam="2">  1       -1 0.18367597E+00 0.25590380E+04</pdfrwt>
<totfact> 0.13936570E+00</totfact>
</mgrwt>
</event>
<event>
 6    1  0.1603085E-006  0.2663715E+04  0.7818608E-02  0.8346875E-01
          1   -1    0    0  501    0  0.00000000000E+00  0.00000000000E+00  0.19702115158E+04  0.19702115158E+04  0.00000000000E+00 0. -1.
         -1   -1    0    0    0  501 -0.00000000000E+00 -0.00000000000E+00 -0.90033210677E+03  0.90033210677E+03  0.00000000000E+00 0.  1.
         23    2    1    2    0    0  0.32173651891E+03  0.70921256358E+03 -0.62678489256E+03  0.10036835313E+04  0.89579470887E+02 0.  0.
         13    1    3    3    0    0  0.13137718033E+03  0.35035936975E+03 -0.25320688337E+03  0.45180236528E+03  0.00000000000E+00 0.  1.
        -13    1    3    3    0    0  0.19035933858E+03  0.35885319382E+03 -0.37357800919E+03  0.55188116606E+03  0.00000000000E+00 0. -1.
         22    1    1    2    0    0 -0.32173651891E+03 -0.70921256358E+03  0.16966643016E+04  0.18668600913E+04  0.00000000000E+00 0. -1.
<mgrwt>
<rscale>  0 0.26637152E+04</rscale>
<asrwt>0</asrwt>
<pdfrwt beam="1">  1        1 0.30310946E+00 0.26637152E+04</pdfrwt>
<pdfrwt beam="2">  1       -1 0.13851263E+00 0.26637152E+04</pdfrwt>
<totfact> 0.11785110E+00</totfact>
</mgrwt>
</event>
<event>
 6    1  0.1603085E-006  0.3790651E+04  0.7818608E-02  0.8048164E-01
         -1   -1    0    0    0  501 -0.00000000000E+00  0.00000000000E+00  0.13983338529E+04  0.13983338529E+04  0.00000000000E+00 0.  1.
          1   -1    0    0  501    0  0.00000000000E+00 -0.00000000000E+00 -0.25689565554E+04  0.25689565554E+04  0.00000000000E+00 0. -1.
         23    2    1    2    0    0 -0.40876763489E+03  0.10624725039E+04 -0.21701851127E+04  0.24523436063E+04  0.91361584965E+02 0.  0.
         13    1    3    3    0    0 -0.35041715418E+03  0.82356706433E+03 -0.17456503857E+04  0.19617212240E+04  0.00000000000E+00 0. -1.
        -13    1    3    3    0    0 -0.58350480709E+02  0.23890543958E+03 -0.42453472693E+03  0.49062238231E+03  0.00000000000E+00 0.  1.
         22    1    1    2    0    0  0.40876763489E+03 -0.10624725039E+04  0.99956241021E+03  0.15149468020E+04  0.00000000000E+00 0.  1.
<mgrwt>
<rscale>  0 0.37906511E+04</rscale>
<asrwt>0</asrwt>
<pdfrwt beam="1">  1        1 0.39522408E+00 0.37906511E+04</pdfrwt>
<pdfrwt beam="2">  1       -1 0.21512829E+00 0.37906511E+04</pdfrwt>
<totfact> 0.11461561E-01</totfact>
</mgrwt>
</event>
<event>
 6    1  0.1603085E-006  0.6747178E+03  0.7818608E-02  0.9761472E-01
         -1   -1    0    0    0  501 -0.00000000000E+00  0.00000000000E+00  0.15379499405E+04  0.15379499405E+04  0.00000000000E+00 0.  1.
          1   -1    0    0  501    0  0.00000000000E+00 -0.00000000000E+00 -0.74001778398E+02  0.74001778398E+02  0.00000000000E+00 0. -1.
         23    2    1    2    0    0  0.11211839809E+03 -0.27777830597E+03  0.40667897462E+03  0.51306616650E+03  0.90098725593E+02 0.  0.
         11    1    3    3    0    0  0.55272836477E+02 -0.64610547257E+02  0.16641227578E+03  0.18687604127E+03  0.00000000000E+00 0.  1.
        -11    1    3    3    0    0  0.56845561616E+02 -0.21316775872E+03  0.24026669884E+03  0.32619012524E+03  0.00000000000E+00 0. -1.
         22    1    1    2    0    0 -0.11211839809E+03  0.27777830597E+03  0.10572691875E+04  0.10988855524E+04  0.00000000000E+00 0.  1.
<mgrwt>
<rscale>  0 0.67471781E+03</rscale>
<asrwt>0</asrwt>
<pdfrwt beam="1">  1        1 0.11384890E-01 0.67471781E+03</pdfrwt>
<pdfrwt beam="2">  1       -1 0.23660766E+00 0.67471781E+03</pdfrwt>
<totfact> 0.49582647E+01</totfact>
</mgrwt>
</event>
<event>
 6    1  0.1603085E-006  0.2415409E+04  0.7818608E-02  0.8433757E-01
          2   -1    0    0  501    0  0.00000000000E+00  0.00000000000E+00  0.19124075978E+04  0.19124075978E+04  0.00000000000E+00 0. -1.
         -2   -1    0    0    0  501 -0.00000000000E+00 -0.00000000000E+00 -0.76267743872E+03  0.76267743872E+03  0.00000000000E+00 0.  1.
         23    2    1    2    0    0 -0.69787698830E+03 -0.98329179809E+03  0.54990000893E+03  0.13283514845E+04  0.90733652220E+02 0.  0.
         11    1    3    3    0    0 -0.33172065591E+03 -0.42308000118E+03  0.20432244218E+03  0.57513732390E+03  0.00000000000E+00 0. -1.
        -11    1    3    3    0    0 -0.36615633239E+03 -0.56021179690E+03  0.34557756674E+03  0.75321416063E+03  0.00000000000E+00 0.  1.
         22    1    1    2    0    0  0.69787698830E+03  0.98329179809E+03  0.59983015010E+03  0.13467335520E+04  0.00000000000E+00 0.  1.
<mgrwt>
<rscale>  0 0.24154090E+04</rscale>
<asrwt>0</asrwt>
<pdfrwt beam="1">  1        2 0.29421655E+00 0.24154090E+04</pdfrwt>
<pdfrwt beam="2">  1       -2 0.11733499E+00 0.24154090E+04</pdfrwt>
<totfact> 0.37679216E+00</totfact>
</mgrwt>
</event>
<event>
 6    1  0.1603085E-006  0.1743641E+04  0.7818608E-02  0.8736859E-01
         -2   -1    0    0    0  501 -0.00000000000E+00  0.00000000000E+00  0.63864039577E+03  0.63864039577E+03  0.00000000000E+00 0.  1.
          2   -1    0    0  501    0  0.00000000000E+00 -0.00000000000E+00 -0.11901388807E+04  0.11901388807E+04  0.00000000000E+00 0. -1.
         23    2    1    2    0    0  0.83407881405E+03  0.11393791912E+03 -0.50459773252E+03  0.98564880133E+03  0.90638680781E+02 0.  0.
         13    1    3    3    0    0  0.46960785695E+03  0.71510367472E+02 -0.33595940144E+03  0.58181955225E+03  0.00000000000E+00 0.  1.
        -13    1    3    3    0    0  0.36447095710E+03  0.42427551652E+02 -0.16863833107E+03  0.40382924908E+03  0.00000000000E+00 0. -1.
         22    1    1    2    0    0 -0.83407881405E+03 -0.11393791912E+03 -0.46900752366E+02  0.84313047509E+03  0.00000000000E+00 0.  1.
<mgrwt>
<rscale>  0 0.17436407E+04</rscale>
<asrwt>0</asrwt>
<pdfrwt beam="1">  1        2 0.18309829E+00 0.17436407E+04</pdfrwt>
<pdfrwt beam="2">  1       -2 0.98252369E-01 0.17436407E+04</pdfrwt>
<totfact> 0.15682430E+01</totfact>
</mgrwt>
</event>
<event>
 6    1  0.1603085E-006  0.1063115E+04  0.7818608E-02  0.9241907E-01
         -2   -1    0    0    0  501 -0.00000000000E+00  0.00000000000E+00  0.26640398542E+03  0.26640398542E+03  0.00000000000E+00 0.  1.
          2   -1    0    0  501    0  0.00000000000E+00 -0.00000000000E+00 -0.10606202288E+04  0.10606202288E+04  0.00000000000E+00 0. -1.
         23    2    1    2    0    0  0.11461549815E+03 -0.41826798735E+03 -0.77507326993E+03  0.89291446419E+03  0.92048057772E+02 0.  0.
         13    1    3    3    0    0  0.59650013395E+02 -0.11498949640E+03 -0.16864784622E+03  0.21265654096E+03  0.00000000000E+00 0. -1.
        -13    1    3    3    0    0  0.54965484752E+02 -0.30327849095E+03 -0.60642542371E+03  0.68025792323E+03  0.00000000000E+00 0.  1.
         22    1    1    2    0    0 -0.11461549815E+03  0.41826798735E+03 -0.19142973479E+02  0.43410975005E+03  0.00000000000E+00 0.  1.
<mgrwt>
<rscale>  0 0.10631152E+04</rscale>
<asrwt>0</asrwt>
<pdfrwt beam="1">  1        2 0.16317234E+00 0.10631152E+04</pdfrwt>
<pdfrwt beam="2">  1       -2 0.40985228E-01 0.10631152E+04</pdfrwt>
<totfact> 0.12921615E+02</totfact>
</mgrwt>
</event>
<event>
 6    1  0.1603085E-006  0.1058179E+04  0.7818608E-02  0.9246940E-01
          1   -1    0    0  501    0  0.00000000000E+00  0.00000000000E+00  0.67554949084E+03  0.67554949084E+03  0.00000000000E+00 0. -1.
         -1   -1    0    0    0  501 -0.00000000000E+00 -0.00000000000E+00 -0.41438207985E+03  0.41438207985E+03  0.00000000000E+00 0.  1.
         23    2    1    2    0    0  0.12024493980E+03 -0.42559819227E+03 -0.16014438339E+03  0.47911548144E+03  0.91174306746E+02 0.  0.
         11    1    3    3    0    0  0.12121882784E+03 -0.27029084739E+03 -0.10721618582E+03  0.31503405674E+03  0.00000000000E+00 0. -1.
        -11    1    3    3    0    0 -0.97388803991E+00 -0.15530734489E+03 -0.52928197563E+02  0.16408142470E+03  0.00000000000E+00 0.  1.
         22    1    1    2    0    0 -0.12024493980E+03  0.42559819227E+03  0.42131179437E+03  0.61081608925E+03  0.00000000000E+00 0.  1.
<mgrwt>
<rscale>  0 0.10581788E+04</rscale>
<asrwt>0</asrwt>
<pdfrwt beam="1">  1        1 0.10393069E+00 0.10581788E+04</pdfrwt>
<pdfrwt beam="2">  1       -1 0.63751089E-01 0.10581788E+04</pdfrwt>
<totfact> 0.71699426E+01</totfact>
</mgrwt>
</event>
<event>
 6    1  0.1603085E-006  0.2247440E+04  0.7818608E-02  0.8498938E-01
         -1   -1    0    0    0  501 -0.00000000000E+00  0.00000000000E+00  0.92851311950E+03  0.92851311950E+03  0.00000000000E+00 0.  1.
          1   -1    0    0  501    0  0.00000000000E+00 -0.00000000000E+00 -0.13599666288E+04  0.13599666288E+04  0.00000000000E+00 0. -1.
         23    2    1    2    0    0  0.59735381028E+03 -0.24588719002E+03  0.71788642535E+03  0.97004341299E+03  0.91275508888E+02 0.  0.
         11    1    3    3    0    0  0.48357309334E+03 -0.20168366488E+03  0.63122001858E+03  0.82034014234E+03  0.00000000000E+00 0.  1.
        -11    1    3    3    0    0  0.11378071694E+03 -0.44203525145E+02  0.86666406773E+02  0.14970327066E+03  0.00000000000E+00 0. -1.
         22    1    1    2    0    0 -0.59735381028E+03  0.24588719002E+03 -0.11493399346E+04  0.13184363353E+04  0.00000000000E+00 0. -1.
<mgrwt>
<rscale>  0 0.22474402E+04</rscale>
<asrwt>0</asrwt>
<pdfrwt beam="1">  1        1 0.20922563E+00 0.22474402E+04</pdfrwt>
<pdfrwt beam="2">  1       -1 0.14284817E+00 0.22474402E+04</pdfrwt>
<totfact> 0.29596451E+00</totfact>
</mgrwt>
</event>
<event>
 6    1  0.1603085E-006  0.4038920E+04  0.7818608E-02  0.7996741E-01
         -1   -1    0    0    0  501 -0.00000000000E+00  0.00000000000E+00  0.19586193237E+04  0.19586193237E+04  0.00000000000E+00 0.  1.
          1   -1    0    0  501    0  0.00000000000E+00 -0.00000000000E+00 -0.20821908820E+04  0.20821908820E+04  0.00000000000E+00 0. -1.
         23    2    1    2    0    0  0.84342475932E+03  0.17974740215E+04 -0.42495394464E+03  0.20325498826E+04  0.91624165704E+02 0.  0.
         11    1    3    3    0    0  0.80521082168E+03  0.16613190797E+04 -0.39125072144E+03  0.18871731980E+04  0.00000000000E+00 0.  1.
        -11    1    3    3    0    0  0.38213937648E+02  0.13615494171E+03 -0.33703223204E+02  0.14537668464E+03  0.00000000000E+00 0. -1.
         22    1    1    2    0    0 -0.84342475932E+03 -0.17974740215E+04  0.30138238639E+03  0.20082603231E+04  0.00000000000E+00 0. -1.
<mgrwt>
<rscale>  0 0.40389203E+04</rscale>
<asrwt>0</asrwt>
<pdfrwt beam="1">  1        1 0.32033706E+00 0.40389203E+04</pdfrwt>
<pdfrwt beam="2">  1       -1 0.30132605E+00 0.40389203E+04</pdfrwt>
<totfact> 0.66192933E-02</totfact>
</mgrwt>
</event>
<event>
 6    1  0.1603085E-006  0.2258276E+04  0.7818608E-02  0.8494556E-01
          1   -1    0    0  501    0  0.00000000000E+00  0.00000000000E+00  0.16186585854E+04  0.16186585854E+04  0.00000000000E+00 0. -1.
         -1   -1    0    0    0  501 -0.00000000000E+00 -0.00000000000E+00 -0.78766028731E+03  0.78766028731E+03  0.00000000000E+00 0.  1.
         23    2    1    2    0    0 -0.37477798863E+03 -0.61931614568E+03 -0.50323599009E+03  0.88836229730E+03  0.10922490775E+03 0.  0.
         11    1    3    3    0    0 -0.74608344435E+02 -0.22015339892E+03 -0.16944101791E+03  0.28765288573E+03  0.00000000000E+00 0. -1.
        -11    1    3    3    0    0 -0.30016964419E+03 -0.39916274676E+03 -0.33379497218E+03  0.60070941157E+03  0.00000000000E+00 0.  1.
         22    1    1    2    0    0  0.37477798863E+03  0.61931614568E+03  0.13342342882E+04  0.15179565754E+04  0.00000000000E+00 0. -1.
<mgrwt>
<rscale>  0 0.22582764E+04</rscale>
<asrwt>0</asrwt>
<pdfrwt beam="1">  1        1 0.24902440E+00 0.22582764E+04</pdfrwt>
<pdfrwt beam="2">  1       -1 0.12117851E+00 0.22582764E+04</pdfrwt>
<totfact> 0.29702797E+00</totfact>
</mgrwt>
</event>
<event>
 6    1  0.1603085E-006  0.2265411E+04  0.7818608E-02  0.8491685E-01
         -1   -1    0    0    0  501 -0.00000000000E+00  0.00000000000E+00  0.62845170839E+03  0.62845170839E+03  0.00000000000E+00 0.  1.
          1   -1    0    0  501    0  0.00000000000E+00 -0.00000000000E+00 -0.20415606698E+04  0.20415606698E+04  0.00000000000E+00 0. -1.
         23    2    1    2    0    0 -0.36056409232E+02  0.94607312055E+03  0.21444538166E+02  0.95120518794E+03  0.89314205396E+02 0.  0.
         13    1    3    3    0    0  0.18728896710E+02  0.59799208069E+03  0.25263059686E+02  0.59881843853E+03  0.00000000000E+00 0. -1.
        -13    1    3    3    0    0 -0.54785305942E+02  0.34808103986E+03 -0.38185215202E+01  0.35238674942E+03  0.00000000000E+00 0.  1.
         22    1    1    2    0    0  0.36056409232E+02 -0.94607312055E+03 -0.14345534996E+04  0.17188071902E+04  0.00000000000E+00 0. -1.
<mgrwt>
<rscale>  0 0.22654115E+04</rscale>
<asrwt>0</asrwt>
<pdfrwt beam="1">  1        1 0.31408626E+00 0.22654115E+04</pdfrwt>
<pdfrwt beam="2">  1       -1 0.96684878E-01 0.22654115E+04</pdfrwt>
<totfact> 0.26048769E+00</totfact>
</mgrwt>
</event>
<event>
 6    1  0.1603085E-006  0.1847114E+04  0.7818608E-02  0.8681638E-01
         -1   -1    0    0    0  501 -0.00000000000E+00  0.00000000000E+00  0.83086622581E+03  0.83086622581E+03  0.00000000000E+00 0. -1.
          1   -1    0    0  501    0  0.00000000000E+00 -0.00000000000E+00 -0.10265881373E+04  0.10265881373E+04  0.00000000000E+00 0.  1.
         23    2    1    2    0    0 -0.85754983824E+03 -0.18774338744E+03 -0.37961800682E+03  0.96053905024E+03  0.88803892585E+02 0.  0.
         13    1    3    3    0    0 -0.45303783368E+03 -0.54406871683E+02 -0.20448267561E+03  0.50001655078E+03  0.00000000000E+00 0. -1.
        -13    1    3    3    0    0 -0.40451200456E+03 -0.13333651576E+03 -0.17513533121E+03  0.46052249946E+03  0.00000000000E+00 0.  1.
         22    1    1    2    0    0  0.85754983824E+03  0.18774338744E+03  0.18389609533E+03  0.89691531287E+03  0.00000000000E+00 0. -1.
<mgrwt>
<rscale>  0 0.18471139E+04</rscale>
<asrwt>0</asrwt>
<pdfrwt beam="1">  1        1 0.15793664E+00 0.18471139E+04</pdfrwt>
<pdfrwt beam="2">  1       -1 0.12782557E+00 0.18471139E+04</pdfrwt>
<totfact> 0.71758997E+00</totfact>
</mgrwt>
</event>
<event>
 6    1  0.1603085E-006  0.3149790E+04  0.7818608E-02  0.8202205E-01
          1   -1    0    0  501    0  0.00000000000E+00  0.00000000000E+00  0.30856141884E+04  0.30856141884E+04  0.00000000000E+00 0. -1.
         -1   -1    0    0    0  501 -0.00000000000E+00 -0.00000000000E+00 -0.80382507935E+03  0.80382507935E+03  0.00000000000E+00 0.  1.
         23    2    1    2    0    0  0.31636060835E+03 -0.89401708981E+03  0.26928261833E+04  0.28558522768E+04  0.72310316953E+02 0.  0.
         11    1    3    3    0    0  0.79151811693E+02 -0.20188550949E+03  0.70824991466E+03  0.74070284855E+03  0.00000000000E+00 0. -1.
        -11    1    3    3    0    0  0.23720879665E+03 -0.69213158032E+03  0.19845762686E+04  0.21151494282E+04  0.00000000000E+00 0.  1.
         22    1    1    2    0    0 -0.31636060835E+03  0.89401708981E+03 -0.41103707428E+03  0.10335869909E+04  0.00000000000E+00 0.  1.
<mgrwt>
<rscale>  0 0.31497899E+04</rscale>
<asrwt>0</asrwt>
<pdfrwt beam="1">  1        1 0.47470987E+00 0.31497899E+04</pdfrwt>
<pdfrwt beam="2">  1       -1 0.12366540E+00 0.31497899E+04</pdfrwt>
<totfact> 0.24954444E-01</totfact>
</mgrwt>
</event>
<event>
 6    1  0.1603085E-006  0.8361262E+03  0.7818608E-02  0.9509149E-01
         -2   -1    0    0    0  501 -0.00000000000E+00  0.00000000000E+00  0.12811550084E+03  0.12811550084E+03  0.00000000000E+00 0.  1.
          2   -1    0    0  501    0  0.00000000000E+00 -0.00000000000E+00 -0.13642125288E+04  0.13642125288E+04  0.00000000000E+00 0. -1.
         23    2    1    2    0    0  0.33660556990E+03  0.22524919899E+03 -0.48071726195E+03  0.63521712535E+03  0.91494257002E+02 0.  0.
         11    1    3    3    0    0  0.31955031696E+03  0.19226158318E+03 -0.46168094243E+03  0.59348649020E+03  0.00000000000E+00 0. -1.
        -11    1    3    3    0    0  0.17055252939E+02  0.32987615809E+02 -0.19036319519E+02  0.41730635155E+02  0.00000000000E+00 0.  1.
         22    1    1    2    0    0 -0.33660556990E+03 -0.22524919899E+03 -0.75537976596E+03  0.85711090423E+03  0.00000000000E+00 0. -1.
<mgrwt>
<rscale>  0 0.83612624E+03</rscale>
<asrwt>0</asrwt>
<pdfrwt beam="1">  1        2 0.20987885E+00 0.83612624E+03</pdfrwt>
<pdfrwt beam="2">  1       -2 0.19710077E-01 0.83612624E+03</pdfrwt>
<totfact> 0.33419185E+02</totfact>
</mgrwt>
</event>
<event>
 6    1  0.1603085E-006  0.8200540E+03  0.7818608E-02  0.9531435E-01
          1   -1    0    0  501    0  0.00000000000E+00  0.00000000000E+00  0.13871761130E+04  0.13871761130E+04  0.00000000000E+00 0. -1.
         -1   -1    0    0    0  501 -0.00000000000E+00 -0.00000000000E+00 -0.12119741273E+03  0.12119741273E+03  0.00000000000E+00 0.  1.
         23    2    1    2    0    0  0.25113093584E+03  0.20900772066E+03  0.10812402821E+04  0.11330346690E+04  0.89084450294E+02 0.  0.
         11    1    3    3    0    0  0.10330175803E+03  0.14228707537E+03  0.52773067821E+03  0.55625222135E+03  0.00000000000E+00 0. -1.
        -11    1    3    3    0    0  0.14782917781E+03  0.66720645289E+02  0.55350960384E+03  0.57678244761E+03  0.00000000000E+00 0.  1.
         22    1    1    2    0    0 -0.25113093584E+03 -0.20900772066E+03  0.18473841820E+03  0.37533885675E+03  0.00000000000E+00 0.  1.
<mgrwt>
<rscale>  0 0.82005404E+03</rscale>
<asrwt>0</asrwt>
<pdfrwt beam="1">  1        1 0.21341170E+00 0.82005404E+03</pdfrwt>
<pdfrwt beam="2">  1       -1 0.18645757E-01 0.82005404E+03</pdfrwt>
<totfact> 0.18257913E+02</totfact>
</mgrwt>
</event>
<event>
 6    1  0.1603085E-006  0.1040313E+04  0.7818608E-02  0.9265403E-01
         -2   -1    0    0    0  501 -0.00000000000E+00  0.00000000000E+00  0.19838243929E+03  0.19838243929E+03  0.00000000000E+00 0.  1.
          2   -1    0    0  501    0  0.00000000000E+00 -0.00000000000E+00 -0.13638446799E+04  0.13638446799E+04  0.00000000000E+00 0. -1.
         23    2    1    2    0    0  0.47153150208E+03  0.13857451909E+03 -0.82381841218E+03  0.96367439778E+03  0.91906005726E+02 0.  0.
         11    1    3    3    0    0  0.20295948382E+03  0.13492159714E+02 -0.31870079342E+03  0.37808039644E+03  0.00000000000E+00 0. -1.
        -11    1    3    3    0    0  0.26857201826E+03  0.12508235937E+03 -0.50511761876E+03  0.58559400134E+03  0.00000000000E+00 0.  1.
         22    1    1    2    0    0 -0.47153150208E+03 -0.13857451909E+03 -0.34164382838E+03  0.59855272138E+03  0.00000000000E+00 0.  1.
<mgrwt>
<rscale>  0 0.10403131E+04</rscale>
<asrwt>0</asrwt>
<pdfrwt beam="1">  1        2 0.20982226E+00 0.10403131E+04</pdfrwt>
<pdfrwt beam="2">  1       -2 0.30520375E-01 0.10403131E+04</pdfrwt>
<totfact> 0.14999205E+02</totfact>
</mgrwt>
</event>
<event>
 6    1  0.1603085E-006  0.1554236E+04  0.7818608E-02  0.8849166E-01
         -2   -1    0    0    0  501 -0.00000000000E+00  0.00000000000E+00  0.62991873875E+03  0.62991873875E+03  0.00000000000E+00 0.  1.
          2   -1    0    0  501    0  0.00000000000E+00 -0.00000000000E+00 -0.95871527200E+03  0.95871527200E+03  0.00000000000E+00 0. -1.
         23    2    1    2    0    0  0.29225754014E+03 -0.24165228191E+03  0.52521634963E+03  0.65420996394E+03  0.91258796141E+02 0.  0.
         11    1    3    3    0    0  0.11724085051E+03 -0.43171841354E+02  0.15338486427E+03  0.19782856594E+03  0.00000000000E+00 0. -1.
        -11    1    3    3    0    0  0.17501668963E+03 -0.19848044056E+03  0.37183148536E+03  0.45638139800E+03  0.00000000000E+00 0.  1.
         22    1    1    2    0    0 -0.29225754014E+03  0.24165228191E+03 -0.85401288288E+03  0.93442404681E+03  0.00000000000E+00 0. -1.
<mgrwt>
<rscale>  0 0.15542364E+04</rscale>
<asrwt>0</asrwt>
<pdfrwt beam="1">  1        2 0.14749466E+00 0.15542364E+04</pdfrwt>
<pdfrwt beam="2">  1       -2 0.96910576E-01 0.15542364E+04</pdfrwt>
<totfact> 0.22938643E+01</totfact>
</mgrwt>
</event>
<event>
 6    1  0.1603085E-006  0.2071408E+04  0.7818608E-02  0.8573944E-01
         -2   -1    0    0    0  501 -0.00000000000E+00  0.00000000000E+00  0.11096387696E+04  0.11096387696E+04  0.00000000000E+00 0.  1.
          2   -1    0    0  501    0  0.00000000000E+00 -0.00000000000E+00 -0.96669552429E+03  0.96669552429E+03  0.00000000000E+00 0. -1.
         23    2    1    2    0    0  0.14085315448E+03  0.88190786923E+03  0.59292240008E+03  0.10762931245E+04  0.96170766347E+02 0.  0.
         13    1    3    3    0    0  0.49895253313E+02  0.15874546131E+03  0.14562595847E+03  0.22112570536E+03  0.00000000000E+00 0.  1.
        -13    1    3    3    0    0  0.90957901166E+02  0.72316240792E+03  0.44729644162E+03  0.85516741910E+03  0.00000000000E+00 0. -1.
         22    1    1    2    0    0 -0.14085315448E+03 -0.88190786923E+03 -0.44997915474E+03  0.10000411695E+04  0.00000000000E+00 0. -1.
<mgrwt>
<rscale>  0 0.20714081E+04</rscale>
<asrwt>0</asrwt>
<pdfrwt beam="1">  1        2 0.14872239E+00 0.20714081E+04</pdfrwt>
<pdfrwt beam="2">  1       -2 0.17071366E+00 0.20714081E+04</pdfrwt>
<totfact> 0.51500305E+00</totfact>
</mgrwt>
</event>
<event>
 6    1  0.1603085E-006  0.4573877E+04  0.7818608E-02  0.7897829E-01
         -1   -1    0    0    0  501 -0.00000000000E+00  0.00000000000E+00  0.16283584407E+04  0.16283584407E+04  0.00000000000E+00 0. -1.
          1   -1    0    0  501    0  0.00000000000E+00 -0.00000000000E+00 -0.32118769126E+04  0.32118769126E+04  0.00000000000E+00 0.  1.
         23    2    1    2    0    0 -0.10566382380E+04  0.19907736458E+04 -0.38738099063E+03  0.22886850503E+04  0.91384643646E+02 0.  0.
         13    1    3    3    0    0 -0.53959813702E+03  0.91968969197E+03 -0.18715148073E+03  0.10825991667E+04  0.00000000000E+00 0. -1.
        -13    1    3    3    0    0 -0.51704010094E+03  0.10710839538E+04 -0.20022950990E+03  0.12060858837E+04  0.00000000000E+00 0.  1.
         22    1    1    2    0    0  0.10566382380E+04 -0.19907736458E+04 -0.11961374812E+04  0.25515503030E+04  0.00000000000E+00 0.  1.
<mgrwt>
<rscale>  0 0.45738766E+04</rscale>
<asrwt>0</asrwt>
<pdfrwt beam="1">  1        1 0.49413490E+00 0.45738766E+04</pdfrwt>
<pdfrwt beam="2">  1       -1 0.25051669E+00 0.45738766E+04</pdfrwt>
<totfact> 0.21505439E-02</totfact>
</mgrwt>
</event>
<event>
 6    1  0.1603085E-006  0.2306990E+04  0.7818608E-02  0.8475170E-01
         -1   -1    0    0    0  501 -0.00000000000E+00  0.00000000000E+00  0.79136126848E+03  0.79136126848E+03  0.00000000000E+00 0.  1.
          1   -1    0    0  501    0  0.00000000000E+00 -0.00000000000E+00 -0.16813436496E+04  0.16813436496E+04  0.00000000000E+00 0. -1.
         23    2    1    2    0    0  0.10742074727E+04 -0.39731429526E+03 -0.57556542199E+03  0.12850019384E+04  0.90410636396E+02 0.  0.
         11    1    3    3    0    0  0.42277174450E+03 -0.16744745095E+03 -0.18072418549E+03  0.48932180413E+03  0.00000000000E+00 0.  1.
        -11    1    3    3    0    0  0.65143572822E+03 -0.22986684431E+03 -0.39484123650E+03  0.79568013432E+03  0.00000000000E+00 0. -1.
         22    1    1    2    0    0 -0.10742074727E+04  0.39731429526E+03 -0.31441695913E+03  0.11877029796E+04  0.00000000000E+00 0.  1.
<mgrwt>
<rscale>  0 0.23069896E+04</rscale>
<asrwt>0</asrwt>
<pdfrwt beam="1">  1        1 0.25866825E+00 0.23069896E+04</pdfrwt>
<pdfrwt beam="2">  1       -1 0.12174789E+00 0.23069896E+04</pdfrwt>
<totfact> 0.26486090E+00</totfact>
</mgrwt>
</event>
<event>
 6    1  0.1603085E-006  0.4444931E+04  0.7818608E-02  0.7920349E-01
          1   -1    0    0  501    0  0.00000000000E+00  0.00000000000E+00  0.20437926411E+04  0.20437926411E+04  0.00000000000E+00 0. -1.
         -1   -1    0    0    0  501 -0.00000000000E+00 -0.00000000000E+00 -0.24167587606E+04  0.24167587606E+04  0.00000000000E+00 0.  1.
         23    2    1    2    0    0 -0.10950760117E+04 -0.19172687302E+04 -0.43187329111E+03  0.22518004175E+04  0.94761415178E+02 0.  0.
         13    1    3    3    0    0 -0.49277543204E+03 -0.80363222031E+03 -0.14709951334E+03  0.95409152536E+03  0.00000000000E+00 0. -1.
        -13    1    3    3    0    0 -0.60230057964E+03 -0.11136365099E+04 -0.28477377777E+03  0.12977088922E+04  0.00000000000E+00 0.  1.
         22    1    1    2    0    0  0.10950760117E+04  0.19172687302E+04  0.58907171662E+02  0.22087509841E+04  0.00000000000E+00 0.  1.
<mgrwt>
<rscale>  0 0.44449314E+04</rscale>
<asrwt>0</asrwt>
<pdfrwt beam="1">  1        1 0.31442964E+00 0.44449314E+04</pdfrwt>
<pdfrwt beam="2">  1       -1 0.37180904E+00 0.44449314E+04</pdfrwt>
<totfact> 0.23332564E-02</totfact>
</mgrwt>
</event>
<event>
 6    1  0.1604147E-006  0.2776451E+04  0.7818608E-02  0.8310617E-01
         -2   -1    0    0    0  501 -0.00000000000E+00  0.00000000000E+00  0.12499297206E+04  0.12499297206E+04  0.00000000000E+00 0.  1.
          2   -1    0    0  501    0  0.00000000000E+00 -0.00000000000E+00 -0.15418230952E+04  0.15418230952E+04  0.00000000000E+00 0. -1.
         23    2    1    2    0    0  0.65749222243E+03  0.76768282419E+03 -0.11007155749E+04  0.14972157199E+04  0.91908617009E+02 0.  0.
         13    1    3    3    0    0  0.21721186518E+03  0.32223121674E+03 -0.41900670178E+03  0.57147228065E+03  0.00000000000E+00 0.  1.
        -13    1    3    3    0    0  0.44028035726E+03  0.44545160744E+03 -0.68170887315E+03  0.92574343924E+03  0.00000000000E+00 0. -1.
         22    1    1    2    0    0 -0.65749222243E+03 -0.76768282419E+03  0.80882220035E+03  0.12945370960E+04  0.00000000000E+00 0.  1.
<mgrwt>
<rscale>  0 0.27764513E+04</rscale>
<asrwt>0</asrwt>
<pdfrwt beam="1">  1        2 0.23720355E+00 0.27764513E+04</pdfrwt>
<pdfrwt beam="2">  1       -2 0.19229688E+00 0.27764513E+04</pdfrwt>
<totfact> 0.15683327E+00</totfact>
</mgrwt>
</event>
<event>
 6    1  0.1603085E-006  0.1997301E+04  0.7818608E-02  0.8607884E-01
         -1   -1    0    0    0  501 -0.00000000000E+00  0.00000000000E+00  0.91462135560E+03  0.91462135560E+03  0.00000000000E+00 0.  1.
          1   -1    0    0  501    0  0.00000000000E+00 -0.00000000000E+00 -0.10903995225E+04  0.10903995225E+04  0.00000000000E+00 0. -1.
         23    2    1    2    0    0  0.44301432593E+03  0.89196215627E+03 -0.12376078415E+03  0.10077425873E+04  0.91488848565E+02 0.  0.
         11    1    3    3    0    0  0.26067035932E+03  0.60127726916E+03 -0.10841392139E+03  0.66425670413E+03  0.00000000000E+00 0. -1.
        -11    1    3    3    0    0  0.18234396660E+03  0.29068488711E+03 -0.15346862762E+02  0.34348588319E+03  0.00000000000E+00 0.  1.
         22    1    1    2    0    0 -0.44301432593E+03 -0.89196215627E+03 -0.52017382776E+02  0.99727829080E+03  0.00000000000E+00 0. -1.
<mgrwt>
<rscale>  0 0.19973009E+04</rscale>
<asrwt>0</asrwt>
<pdfrwt beam="1">  1        1 0.16775377E+00 0.19973009E+04</pdfrwt>
<pdfrwt beam="2">  1       -1 0.14071098E+00 0.19973009E+04</pdfrwt>
<totfact> 0.49484185E+00</totfact>
</mgrwt>
</event>
<event>
 6    1  0.1603085E-006  0.2688225E+04  0.7818608E-02  0.8338836E-01
         -2   -1    0    0    0  501 -0.00000000000E+00  0.00000000000E+00  0.86725303575E+03  0.86725303575E+03  0.00000000000E+00 0.  1.
          2   -1    0    0  501    0  0.00000000000E+00 -0.00000000000E+00 -0.20831732478E+04  0.20831732478E+04  0.00000000000E+00 0. -1.
         23    2    1    2    0    0  0.50493115922E+03  0.12393762797E+04 -0.72670609780E+03  0.15255264668E+04  0.90112208550E+02 0.  0.
         13    1    3    3    0    0  0.19284012748E+03  0.54646185626E+03 -0.27461419445E+03  0.64126502393E+03  0.00000000000E+00 0.  1.
        -13    1    3    3    0    0  0.31209103174E+03  0.69291442341E+03 -0.45209190335E+03  0.88426144286E+03  0.00000000000E+00 0. -1.
         22    1    1    2    0    0 -0.50493115922E+03 -0.12393762797E+04 -0.48921411421E+03  0.14248998167E+04  0.00000000000E+00 0. -1.
<mgrwt>
<rscale>  0 0.26882249E+04</rscale>
<asrwt>0</asrwt>
<pdfrwt beam="1">  1        2 0.32048819E+00 0.26882249E+04</pdfrwt>
<pdfrwt beam="2">  1       -2 0.13342354E+00 0.26882249E+04</pdfrwt>
<totfact> 0.21435450E+00</totfact>
</mgrwt>
</event>
<event>
 6    1  0.1603085E-006  0.2006528E+04  0.7818608E-02  0.8603575E-01
         -2   -1    0    0    0  501 -0.00000000000E+00  0.00000000000E+00  0.70466609762E+03  0.70466609762E+03  0.00000000000E+00 0. -1.
          2   -1    0    0  501    0  0.00000000000E+00 -0.00000000000E+00 -0.14283906876E+04  0.14283906876E+04  0.00000000000E+00 0.  1.
         23    2    1    2    0    0  0.86612457358E+03 -0.50037740570E+03 -0.40337044994E+03  0.10827348821E+04  0.95172370030E+02 0.  0.
         13    1    3    3    0    0  0.73907459678E+03 -0.39476793708E+03 -0.35974166001E+03  0.91185911505E+03  0.00000000000E+00 0. -1.
        -13    1    3    3    0    0  0.12704997680E+03 -0.10560946862E+03 -0.43628789933E+02  0.17087576709E+03  0.00000000000E+00 0.  1.
         22    1    1    2    0    0 -0.86612457358E+03  0.50037740570E+03 -0.32035414006E+03  0.10503219031E+04  0.00000000000E+00 0.  1.
<mgrwt>
<rscale>  0 0.20065278E+04</rscale>
<asrwt>0</asrwt>
<pdfrwt beam="1">  1        2 0.21975241E+00 0.20065278E+04</pdfrwt>
<pdfrwt beam="2">  1       -2 0.10841017E+00 0.20065278E+04</pdfrwt>
<totfact> 0.88108667E+00</totfact>
</mgrwt>
</event>
<event>
 6    1  0.1603085E-006  0.1982844E+04  0.7818608E-02  0.8614684E-01
          2   -1    0    0  501    0  0.00000000000E+00  0.00000000000E+00  0.11361367706E+04  0.11361367706E+04  0.00000000000E+00 0. -1.
         -2   -1    0    0    0  501 -0.00000000000E+00 -0.00000000000E+00 -0.86514036025E+03  0.86514036025E+03  0.00000000000E+00 0.  1.
         23    2    1    2    0    0  0.49155091384E+03  0.77095964926E+03 -0.24555838949E+03  0.95112002694E+03  0.91265005934E+02 0.  0.
         11    1    3    3    0    0  0.25244580386E+03  0.32431176011E+03 -0.13487451508E+03  0.43254842093E+03  0.00000000000E+00 0.  1.
        -11    1    3    3    0    0  0.23910510998E+03  0.44664788915E+03 -0.11068387441E+03  0.51857160601E+03  0.00000000000E+00 0. -1.
         22    1    1    2    0    0 -0.49155091384E+03 -0.77095964926E+03  0.51655479985E+03  0.10501571039E+04  0.00000000000E+00 0. -1.
<mgrwt>
<rscale>  0 0.19828442E+04</rscale>
<asrwt>0</asrwt>
<pdfrwt beam="1">  1        2 0.17479027E+00 0.19828442E+04</pdfrwt>
<pdfrwt beam="2">  1       -2 0.13309852E+00 0.19828442E+04</pdfrwt>
<totfact> 0.78789322E+00</totfact>
</mgrwt>
</event>
<event>
 6    1  0.1603085E-006  0.1261446E+04  0.7818608E-02  0.9060710E-01
          2   -1    0    0  501    0  0.00000000000E+00  0.00000000000E+00  0.25942752002E+04  0.25942752002E+04  0.00000000000E+00 0. -1.
         -2   -1    0    0    0  501 -0.00000000000E+00 -0.00000000000E+00 -0.15334214461E+03  0.15334214461E+03  0.00000000000E+00 0.  1.
         23    2    1    2    0    0 -0.18297496143E+03  0.50872123512E+03  0.53333829952E+03  0.76489323769E+03  0.91295080752E+02 0.  0.
         13    1    3    3    0    0 -0.11449944151E+03  0.19192106509E+03  0.19901578181E+03  0.29925089597E+03  0.00000000000E+00 0. -1.
        -13    1    3    3    0    0 -0.68475519922E+02  0.31680017003E+03  0.33432251770E+03  0.46564234172E+03  0.00000000000E+00 0.  1.
         22    1    1    2    0    0  0.18297496143E+03 -0.50872123512E+03  0.19075947561E+04  0.19827241071E+04  0.00000000000E+00 0. -1.
<mgrwt>
<rscale>  0 0.12614463E+04</rscale>
<asrwt>0</asrwt>
<pdfrwt beam="1">  1        2 0.39911923E+00 0.12614463E+04</pdfrwt>
<pdfrwt beam="2">  1       -2 0.23591101E-01 0.12614463E+04</pdfrwt>
<totfact> 0.48330278E+01</totfact>
</mgrwt>
</event>
<event>
 6    1  0.1603085E-006  0.2121450E+04  0.7818608E-02  0.8551853E-01
          2   -1    0    0  501    0  0.00000000000E+00  0.00000000000E+00  0.90175909534E+03  0.90175909534E+03  0.00000000000E+00 0. -1.
         -2   -1    0    0    0  501 -0.00000000000E+00 -0.00000000000E+00 -0.12477145913E+04  0.12477145913E+04  0.00000000000E+00 0.  1.
         23    2    1    2    0    0  0.10424514261E+04  0.11288541145E+03 -0.32222751649E+03  0.11006595425E+04  0.90403341294E+02 0.  0.
         11    1    3    3    0    0  0.57853462834E+03  0.10326609492E+03 -0.20052935042E+03  0.62094945280E+03  0.00000000000E+00 0. -1.
        -11    1    3    3    0    0  0.46391679780E+03  0.96193165300E+01 -0.12169816607E+03  0.47971008970E+03  0.00000000000E+00 0.  1.
         22    1    1    2    0    0 -0.10424514261E+04 -0.11288541145E+03 -0.23727979477E+02  0.10488141442E+04  0.00000000000E+00 0. -1.
<mgrwt>
<rscale>  0 0.21214504E+04</rscale>
<asrwt>0</asrwt>
<pdfrwt beam="1">  1        2 0.13873217E+00 0.21214504E+04</pdfrwt>
<pdfrwt beam="2">  1       -2 0.19195609E+00 0.21214504E+04</pdfrwt>
<totfact> 0.40441285E+00</totfact>
</mgrwt>
</event>
<event>
 6    1  0.1603085E-006  0.1919087E+04  0.7818608E-02  0.8645413E-01
         -2   -1    0    0    0  501 -0.00000000000E+00  0.00000000000E+00  0.10271806976E+04  0.10271806976E+04  0.00000000000E+00 0. -1.
          2   -1    0    0  501    0  0.00000000000E+00 -0.00000000000E+00 -0.89636031086E+03  0.89636031086E+03  0.00000000000E+00 0.  1.
         23    2    1    2    0    0  0.31985227158E+03 -0.21244089156E+03  0.94485921063E+03  0.10234877796E+04  0.85625341568E+02 0.  0.
         13    1    3    3    0    0  0.69968989059E+02 -0.93006345237E+02  0.28782400812E+03  0.31046497280E+03  0.00000000000E+00 0.  1.
        -13    1    3    3    0    0  0.24988328253E+03 -0.11943454632E+03  0.65703520251E+03  0.71302280684E+03  0.00000000000E+00 0. -1.
         22    1    1    2    0    0 -0.31985227158E+03  0.21244089156E+03 -0.81403882385E+03  0.90005322886E+03  0.00000000000E+00 0.  1.
<mgrwt>
<rscale>  0 0.19190873E+04</rscale>
<asrwt>0</asrwt>
<pdfrwt beam="1">  1        2 0.13790159E+00 0.19190873E+04</pdfrwt>
<pdfrwt beam="2">  1       -2 0.15802780E+00 0.19190873E+04</pdfrwt>
<totfact> 0.71823948E+00</totfact>
</mgrwt>
</event>
<event>
 6    1  0.1603085E-006  0.8133913E+04  0.7818608E-02  0.7470604E-01
          2   -1    0    0  501    0  0.00000000000E+00  0.00000000000E+00  0.35481804577E+04  0.35481804577E+04  0.00000000000E+00 0. -1.
         -2   -1    0    0    0  501 -0.00000000000E+00 -0.00000000000E+00 -0.46615826728E+04  0.46615826728E+04  0.00000000000E+00 0.  1.
         23    2    1    2    0    0  0.11049254861E+04  0.21334614523E+04  0.27543570870E+04  0.36565137286E+04  0.10531660055E+03 0.  0.
         13    1    3    3    0    0  0.53352469886E+03  0.99743581426E+03  0.13733882788E+04  0.17792476422E+04  0.00000000000E+00 0. -1.
        -13    1    3    3    0    0  0.57140078722E+03  0.11360256380E+04  0.13809688082E+04  0.18772660864E+04  0.00000000000E+00 0.  1.
         22    1    1    2    0    0 -0.11049254861E+04 -0.21334614523E+04 -0.38677593020E+04  0.45532494020E+04  0.00000000000E+00 0.  1.
<mgrwt>
<rscale>  0 0.81339133E+04</rscale>
<asrwt>0</asrwt>
<pdfrwt beam="1">  1        2 0.54587392E+00 0.81339133E+04</pdfrwt>
<pdfrwt beam="2">  1       -2 0.71716656E+00 0.81339133E+04</pdfrwt>
<totfact> 0.87062267E-05</totfact>
</mgrwt>
</event>
<event>
 6    1  0.1603085E-006  0.7381614E+03  0.7818608E-02  0.9654108E-01
         -2   -1    0    0    0  501 -0.00000000000E+00  0.00000000000E+00  0.12078539544E+03  0.12078539544E+03  0.00000000000E+00 0. -1.
          2   -1    0    0  501    0  0.00000000000E+00 -0.00000000000E+00 -0.11277899852E+04  0.11277899852E+04  0.00000000000E+00 0.  1.
         23    2    1    2    0    0  0.74387642851E+02  0.31903070908E+03 -0.77740158465E+03  0.84853581421E+03  0.91354745033E+02 0.  0.
         13    1    3    3    0    0  0.45451608826E+02  0.18503966580E+03 -0.55997312996E+03  0.59150269056E+03  0.00000000000E+00 0. -1.
        -13    1    3    3    0    0  0.28936034025E+02  0.13399104329E+03 -0.21742845469E+03  0.25703312365E+03  0.00000000000E+00 0.  1.
         22    1    1    2    0    0 -0.74387642851E+02 -0.31903070908E+03 -0.22960300509E+03  0.40003956641E+03  0.00000000000E+00 0. -1.
<mgrwt>
<rscale>  0 0.73816139E+03</rscale>
<asrwt>0</asrwt>
<pdfrwt beam="1">  1        2 0.17350615E+00 0.73816139E+03</pdfrwt>
<pdfrwt beam="2">  1       -2 0.18582368E-01 0.73816139E+03</pdfrwt>
<totfact> 0.51199337E+02</totfact>
</mgrwt>
</event>
<event>
 6    1  0.1603085E-006  0.2864067E+04  0.7818608E-02  0.8283650E-01
          2   -1    0    0  501    0  0.00000000000E+00  0.00000000000E+00  0.19652104112E+04  0.19652104112E+04  0.00000000000E+00 0. -1.
         -2   -1    0    0    0  501 -0.00000000000E+00 -0.00000000000E+00 -0.10435113224E+04  0.10435113224E+04  0.00000000000E+00 0.  1.
         23    2    1    2    0    0 -0.13736792240E+04 -0.39990485619E+03  0.48334189957E+03  0.15123676546E+04  0.81963566825E+02 0.  0.
         13    1    3    3    0    0 -0.30733244875E+03 -0.72062119236E+02  0.13817857435E+03  0.34458598563E+03  0.00000000000E+00 0. -1.
        -13    1    3    3    0    0 -0.10663467752E+04 -0.32784273696E+03  0.34516332523E+03  0.11677816689E+04  0.00000000000E+00 0.  1.
         22    1    1    2    0    0  0.13736792240E+04  0.39990485619E+03  0.43835718929E+03  0.14963540790E+04  0.00000000000E+00 0.  1.
<mgrwt>
<rscale>  0 0.28640666E+04</rscale>
<asrwt>0</asrwt>
<pdfrwt beam="1">  1        2 0.30234006E+00 0.28640666E+04</pdfrwt>
<pdfrwt beam="2">  1       -2 0.16054020E+00 0.28640666E+04</pdfrwt>
<totfact> 0.15093548E+00</totfact>
</mgrwt>
</event>
<event>
 6    1  0.1603085E-006  0.8891495E+03  0.7818608E-02  0.9439248E-01
          1   -1    0    0  501    0  0.00000000000E+00  0.00000000000E+00  0.14680031993E+04  0.14680031993E+04  0.00000000000E+00 0. -1.
         -1   -1    0    0    0  501 -0.00000000000E+00 -0.00000000000E+00 -0.13463644133E+03  0.13463644133E+03  0.00000000000E+00 0.  1.
         23    2    1    2    0    0  0.31005115864E+02 -0.13201275562E+03  0.14279617045E+04  0.14373009314E+04  0.91491272545E+02 0.  0.
         13    1    3    3    0    0 -0.73447764629E+01 -0.77021600094E+02  0.41688953061E+03  0.42400843548E+03  0.00000000000E+00 0.  1.
        -13    1    3    3    0    0  0.38349892326E+02 -0.54991155527E+02  0.10110721739E+04  0.10132924959E+04  0.00000000000E+00 0. -1.
         22    1    1    2    0    0 -0.31005115864E+02  0.13201275562E+03 -0.94594946552E+02  0.16533870923E+03  0.00000000000E+00 0.  1.
<mgrwt>
<rscale>  0 0.88914954E+03</rscale>
<asrwt>0</asrwt>
<pdfrwt beam="1">  1        1 0.22584663E+00 0.88914954E+03</pdfrwt>
<pdfrwt beam="2">  1       -1 0.20713300E-01 0.88914954E+03</pdfrwt>
<totfact> 0.13399555E+02</totfact>
</mgrwt>
</event>
<event>
 6    1  0.1603085E-006  0.1639986E+04  0.7818608E-02  0.8796353E-01
          2   -1    0    0  501    0  0.00000000000E+00  0.00000000000E+00  0.72385717847E+03  0.72385717847E+03  0.00000000000E+00 0. -1.
         -2   -1    0    0    0  501 -0.00000000000E+00 -0.00000000000E+00 -0.92889678395E+03  0.92889678395E+03  0.00000000000E+00 0.  1.
         23    2    1    2    0    0  0.65029197581E+03 -0.40834033096E+03 -0.38535421273E+03  0.86399871693E+03  0.91511933098E+02 0.  0.
         13    1    3    3    0    0  0.60088746139E+03 -0.38907048493E+03 -0.38064558117E+03  0.81076053305E+03  0.00000000000E+00 0.  1.
        -13    1    3    3    0    0  0.49404514424E+02 -0.19269846032E+02 -0.47086315623E+01  0.53238183879E+02  0.00000000000E+00 0. -1.
         22    1    1    2    0    0 -0.65029197581E+03  0.40834033096E+03  0.18031460725E+03  0.78875524548E+03  0.00000000000E+00 0. -1.
<mgrwt>
<rscale>  0 0.16399861E+04</rscale>
<asrwt>0</asrwt>
<pdfrwt beam="1">  1        2 0.11136264E+00 0.16399861E+04</pdfrwt>
<pdfrwt beam="2">  1       -2 0.14290720E+00 0.16399861E+04</pdfrwt>
<totfact> 0.12770062E+01</totfact>
</mgrwt>
</event>
<event>
 6    1  0.1603085E-006  0.1623470E+04  0.7818608E-02  0.8806258E-01
          1   -1    0    0  501    0  0.00000000000E+00  0.00000000000E+00  0.18514613239E+04  0.18514613239E+04  0.00000000000E+00 0. -1.
         -1   -1    0    0    0  501 -0.00000000000E+00 -0.00000000000E+00 -0.35588837133E+03  0.35588837133E+03  0.00000000000E+00 0.  1.
         23    2    1    2    0    0 -0.78487588963E+03 -0.19236821801E+03  0.70630139926E+03  0.10777545119E+04  0.98272212946E+02 0.  0.
         11    1    3    3    0    0 -0.46123992356E+03 -0.10971746398E+03  0.34954106460E+03  0.58903238012E+03  0.00000000000E+00 0. -1.
        -11    1    3    3    0    0 -0.32363596607E+03 -0.82650754038E+02  0.35676033466E+03  0.48872213176E+03  0.00000000000E+00 0.  1.
         22    1    1    2    0    0  0.78487588963E+03  0.19236821801E+03  0.78927155336E+03  0.11295951834E+04  0.00000000000E+00 0. -1.
<mgrwt>
<rscale>  0 0.16234698E+04</rscale>
<asrwt>0</asrwt>
<pdfrwt beam="1">  1        1 0.28484020E+00 0.16234698E+04</pdfrwt>
<pdfrwt beam="2">  1       -1 0.54752058E-01 0.16234698E+04</pdfrwt>
<totfact> 0.12134918E+01</totfact>
</mgrwt>
</event>
<event>
 6    1  0.1603085E-006  0.2356171E+04  0.7818608E-02  0.8456097E-01
          1   -1    0    0  501    0  0.00000000000E+00  0.00000000000E+00  0.12688327142E+04  0.12688327142E+04  0.00000000000E+00 0. -1.
         -1   -1    0    0    0  501 -0.00000000000E+00 -0.00000000000E+00 -0.10938289573E+04  0.10938289573E+04  0.00000000000E+00 0.  1.
         23    2    1    2    0    0 -0.56176928136E+02 -0.43737906306E+03  0.11811759497E+04  0.12640995322E+04  0.91185038201E+02 0.  0.
         13    1    3    3    0    0 -0.74744330680E+01 -0.13929649251E+03  0.49732324098E+03  0.51651697551E+03  0.00000000000E+00 0.  1.
        -13    1    3    3    0    0 -0.48702495068E+02 -0.29808257055E+03  0.68385270874E+03  0.74758255674E+03  0.00000000000E+00 0. -1.
         22    1    1    2    0    0  0.56176928136E+02  0.43737906306E+03 -0.10061721929E+04  0.10985621393E+04  0.00000000000E+00 0.  1.
<mgrwt>
<rscale>  0 0.23561714E+04</rscale>
<asrwt>0</asrwt>
<pdfrwt beam="1">  1        1 0.19520503E+00 0.23561714E+04</pdfrwt>
<pdfrwt beam="2">  1       -1 0.16828138E+00 0.23561714E+04</pdfrwt>
<totfact> 0.21706179E+00</totfact>
</mgrwt>
</event>
<event>
 6    1  0.1603085E-006  0.2903547E+04  0.7818608E-02  0.8271823E-01
          2   -1    0    0  501    0  0.00000000000E+00  0.00000000000E+00  0.16762332745E+04  0.16762332745E+04  0.00000000000E+00 0. -1.
         -2   -1    0    0    0  501 -0.00000000000E+00 -0.00000000000E+00 -0.12573704476E+04  0.12573704476E+04  0.00000000000E+00 0.  1.
         23    2    1    2    0    0  0.69096846688E+03  0.11121492351E+04  0.83990855289E+03  0.15582518229E+04  0.91591610593E+02 0.  0.
         11    1    3    3    0    0  0.48092755260E+02  0.52778308145E+02  0.27540845353E+02  0.76530785191E+02  0.00000000000E+00 0. -1.
        -11    1    3    3    0    0  0.64287571162E+03  0.10593709269E+04  0.81236770754E+03  0.14817210377E+04  0.00000000000E+00 0.  1.
         22    1    1    2    0    0 -0.69096846688E+03 -0.11121492351E+04 -0.42104572591E+03  0.13753518992E+04  0.00000000000E+00 0.  1.
<mgrwt>
<rscale>  0 0.29035469E+04</rscale>
<asrwt>0</asrwt>
<pdfrwt beam="1">  1        2 0.25788204E+00 0.29035469E+04</pdfrwt>
<pdfrwt beam="2">  1       -2 0.19344161E+00 0.29035469E+04</pdfrwt>
<totfact> 0.12824306E+00</totfact>
</mgrwt>
</event>
<event>
 6    1  0.1603085E-006  0.3664990E+04  0.7818608E-02  0.8075765E-01
         -2   -1    0    0    0  501 -0.00000000000E+00  0.00000000000E+00  0.20680512422E+04  0.20680512422E+04  0.00000000000E+00 0.  1.
          2   -1    0    0  501    0  0.00000000000E+00 -0.00000000000E+00 -0.16237694277E+04  0.16237694277E+04  0.00000000000E+00 0. -1.
         23    2    1    2    0    0 -0.29446412861E+03  0.10165808712E+04  0.17274107317E+04  0.20285210551E+04  0.10394250597E+03 0.  0.
         11    1    3    3    0    0 -0.12176866473E+03  0.25742399701E+03  0.44824936468E+03  0.53105763801E+03  0.00000000000E+00 0.  1.
        -11    1    3    3    0    0 -0.17269546388E+03  0.75915687417E+03  0.12791613670E+04  0.14974634171E+04  0.00000000000E+00 0. -1.
         22    1    1    2    0    0  0.29446412861E+03 -0.10165808712E+04 -0.12831289171E+04  0.16632996148E+04  0.00000000000E+00 0. -1.
<mgrwt>
<rscale>  0 0.36649902E+04</rscale>
<asrwt>0</asrwt>
<pdfrwt beam="1">  1        2 0.24981068E+00 0.36649902E+04</pdfrwt>
<pdfrwt beam="2">  1       -2 0.31816173E+00 0.36649902E+04</pdfrwt>
<totfact> 0.21547755E-01</totfact>
</mgrwt>
</event>
<event>
 6    1  0.1603085E-006  0.1245072E+04  0.7818608E-02  0.9074295E-01
          3   -1    0    0  501    0  0.00000000000E+00  0.00000000000E+00  0.21036753919E+03  0.21036753919E+03  0.00000000000E+00 0. -1.
         -3   -1    0    0    0  501 -0.00000000000E+00 -0.00000000000E+00 -0.18422572749E+04  0.18422572749E+04  0.00000000000E+00 0.  1.
         23    2    1    2    0    0 -0.31523631038E+03  0.40205168260E+02  0.55889187890E+02  0.33518832854E+03  0.90759172137E+02 0.  0.
         13    1    3    3    0    0 -0.13667558489E+03  0.38726630664E+02  0.65358892645E+02  0.15637056077E+03  0.00000000000E+00 0. -1.
        -13    1    3    3    0    0 -0.17856072549E+03  0.14785375958E+01 -0.94697047546E+01  0.17881776777E+03  0.00000000000E+00 0.  1.
         22    1    1    2    0    0  0.31523631038E+03 -0.40205168260E+02 -0.16877789236E+04  0.17174364856E+04  0.00000000000E+00 0.  1.
<mgrwt>
<rscale>  0 0.12450721E+04</rscale>
<asrwt>0</asrwt>
<pdfrwt beam="1">  1        3 0.32364236E-01 0.12450721E+04</pdfrwt>
<pdfrwt beam="2">  1       -3 0.28342420E+00 0.12450721E+04</pdfrwt>
<totfact> 0.11480101E+00</totfact>
</mgrwt>
</event>
<event>
 6    1  0.1603085E-006  0.1272141E+04  0.7818608E-02  0.9051954E-01
         -2   -1    0    0    0  501 -0.00000000000E+00  0.00000000000E+00  0.16462276164E+03  0.16462276164E+03  0.00000000000E+00 0. -1.
          2   -1    0    0  501    0  0.00000000000E+00 -0.00000000000E+00 -0.24576518004E+04  0.24576518004E+04  0.00000000000E+00 0.  1.
         23    2    1    2    0    0 -0.51879830460E+03 -0.18249522459E+03 -0.17976138298E+04  0.18820770093E+04  0.91335643939E+02 0.  0.
         13    1    3    3    0    0 -0.35280432981E+03 -0.91976831913E+02 -0.10753895313E+04  0.11355145428E+04  0.00000000000E+00 0. -1.
        -13    1    3    3    0    0 -0.16599397479E+03 -0.90518392677E+02 -0.72222429849E+03  0.74656246652E+03  0.00000000000E+00 0.  1.
         22    1    1    2    0    0  0.51879830460E+03  0.18249522459E+03 -0.49541520896E+03  0.74019755277E+03  0.00000000000E+00 0. -1.
<mgrwt>
<rscale>  0 0.12721406E+04</rscale>
<asrwt>0</asrwt>
<pdfrwt beam="1">  1        2 0.37810025E+00 0.12721406E+04</pdfrwt>
<pdfrwt beam="2">  1       -2 0.25326580E-01 0.12721406E+04</pdfrwt>
<totfact> 0.50918527E+01</totfact>
</mgrwt>
</event>
<event>
 6    1  0.1603085E-006  0.1023573E+04  0.7818608E-02  0.9283061E-01
          2   -1    0    0  501    0  0.00000000000E+00  0.00000000000E+00  0.21007650981E+04  0.21007650981E+04  0.00000000000E+00 0. -1.
         -2   -1    0    0    0  501 -0.00000000000E+00 -0.00000000000E+00 -0.12468100689E+03  0.12468100689E+03  0.00000000000E+00 0.  1.
         23    2    1    2    0    0 -0.35119506246E+03  0.32742008911E+03  0.13538858546E+04  0.14395246507E+04  0.93179537038E+02 0.  0.
         11    1    3    3    0    0 -0.24031534125E+03  0.24792958102E+03  0.84890509932E+03  0.91643898216E+03  0.00000000000E+00 0. -1.
        -11    1    3    3    0    0 -0.11087972121E+03  0.79490508091E+02  0.50498075527E+03  0.52308566855E+03  0.00000000000E+00 0.  1.
         22    1    1    2    0    0  0.35119506246E+03 -0.32742008911E+03  0.62219823663E+03  0.78592145429E+03  0.00000000000E+00 0.  1.
<mgrwt>
<rscale>  0 0.10235732E+04</rscale>
<asrwt>0</asrwt>
<pdfrwt beam="1">  1        2 0.32319460E+00 0.10235732E+04</pdfrwt>
<pdfrwt beam="2">  1       -2 0.19181695E-01 0.10235732E+04</pdfrwt>
<totfact> 0.13524475E+02</totfact>
</mgrwt>
</event>
<event>
 6    1  0.1603085E-006  0.3230049E+04  0.7818608E-02  0.8180926E-01
         -2   -1    0    0    0  501 -0.00000000000E+00  0.00000000000E+00  0.96511699924E+03  0.96511699924E+03  0.00000000000E+00 0.  1.
          2   -1    0    0  501    0  0.00000000000E+00 -0.00000000000E+00 -0.27025783526E+04  0.27025783526E+04  0.00000000000E+00 0. -1.
         23    2    1    2    0    0 -0.89453141017E+03  0.73329276636E+03 -0.21472011124E+04  0.24405884311E+04  0.89969705084E+02 0.  0.
         11    1    3    3    0    0 -0.65278525386E+03  0.50038418039E+03 -0.15879788316E+04  0.17883483121E+04  0.00000000000E+00 0. -1.
        -11    1    3    3    0    0 -0.24174615631E+03  0.23290858596E+03 -0.55922228078E+03  0.65224011899E+03  0.00000000000E+00 0.  1.
         22    1    1    2    0    0  0.89453141017E+03 -0.73329276636E+03  0.40973975900E+03  0.12271069208E+04  0.00000000000E+00 0.  1.
<mgrwt>
<rscale>  0 0.32300491E+04</rscale>
<asrwt>0</asrwt>
<pdfrwt beam="1">  1        2 0.41578129E+00 0.32300491E+04</pdfrwt>
<pdfrwt beam="2">  1       -2 0.14847954E+00 0.32300491E+04</pdfrwt>
<totfact> 0.68392113E-01</totfact>
</mgrwt>
</event>
<event>
 6    1  0.1603085E-006  0.2605156E+04  0.7818608E-02  0.8366452E-01
          1   -1    0    0  501    0  0.00000000000E+00  0.00000000000E+00  0.15119107977E+04  0.15119107977E+04  0.00000000000E+00 0. -1.
         -1   -1    0    0    0  501 -0.00000000000E+00 -0.00000000000E+00 -0.11222281531E+04  0.11222281531E+04  0.00000000000E+00 0.  1.
         23    2    1    2    0    0  0.52227748926E+03 -0.40875526943E+03 -0.93663833446E+03  0.11512424658E+04  0.90626703132E+02 0.  0.
         13    1    3    3    0    0  0.10328569435E+03 -0.50181729598E+02 -0.20595533137E+03  0.23580445111E+03  0.00000000000E+00 0. -1.
        -13    1    3    3    0    0  0.41899179491E+03 -0.35857353983E+03 -0.73068300309E+03  0.91543801465E+03  0.00000000000E+00 0.  1.
         22    1    1    2    0    0 -0.52227748926E+03  0.40875526943E+03  0.13263209790E+04  0.14828964851E+04  0.00000000000E+00 0. -1.
<mgrwt>
<rscale>  0 0.26051556E+04</rscale>
<asrwt>0</asrwt>
<pdfrwt beam="1">  1        1 0.23260166E+00 0.26051556E+04</pdfrwt>
<pdfrwt beam="2">  1       -1 0.17265049E+00 0.26051556E+04</pdfrwt>
<totfact> 0.13295909E+00</totfact>
</mgrwt>
</event>
<event>
 6    1  0.1603085E-006  0.9126181E+03  0.7818608E-02  0.9409944E-01
          1   -1    0    0  501    0  0.00000000000E+00  0.00000000000E+00  0.97998213526E+03  0.97998213526E+03  0.00000000000E+00 0.  1.
         -1   -1    0    0    0  501 -0.00000000000E+00 -0.00000000000E+00 -0.21247118627E+03  0.21247118627E+03  0.00000000000E+00 0. -1.
         23    2    1    2    0    0 -0.44903232213E+03 -0.37757914428E+02  0.35386273854E+03  0.58076669553E+03  0.94949620844E+02 0.  0.
         11    1    3    3    0    0 -0.20209942815E+03  0.30069150563E+02  0.15077727409E+03  0.25393329647E+03  0.00000000000E+00 0.  1.
        -11    1    3    3    0    0 -0.24693289398E+03 -0.67827064991E+02  0.20308546445E+03  0.32683339907E+03  0.00000000000E+00 0. -1.
         22    1    1    2    0    0  0.44903232213E+03  0.37757914428E+02  0.41364821045E+03  0.61168662600E+03  0.00000000000E+00 0. -1.
<mgrwt>
<rscale>  0 0.91261814E+03</rscale>
<asrwt>0</asrwt>
<pdfrwt beam="1">  1        1 0.15076648E+00 0.91261814E+03</pdfrwt>
<pdfrwt beam="2">  1       -1 0.32687875E-01 0.91261814E+03</pdfrwt>
<totfact> 0.13834533E+02</totfact>
</mgrwt>
</event>
<event>
 6    1  0.1603085E-006  0.2459271E+04  0.7818608E-02  0.8417641E-01
         -2   -1    0    0    0  501 -0.00000000000E+00  0.00000000000E+00  0.52802323850E+03  0.52802323850E+03  0.00000000000E+00 0.  1.
          2   -1    0    0  501    0  0.00000000000E+00 -0.00000000000E+00 -0.28635167390E+04  0.28635167390E+04  0.00000000000E+00 0. -1.
         23    2    1    2    0    0  0.75887109968E+03 -0.82286871470E+03 -0.47309469111E+03  0.12186323419E+04  0.90818117307E+02 0.  0.
         11    1    3    3    0    0  0.70718118655E+03 -0.74186492108E+03 -0.45245350310E+03  0.11203494831E+04  0.00000000000E+00 0.  1.
        -11    1    3    3    0    0  0.51689913137E+02 -0.81003793614E+02 -0.20641188006E+02  0.98282858843E+02  0.00000000000E+00 0. -1.
         22    1    1    2    0    0 -0.75887109968E+03  0.82286871470E+03 -0.18623988093E+04  0.21729076355E+04  0.00000000000E+00 0. -1.
<mgrwt>
<rscale>  0 0.24592709E+04</rscale>
<asrwt>0</asrwt>
<pdfrwt beam="1">  1        2 0.44054104E+00 0.24592709E+04</pdfrwt>
<pdfrwt beam="2">  1       -2 0.81234344E-01 0.24592709E+04</pdfrwt>
<totfact> 0.25281481E+00</totfact>
</mgrwt>
</event>
<event>
 6    1  0.1603085E-006  0.1798941E+04  0.7818608E-02  0.8706863E-01
          2   -1    0    0  501    0  0.00000000000E+00  0.00000000000E+00  0.18653206370E+04  0.18653206370E+04  0.00000000000E+00 0. -1.
         -2   -1    0    0    0  501 -0.00000000000E+00 -0.00000000000E+00 -0.43373099641E+03  0.43373099641E+03  0.00000000000E+00 0.  1.
         23    2    1    2    0    0  0.17448027725E+02 -0.64737170145E+03 -0.75645959977E+02  0.65857800999E+03  0.92780011197E+02 0.  0.
         13    1    3    3    0    0  0.66721579774E+01 -0.43407585416E+03 -0.94119610388E+02  0.44421263592E+03  0.00000000000E+00 0. -1.
        -13    1    3    3    0    0  0.10775869748E+02 -0.21329584729E+03  0.18473650411E+02  0.21436537407E+03  0.00000000000E+00 0.  1.
         22    1    1    2    0    0 -0.17448027725E+02  0.64737170145E+03  0.15072356006E+04  0.16404736234E+04  0.00000000000E+00 0.  1.
<mgrwt>
<rscale>  0 0.17989412E+04</rscale>
<asrwt>0</asrwt>
<pdfrwt beam="1">  1        2 0.28697240E+00 0.17989412E+04</pdfrwt>
<pdfrwt beam="2">  1       -2 0.66727847E-01 0.17989412E+04</pdfrwt>
<totfact> 0.15459035E+01</totfact>
</mgrwt>
</event>
<event>
 6    1  0.1603085E-006  0.1317250E+04  0.7818608E-02  0.9015997E-01
         -4   -1    0    0    0  501 -0.00000000000E+00  0.00000000000E+00  0.53352663559E+03  0.53352663559E+03  0.00000000000E+00 0.  1.
          4   -1    0    0  501    0  0.00000000000E+00 -0.00000000000E+00 -0.81305513820E+03  0.81305513820E+03  0.00000000000E+00 0. -1.
         23    2    1    2    0    0  0.47244387953E+03  0.44640554613E+03 -0.22697313667E+03  0.69447503604E+03  0.91091382645E+02 0.  0.
         11    1    3    3    0    0  0.52927884229E+02  0.85000202570E+02 -0.57168025889E+02  0.11530211858E+03  0.00000000000E+00 0.  1.
        -11    1    3    3    0    0  0.41951599530E+03  0.36140534356E+03 -0.16980511078E+03  0.57917291746E+03  0.00000000000E+00 0. -1.
         22    1    1    2    0    0 -0.47244387953E+03 -0.44640554613E+03 -0.52555365935E+02  0.65210673774E+03  0.00000000000E+00 0. -1.
<mgrwt>
<rscale>  0 0.13172495E+04</rscale>
<asrwt>0</asrwt>
<pdfrwt beam="1">  1        4 0.12508541E+00 0.13172495E+04</pdfrwt>
<pdfrwt beam="2">  1       -4 0.82081021E-01 0.13172495E+04</pdfrwt>
<totfact> 0.12202732E+00</totfact>
</mgrwt>
</event>
<event>
 6    1  0.1603085E-006  0.2394221E+04  0.7818608E-02  0.8441670E-01
          2   -1    0    0  501    0  0.00000000000E+00  0.00000000000E+00  0.35952390426E+04  0.35952390426E+04  0.00000000000E+00 0. -1.
         -2   -1    0    0    0  501 -0.00000000000E+00 -0.00000000000E+00 -0.39860296754E+03  0.39860296754E+03  0.00000000000E+00 0.  1.
         23    2    1    2    0    0  0.38687485641E+03 -0.64378665179E+03  0.31519056995E+04  0.32414231016E+04  0.90447650067E+02 0.  0.
         13    1    3    3    0    0  0.21644600055E+03 -0.35773780266E+03  0.19445260540E+04  0.19889712872E+04  0.00000000000E+00 0.  1.
        -13    1    3    3    0    0  0.17042885586E+03 -0.28604884913E+03  0.12073796455E+04  0.12524518144E+04  0.00000000000E+00 0. -1.
         22    1    1    2    0    0 -0.38687485641E+03  0.64378665179E+03  0.44730375618E+02  0.75241890862E+03  0.00000000000E+00 0.  1.
<mgrwt>
<rscale>  0 0.23942205E+04</rscale>
<asrwt>0</asrwt>
<pdfrwt beam="1">  1        2 0.55311368E+00 0.23942205E+04</pdfrwt>
<pdfrwt beam="2">  1       -2 0.61323536E-01 0.23942205E+04</pdfrwt>
<totfact> 0.15517807E+00</totfact>
</mgrwt>
</event>
<event>
 6    1  0.1603085E-006  0.2828321E+04  0.7818608E-02  0.8294529E-01
         -2   -1    0    0    0  501 -0.00000000000E+00  0.00000000000E+00  0.14436059640E+04  0.14436059640E+04  0.00000000000E+00 0.  1.
          2   -1    0    0  501    0  0.00000000000E+00 -0.00000000000E+00 -0.13853152952E+04  0.13853152952E+04  0.00000000000E+00 0. -1.
         23    2    1    2    0    0 -0.52034354265E+03  0.73067275258E+02  0.13408452494E+04  0.14429044911E+04  0.89505075389E+02 0.  0.
         13    1    3    3    0    0 -0.34398805581E+03  0.24684215367E+02  0.96860617191E+03  0.10281707102E+04  0.00000000000E+00 0. -1.
        -13    1    3    3    0    0 -0.17635548684E+03  0.48383059891E+02  0.37223907751E+03  0.41473378093E+03  0.00000000000E+00 0.  1.
         22    1    1    2    0    0  0.52034354265E+03 -0.73067275258E+02 -0.12825545807E+04  0.13860167681E+04  0.00000000000E+00 0. -1.
<mgrwt>
<rscale>  0 0.28283206E+04</rscale>
<asrwt>0</asrwt>
<pdfrwt beam="1">  1        2 0.21312543E+00 0.28283206E+04</pdfrwt>
<pdfrwt beam="2">  1       -2 0.22209322E+00 0.28283206E+04</pdfrwt>
<totfact> 0.12279692E+00</totfact>
</mgrwt>
</event>
<event>
 6    1  0.1603085E-006  0.1644508E+04  0.7818608E-02  0.8793662E-01
          1   -1    0    0  501    0  0.00000000000E+00  0.00000000000E+00  0.13931649059E+04  0.13931649059E+04  0.00000000000E+00 0.  1.
         -1   -1    0    0    0  501 -0.00000000000E+00 -0.00000000000E+00 -0.48529920652E+03  0.48529920652E+03  0.00000000000E+00 0. -1.
         23    2    1    2    0    0  0.54170376388E+03 -0.60693161512E+03  0.33872272013E+03  0.88562339808E+03  0.88242670230E+02 0.  0.
         13    1    3    3    0    0  0.23462218356E+03 -0.22417149137E+03  0.97567150875E+02  0.33885066843E+03  0.00000000000E+00 0. -1.
        -13    1    3    3    0    0  0.30708158031E+03 -0.38276012376E+03  0.24115556926E+03  0.54677272965E+03  0.00000000000E+00 0.  1.
         22    1    1    2    0    0 -0.54170376388E+03  0.60693161512E+03  0.56914297924E+03  0.99284071434E+03  0.00000000000E+00 0.  1.
<mgrwt>
<rscale>  0 0.16445082E+04</rscale>
<asrwt>0</asrwt>
<pdfrwt beam="1">  1        1 0.21433306E+00 0.16445082E+04</pdfrwt>
<pdfrwt beam="2">  1       -1 0.74661417E-01 0.16445082E+04</pdfrwt>
<totfact> 0.13404545E+01</totfact>
</mgrwt>
</event>
<event>
 6    1  0.1603085E-006  0.2187273E+04  0.7818608E-02  0.8523744E-01
         -2   -1    0    0    0  501 -0.00000000000E+00  0.00000000000E+00  0.99761549343E+03  0.99761549343E+03  0.00000000000E+00 0.  1.
          2   -1    0    0  501    0  0.00000000000E+00 -0.00000000000E+00 -0.11988998456E+04  0.11988998456E+04  0.00000000000E+00 0. -1.
         23    2    1    2    0    0  0.84463475031E+03 -0.47358314659E+03  0.40545982310E+03  0.10537873082E+04  0.91548701116E+02 0.  0.
         11    1    3    3    0    0  0.17027666451E+03 -0.60259178389E+02  0.56242458319E+02  0.18917855368E+03  0.00000000000E+00 0.  1.
        -11    1    3    3    0    0  0.67435808580E+03 -0.41332396820E+03  0.34921736478E+03  0.86460875455E+03  0.00000000000E+00 0. -1.
         22    1    1    2    0    0 -0.84463475031E+03  0.47358314659E+03 -0.60674417529E+03  0.11427280308E+04  0.00000000000E+00 0. -1.
<mgrwt>
<rscale>  0 0.21872732E+04</rscale>
<asrwt>0</asrwt>
<pdfrwt beam="1">  1        2 0.18444613E+00 0.21872732E+04</pdfrwt>
<pdfrwt beam="2">  1       -2 0.15347931E+00 0.21872732E+04</pdfrwt>
<totfact> 0.48927544E+00</totfact>
</mgrwt>
</event>
<event>
 6    1  0.1603085E-006  0.1672242E+04  0.7818608E-02  0.8777356E-01
          1   -1    0    0  501    0  0.00000000000E+00  0.00000000000E+00  0.78622522134E+03  0.78622522134E+03  0.00000000000E+00 0. -1.
         -1   -1    0    0    0  501 -0.00000000000E+00 -0.00000000000E+00 -0.88918371119E+03  0.88918371119E+03  0.00000000000E+00 0.  1.
         23    2    1    2    0    0 -0.59957815118E+03 -0.56355970911E+03  0.82161372238E+02  0.83198562929E+03  0.91411657597E+02 0.  0.
         11    1    3    3    0    0 -0.30111687119E+03 -0.34238092038E+03  0.31177456724E+02  0.45702089511E+03  0.00000000000E+00 0. -1.
        -11    1    3    3    0    0 -0.29846127999E+03 -0.22117878873E+03  0.50983915514E+02  0.37496473418E+03  0.00000000000E+00 0.  1.
         22    1    1    2    0    0  0.59957815118E+03  0.56355970911E+03 -0.18511986209E+03  0.84342330324E+03  0.00000000000E+00 0. -1.
<mgrwt>
<rscale>  0 0.16722424E+04</rscale>
<asrwt>0</asrwt>
<pdfrwt beam="1">  1        1 0.12095773E+00 0.16722424E+04</pdfrwt>
<pdfrwt beam="2">  1       -1 0.13679749E+00 0.16722424E+04</pdfrwt>
<totfact> 0.96555315E+00</totfact>
</mgrwt>
</event>
<event>
 6    1  0.1603085E-006  0.2880874E+04  0.7818608E-02  0.8278591E-01
         -2   -1    0    0    0  501 -0.00000000000E+00  0.00000000000E+00  0.85589433375E+03  0.85589433375E+03  0.00000000000E+00 0.  1.
          2   -1    0    0  501    0  0.00000000000E+00 -0.00000000000E+00 -0.24241994995E+04  0.24241994995E+04  0.00000000000E+00 0. -1.
         23    2    1    2    0    0 -0.72902583983E+03 -0.38290227651E+03  0.55873037996E+03  0.99922271869E+03  0.90407829043E+02 0.  0.
         13    1    3    3    0    0 -0.45947340847E+03 -0.26156270934E+03  0.30993968566E+03  0.61285681261E+03  0.00000000000E+00 0. -1.
        -13    1    3    3    0    0 -0.26955243136E+03 -0.12133956717E+03  0.24879069429E+03  0.38636590608E+03  0.00000000000E+00 0.  1.
         22    1    1    2    0    0  0.72902583983E+03  0.38290227651E+03 -0.21270355457E+04  0.22808711146E+04  0.00000000000E+00 0. -1.
<mgrwt>
<rscale>  0 0.28808739E+04</rscale>
<asrwt>0</asrwt>
<pdfrwt beam="1">  1        2 0.37295376E+00 0.28808739E+04</pdfrwt>
<pdfrwt beam="2">  1       -2 0.13167606E+00 0.28808739E+04</pdfrwt>
<totfact> 0.13989776E+00</totfact>
</mgrwt>
</event>
<event>
 6    1  0.1603085E-006  0.1647374E+04  0.7818608E-02  0.8791961E-01
          1   -1    0    0  501    0  0.00000000000E+00  0.00000000000E+00  0.10182197504E+04  0.10182197504E+04  0.00000000000E+00 0. -1.
         -1   -1    0    0    0  501 -0.00000000000E+00 -0.00000000000E+00 -0.66632020334E+03  0.66632020334E+03  0.00000000000E+00 0.  1.
         23    2    1    2    0    0 -0.11661148605E+03 -0.66279093402E+03 -0.30471583780E+03  0.74430922433E+03  0.90853831603E+02 0.  0.
         11    1    3    3    0    0 -0.44184936157E+02 -0.77842080886E+02 -0.34885986043E+02  0.96066280047E+02  0.00000000000E+00 0. -1.
        -11    1    3    3    0    0 -0.72426549894E+02 -0.58494885313E+03 -0.26982985175E+03  0.64824294428E+03  0.00000000000E+00 0.  1.
         22    1    1    2    0    0  0.11661148605E+03  0.66279093402E+03  0.65661538484E+03  0.94023072940E+03  0.00000000000E+00 0. -1.
<mgrwt>
<rscale>  0 0.16473741E+04</rscale>
<asrwt>0</asrwt>
<pdfrwt beam="1">  1        1 0.15664919E+00 0.16473741E+04</pdfrwt>
<pdfrwt beam="2">  1       -1 0.10251080E+00 0.16473741E+04</pdfrwt>
<totfact> 0.12602024E+01</totfact>
</mgrwt>
</event>
<event>
 6    1  0.1603085E-006  0.1250723E+04  0.7818608E-02  0.9069582E-01
          3   -1    0    0  501    0  0.00000000000E+00  0.00000000000E+00  0.26541134610E+03  0.26541134610E+03  0.00000000000E+00 0.  1.
         -3   -1    0    0    0  501 -0.00000000000E+00 -0.00000000000E+00 -0.14734747249E+04  0.14734747249E+04  0.00000000000E+00 0. -1.
         23    2    1    2    0    0  0.85681541963E+02  0.44641933681E+03 -0.11976199317E+04  0.12841986877E+04  0.90781153857E+02 0.  0.
         13    1    3    3    0    0  0.32638760530E+02  0.15630319887E+03 -0.30740038296E+03  0.34639713352E+03  0.00000000000E+00 0. -1.
        -13    1    3    3    0    0  0.53042781432E+02  0.29011613794E+03 -0.89021954873E+03  0.93780155422E+03  0.00000000000E+00 0.  1.
         22    1    1    2    0    0 -0.85681541963E+02 -0.44641933681E+03 -0.10443447107E+02  0.45468738327E+03  0.00000000000E+00 0.  1.
<mgrwt>
<rscale>  0 0.12507228E+04</rscale>
<asrwt>0</asrwt>
<pdfrwt beam="1">  1        3 0.40832515E-01 0.12507228E+04</pdfrwt>
<pdfrwt beam="2">  1       -3 0.22668842E+00 0.12507228E+04</pdfrwt>
<totfact> 0.15466750E+00</totfact>
</mgrwt>
</event>
<event>
 6    1  0.1603085E-006  0.3757063E+04  0.7818608E-02  0.8055432E-01
         -2   -1    0    0    0  501 -0.00000000000E+00  0.00000000000E+00  0.65112466024E+03  0.65112466024E+03  0.00000000000E+00 0.  1.
          2   -1    0    0  501    0  0.00000000000E+00 -0.00000000000E+00 -0.54196709207E+04  0.54196709207E+04  0.00000000000E+00 0. -1.
         23    2    1    2    0    0 -0.17551347929E+04  0.30282959726E+03 -0.33453582633E+04  0.37909561170E+04  0.87877555421E+02 0.  0.
         11    1    3    3    0    0 -0.57247110890E+03  0.14063026336E+03 -0.11115604919E+04  0.12581998126E+04  0.00000000000E+00 0. -1.
        -11    1    3    3    0    0 -0.11826636840E+04  0.16219933390E+03 -0.22337977714E+04  0.25327563043E+04  0.00000000000E+00 0.  1.
         22    1    1    2    0    0  0.17551347929E+04 -0.30282959726E+03 -0.14231879972E+04  0.22798394640E+04  0.00000000000E+00 0.  1.
<mgrwt>
<rscale>  0 0.37570634E+04</rscale>
<asrwt>0</asrwt>
<pdfrwt beam="1">  1        2 0.83379554E+00 0.37570634E+04</pdfrwt>
<pdfrwt beam="2">  1       -2 0.10017302E+00 0.37570634E+04</pdfrwt>
<totfact> 0.54287240E-03</totfact>
</mgrwt>
</event>
<event>
 6    1  0.1603085E-006  0.1824121E+04  0.7818608E-02  0.8693577E-01
          2   -1    0    0  501    0  0.00000000000E+00  0.00000000000E+00  0.16770429134E+04  0.16770429134E+04  0.00000000000E+00 0. -1.
         -2   -1    0    0    0  501 -0.00000000000E+00 -0.00000000000E+00 -0.49602431887E+03  0.49602431887E+03  0.00000000000E+00 0.  1.
         23    2    1    2    0    0 -0.56771712954E+03  0.16502999556E+03  0.14160643113E+04  0.15368407572E+04  0.84283690026E+02 0.  0.
         13    1    3    3    0    0 -0.29250291797E+03  0.99653104772E+02  0.63660829830E+03  0.70764314720E+03  0.00000000000E+00 0.  1.
        -13    1    3    3    0    0 -0.27521421156E+03  0.65376890789E+02  0.77945601304E+03  0.82919760996E+03  0.00000000000E+00 0. -1.
         22    1    1    2    0    0  0.56771712954E+03 -0.16502999556E+03 -0.23504571684E+03  0.63622647509E+03  0.00000000000E+00 0.  1.
<mgrwt>
<rscale>  0 0.18241207E+04</rscale>
<asrwt>0</asrwt>
<pdfrwt beam="1">  1        2 0.25800660E+00 0.18241207E+04</pdfrwt>
<pdfrwt beam="2">  1       -2 0.76311435E-01 0.18241207E+04</pdfrwt>
<totfact> 0.14620517E+01</totfact>
</mgrwt>
</event>
<event>
 6    1  0.1603085E-006  0.1946464E+04  0.7818608E-02  0.8632068E-01
         -2   -1    0    0    0  501 -0.00000000000E+00  0.00000000000E+00  0.91326653649E+03  0.91326653649E+03  0.00000000000E+00 0. -1.
          2   -1    0    0  501    0  0.00000000000E+00 -0.00000000000E+00 -0.10371351965E+04  0.10371351965E+04  0.00000000000E+00 0.  1.
         23    2    1    2    0    0  0.85596261325E+03  0.11933174532E+03  0.38147304643E+03  0.94926123288E+03  0.93076003182E+02 0.  0.
         13    1    3    3    0    0  0.30868433979E+03  0.32178249092E+01  0.15839378380E+03  0.34696536826E+03  0.00000000000E+00 0. -1.
        -13    1    3    3    0    0  0.54727827346E+03  0.11611392041E+03  0.22307926264E+03  0.60229586461E+03  0.00000000000E+00 0.  1.
         22    1    1    2    0    0 -0.85596261325E+03 -0.11933174532E+03 -0.50534170645E+03  0.10011405001E+04  0.00000000000E+00 0.  1.
<mgrwt>
<rscale>  0 0.19464644E+04</rscale>
<asrwt>0</asrwt>
<pdfrwt beam="1">  1        2 0.15955926E+00 0.19464644E+04</pdfrwt>
<pdfrwt beam="2">  1       -2 0.14050254E+00 0.19464644E+04</pdfrwt>
<totfact> 0.79185468E+00</totfact>
</mgrwt>
</event>
<event>
 6    1  0.1603085E-006  0.3846014E+04  0.7818608E-02  0.8036352E-01
         -2   -1    0    0    0  501 -0.00000000000E+00  0.00000000000E+00  0.12323962794E+04  0.12323962794E+04  0.00000000000E+00 0.  1.
          2   -1    0    0  501    0  0.00000000000E+00 -0.00000000000E+00 -0.30006228381E+04  0.30006228381E+04  0.00000000000E+00 0. -1.
         23    2    1    2    0    0  0.17754929501E+04 -0.31211229359E+03 -0.16180491857E+04  0.24240573869E+04  0.90453015384E+02 0.  0.
         11    1    3    3    0    0  0.15629475372E+04 -0.26518058507E+03 -0.14588795911E+04  0.21544037245E+04  0.00000000000E+00 0.  1.
        -11    1    3    3    0    0  0.21254541293E+03 -0.46931708518E+02 -0.15916959457E+03  0.26965366242E+03  0.00000000000E+00 0. -1.
         22    1    1    2    0    0 -0.17754929501E+04  0.31211229359E+03 -0.15017737296E+03  0.18089617307E+04  0.00000000000E+00 0.  1.
<mgrwt>
<rscale>  0 0.38460143E+04</rscale>
<asrwt>0</asrwt>
<pdfrwt beam="1">  1        2 0.46163428E+00 0.38460143E+04</pdfrwt>
<pdfrwt beam="2">  1       -2 0.18959943E+00 0.38460143E+04</pdfrwt>
<totfact> 0.21658729E-01</totfact>
</mgrwt>
</event>
<event>
 6    1  0.1603085E-006  0.3436839E+04  0.7818608E-02  0.8128924E-01
          2   -1    0    0  501    0  0.00000000000E+00  0.00000000000E+00  0.25384749478E+04  0.25384749478E+04  0.00000000000E+00 0. -1.
         -2   -1    0    0    0  501 -0.00000000000E+00 -0.00000000000E+00 -0.11632833878E+04  0.11632833878E+04  0.00000000000E+00 0.  1.
         23    2    1    2    0    0 -0.11533351372E+04 -0.46701531938E+03  0.19627001635E+04  0.23257308626E+04  0.92449263591E+02 0.  0.
         11    1    3    3    0    0 -0.32347881091E+03 -0.86825235201E+02  0.52815198569E+03  0.62539721982E+03  0.00000000000E+00 0. -1.
        -11    1    3    3    0    0 -0.82985632632E+03 -0.38019008417E+03  0.14345481778E+04  0.17003336428E+04  0.00000000000E+00 0.  1.
         22    1    1    2    0    0  0.11533351372E+04  0.46701531938E+03 -0.58750860345E+03  0.13760274730E+04  0.00000000000E+00 0.  1.
<mgrwt>
<rscale>  0 0.34368391E+04</rscale>
<asrwt>0</asrwt>
<pdfrwt beam="1">  1        2 0.39053461E+00 0.34368391E+04</pdfrwt>
<pdfrwt beam="2">  1       -2 0.17896668E+00 0.34368391E+04</pdfrwt>
<totfact> 0.50332787E-01</totfact>
</mgrwt>
</event>
<event>
 6    1  0.1603085E-006  0.7302039E+03  0.7818608E-02  0.9666930E-01
         -1   -1    0    0    0  501 -0.00000000000E+00  0.00000000000E+00  0.73983991968E+02  0.73983991968E+02  0.00000000000E+00 0.  1.
          1   -1    0    0  501    0  0.00000000000E+00 -0.00000000000E+00 -0.18017333244E+04  0.18017333244E+04  0.00000000000E+00 0. -1.
         23    2    1    2    0    0  0.11900866730E+03  0.13234519135E+03 -0.16794021253E+04  0.16912836833E+04  0.91491455606E+02 0.  0.
         11    1    3    3    0    0  0.68141323323E+02  0.84517526966E+02 -0.60858242098E+03  0.61819011270E+03  0.00000000000E+00 0. -1.
        -11    1    3    3    0    0  0.50867343979E+02  0.47827664379E+02 -0.10708197043E+04  0.10730935706E+04  0.00000000000E+00 0.  1.
         22    1    1    2    0    0 -0.11900866730E+03 -0.13234519135E+03 -0.48347207149E+02  0.18443363306E+03  0.00000000000E+00 0.  1.
<mgrwt>
<rscale>  0 0.73020387E+03</rscale>
<asrwt>0</asrwt>
<pdfrwt beam="1">  1        1 0.27718976E+00 0.73020387E+03</pdfrwt>
<pdfrwt beam="2">  1       -1 0.11382152E-01 0.73020387E+03</pdfrwt>
<totfact> 0.21411298E+02</totfact>
</mgrwt>
</event>
<event>
 6    1  0.1603085E-006  0.2787683E+04  0.7818608E-02  0.8307103E-01
          1   -1    0    0  501    0  0.00000000000E+00  0.00000000000E+00  0.11852246967E+04  0.11852246967E+04  0.00000000000E+00 0. -1.
         -1   -1    0    0    0  501 -0.00000000000E+00 -0.00000000000E+00 -0.16391773517E+04  0.16391773517E+04  0.00000000000E+00 0.  1.
         23    2    1    2    0    0 -0.12730496629E+04  0.40659657657E+02 -0.79599856625E+03  0.15055752754E+04  0.10408909847E+03 0.  0.
         11    1    3    3    0    0 -0.62477205682E+03  0.37559600450E+02 -0.44874233711E+03  0.77014318908E+03  0.00000000000E+00 0.  1.
        -11    1    3    3    0    0 -0.64827760606E+03  0.31000572077E+01 -0.34725622914E+03  0.73543208629E+03  0.00000000000E+00 0. -1.
         22    1    1    2    0    0  0.12730496629E+04 -0.40659657657E+02  0.34204591121E+03  0.13188267730E+04  0.00000000000E+00 0. -1.
<mgrwt>
<rscale>  0 0.27876825E+04</rscale>
<asrwt>0</asrwt>
<pdfrwt beam="1">  1        1 0.18234226E+00 0.27876825E+04</pdfrwt>
<pdfrwt beam="2">  1       -1 0.25218113E+00 0.27876825E+04</pdfrwt>
<totfact> 0.64056677E-01</totfact>
</mgrwt>
</event>
<event>
 6    1  0.1603085E-006  0.2537609E+04  0.7818608E-02  0.8389708E-01
         -1   -1    0    0    0  501 -0.00000000000E+00  0.00000000000E+00  0.54631676128E+03  0.54631676128E+03  0.00000000000E+00 0.  1.
          1   -1    0    0  501    0  0.00000000000E+00 -0.00000000000E+00 -0.29467613754E+04  0.29467613754E+04  0.00000000000E+00 0. -1.
         23    2    1    2    0    0 -0.91567396346E+03 -0.63607294354E+03 -0.37298925191E+03  0.11792884222E+04  0.92480289399E+02 0.  0.
         11    1    3    3    0    0 -0.51164816225E+03 -0.34854395088E+03 -0.15888233126E+03  0.63914812275E+03  0.00000000000E+00 0.  1.
        -11    1    3    3    0    0 -0.40402580121E+03 -0.28752899266E+03 -0.21410692065E+03  0.54014029949E+03  0.00000000000E+00 0. -1.
         22    1    1    2    0    0  0.91567396346E+03  0.63607294354E+03 -0.20274553622E+04  0.23137897145E+04  0.00000000000E+00 0. -1.
<mgrwt>
<rscale>  0 0.25376092E+04</rscale>
<asrwt>0</asrwt>
<pdfrwt beam="1">  1        1 0.45334790E+00 0.25376092E+04</pdfrwt>
<pdfrwt beam="2">  1       -1 0.84048733E-01 0.25376092E+04</pdfrwt>
<totfact> 0.81175138E-01</totfact>
</mgrwt>
</event>
<event>
 6    1  0.1603085E-006  0.2300711E+04  0.7818608E-02  0.8477641E-01
          2   -1    0    0  501    0  0.00000000000E+00  0.00000000000E+00  0.18905387444E+04  0.18905387444E+04  0.00000000000E+00 0. -1.
         -2   -1    0    0    0  501 -0.00000000000E+00 -0.00000000000E+00 -0.69996877584E+03  0.69996877584E+03  0.00000000000E+00 0.  1.
         23    2    1    2    0    0  0.36198361531E+02 -0.83195600224E+03  0.14870222914E+04  0.17065702540E+04  0.87667699759E+02 0.  0.
         13    1    3    3    0    0 -0.12517260864E+02 -0.43632742943E+03  0.83911735545E+03  0.94586269812E+03  0.00000000000E+00 0. -1.
        -13    1    3    3    0    0  0.48715622395E+02 -0.39562857281E+03  0.64790493593E+03  0.76070755583E+03  0.00000000000E+00 0.  1.
         22    1    1    2    0    0 -0.36198361531E+02  0.83195600224E+03 -0.29645232282E+03  0.88393726629E+03  0.00000000000E+00 0.  1.
<mgrwt>
<rscale>  0 0.23007113E+04</rscale>
<asrwt>0</asrwt>
<pdfrwt beam="1">  1        2 0.29085211E+00 0.23007113E+04</pdfrwt>
<pdfrwt beam="2">  1       -2 0.10768750E+00 0.23007113E+04</pdfrwt>
<totfact> 0.48193514E+00</totfact>
</mgrwt>
</event>
<event>
 6    1  0.1603085E-006  0.1181252E+04  0.7818608E-02  0.9129426E-01
         -2   -1    0    0    0  501 -0.00000000000E+00  0.00000000000E+00  0.12741024349E+03  0.12741024349E+03  0.00000000000E+00 0.  1.
          2   -1    0    0  501    0  0.00000000000E+00 -0.00000000000E+00 -0.27379216257E+04  0.27379216257E+04  0.00000000000E+00 0. -1.
         23    2    1    2    0    0  0.80916229829E+02 -0.22638317999E+03 -0.26123990137E+04  0.26249148491E+04  0.88048721587E+02 0.  0.
         13    1    3    3    0    0  0.90653117227E+02 -0.16142581380E+03 -0.16703797649E+04  0.16806084732E+04  0.00000000000E+00 0. -1.
        -13    1    3    3    0    0 -0.97368873984E+01 -0.64957366187E+02 -0.94201924883E+03  0.94430637590E+03  0.00000000000E+00 0.  1.
         22    1    1    2    0    0 -0.80916229829E+02  0.22638317999E+03  0.18876314988E+01  0.24041702016E+03  0.00000000000E+00 0.  1.
<mgrwt>
<rscale>  0 0.11812523E+04</rscale>
<asrwt>0</asrwt>
<pdfrwt beam="1">  1        2 0.42121872E+00 0.11812523E+04</pdfrwt>
<pdfrwt beam="2">  1       -2 0.19601576E-01 0.11812523E+04</pdfrwt>
<totfact> 0.55717418E+01</totfact>
</mgrwt>
</event>
<event>
 6    1  0.1603085E-006  0.1527995E+04  0.7818608E-02  0.8866047E-01
         -2   -1    0    0    0  501 -0.00000000000E+00  0.00000000000E+00  0.83094675083E+03  0.83094675083E+03  0.00000000000E+00 0.  1.
          2   -1    0    0  501    0  0.00000000000E+00 -0.00000000000E+00 -0.70244199814E+03  0.70244199814E+03  0.00000000000E+00 0. -1.
         23    2    1    2    0    0  0.32841268717E+03 -0.45587392032E+03  0.57970047255E+03  0.81279628305E+03  0.94388746929E+02 0.  0.
         11    1    3    3    0    0  0.75704510751E+02 -0.17936553657E+03  0.21364186496E+03  0.28904327552E+03  0.00000000000E+00 0. -1.
        -11    1    3    3    0    0  0.25270817642E+03 -0.27650838374E+03  0.36605860759E+03  0.52375300753E+03  0.00000000000E+00 0.  1.
         22    1    1    2    0    0 -0.32841268717E+03  0.45587392032E+03 -0.45119571986E+03  0.72059246592E+03  0.00000000000E+00 0. -1.
<mgrwt>
<rscale>  0 0.15279946E+04</rscale>
<asrwt>0</asrwt>
<pdfrwt beam="1">  1        2 0.10806800E+00 0.15279946E+04</pdfrwt>
<pdfrwt beam="2">  1       -2 0.12783796E+00 0.15279946E+04</pdfrwt>
<totfact> 0.17817084E+01</totfact>
</mgrwt>
</event>
<event>
 6    1  0.1603085E-006  0.6114450E+04  0.7818608E-02  0.7676371E-01
          2   -1    0    0  501    0  0.00000000000E+00  0.00000000000E+00  0.41791394185E+04  0.41791394185E+04  0.00000000000E+00 0. -1.
         -2   -1    0    0    0  501 -0.00000000000E+00 -0.00000000000E+00 -0.22364949614E+04  0.22364949614E+04  0.00000000000E+00 0.  1.
         23    2    1    2    0    0  0.53611502035E+03  0.97344124781E+03  0.39591381358E+04  0.41131891724E+04  0.92429494074E+02 0.  0.
         13    1    3    3    0    0  0.24281334181E+03  0.44444713906E+03  0.16357894086E+04  0.17123955641E+04  0.00000000000E+00 0. -1.
        -13    1    3    3    0    0  0.29330167854E+03  0.52899410875E+03  0.23233487272E+04  0.24007936083E+04  0.00000000000E+00 0.  1.
         22    1    1    2    0    0 -0.53611502035E+03 -0.97344124781E+03 -0.20164936787E+04  0.23024452076E+04  0.00000000000E+00 0.  1.
<mgrwt>
<rscale>  0 0.61144499E+04</rscale>
<asrwt>0</asrwt>
<pdfrwt beam="1">  1        2 0.64294452E+00 0.61144499E+04</pdfrwt>
<pdfrwt beam="2">  1       -2 0.34407615E+00 0.61144499E+04</pdfrwt>
<totfact> 0.27218375E-03</totfact>
</mgrwt>
</event>
<event>
 6    1  0.1603085E-006  0.3372351E+04  0.7818608E-02  0.8144726E-01
          2   -1    0    0  501    0  0.00000000000E+00  0.00000000000E+00  0.19485837506E+04  0.19485837506E+04  0.00000000000E+00 0. -1.
         -2   -1    0    0    0  501 -0.00000000000E+00 -0.00000000000E+00 -0.14591049559E+04  0.14591049559E+04  0.00000000000E+00 0.  1.
         23    2    1    2    0    0  0.10631536401E+04 -0.35489038723E+03  0.15161760580E+04  0.18877051145E+04  0.91640115421E+02 0.  0.
         11    1    3    3    0    0  0.18259963457E+03 -0.91442855164E+02  0.24266290865E+03  0.31715880807E+03  0.00000000000E+00 0. -1.
        -11    1    3    3    0    0  0.88055400554E+03 -0.26344753207E+03  0.12735131494E+04  0.15705463064E+04  0.00000000000E+00 0.  1.
         22    1    1    2    0    0 -0.10631536401E+04  0.35489038723E+03 -0.10266972634E+04  0.15199835920E+04  0.00000000000E+00 0.  1.
<mgrwt>
<rscale>  0 0.33723512E+04</rscale>
<asrwt>0</asrwt>
<pdfrwt beam="1">  1        2 0.29978212E+00 0.33723512E+04</pdfrwt>
<pdfrwt beam="2">  1       -2 0.22447769E+00 0.33723512E+04</pdfrwt>
<totfact> 0.54870895E-01</totfact>
</mgrwt>
</event>
<event>
 6    1  0.1603085E-006  0.2321149E+04  0.7818608E-02  0.8469629E-01
          1   -1    0    0  501    0  0.00000000000E+00  0.00000000000E+00  0.26475013119E+04  0.26475013119E+04  0.00000000000E+00 0. -1.
         -1   -1    0    0    0  501 -0.00000000000E+00 -0.00000000000E+00 -0.50875619594E+03  0.50875619594E+03  0.00000000000E+00 0.  1.
         23    2    1    2    0    0 -0.30741088139E+03 -0.10618357948E+04  0.59843039687E+03  0.12603234006E+04  0.91101202677E+02 0.  0.
         11    1    3    3    0    0 -0.13599819285E+03 -0.56068817061E+03  0.35493575980E+03  0.67738181752E+03  0.00000000000E+00 0.  1.
        -11    1    3    3    0    0 -0.17141268854E+03 -0.50114762418E+03  0.24349463707E+03  0.58294158309E+03  0.00000000000E+00 0. -1.
         22    1    1    2    0    0  0.30741088139E+03  0.10618357948E+04  0.15403147191E+04  0.18959341073E+04  0.00000000000E+00 0.  1.
<mgrwt>
<rscale>  0 0.23211486E+04</rscale>
<asrwt>0</asrwt>
<pdfrwt beam="1">  1        1 0.40730789E+00 0.23211486E+04</pdfrwt>
<pdfrwt beam="2">  1       -1 0.78270185E-01 0.23211486E+04</pdfrwt>
<totfact> 0.15755257E+00</totfact>
</mgrwt>
</event>
<event>
 6    1  0.1603085E-006  0.2384415E+04  0.7818608E-02  0.8445362E-01
          2   -1    0    0  501    0  0.00000000000E+00  0.00000000000E+00  0.16412976321E+04  0.16412976321E+04  0.00000000000E+00 0. -1.
         -2   -1    0    0    0  501 -0.00000000000E+00 -0.00000000000E+00 -0.86599661473E+03  0.86599661473E+03  0.00000000000E+00 0.  1.
         23    2    1    2    0    0 -0.76957587811E+03  0.82568394485E+03  0.78627293955E+03  0.13785243889E+04  0.90018589585E+02 0.  0.
         11    1    3    3    0    0 -0.57699790136E+03  0.57174051213E+03  0.59408791847E+03  0.10063569179E+04  0.00000000000E+00 0. -1.
        -11    1    3    3    0    0 -0.19257797675E+03  0.25394343272E+03  0.19218502108E+03  0.37216747101E+03  0.00000000000E+00 0.  1.
         22    1    1    2    0    0  0.76957587811E+03 -0.82568394485E+03 -0.10971922217E+02  0.11287698579E+04  0.00000000000E+00 0.  1.
<mgrwt>
<rscale>  0 0.23844146E+04</rscale>
<asrwt>0</asrwt>
<pdfrwt beam="1">  1        2 0.25250733E+00 0.23844146E+04</pdfrwt>
<pdfrwt beam="2">  1       -2 0.13323025E+00 0.23844146E+04</pdfrwt>
<totfact> 0.38855071E+00</totfact>
</mgrwt>
</event>
<event>
 6    1  0.1603085E-006  0.1230698E+04  0.7818608E-02  0.9086403E-01
         -2   -1    0    0    0  501 -0.00000000000E+00  0.00000000000E+00  0.11859270909E+03  0.11859270909E+03  0.00000000000E+00 0.  1.
          2   -1    0    0  501    0  0.00000000000E+00 -0.00000000000E+00 -0.31928995936E+04  0.31928995936E+04  0.00000000000E+00 0. -1.
         23    2    1    2    0    0 -0.27822051085E+03 -0.39037321214E+03 -0.51871238424E+03  0.71132670274E+03  0.84411154764E+02 0.  0.
         13    1    3    3    0    0 -0.78410349861E+02 -0.17367453980E+03 -0.17734119891E+03  0.26030929598E+03  0.00000000000E+00 0.  1.
        -13    1    3    3    0    0 -0.19981016099E+03 -0.21669867233E+03 -0.34137118533E+03  0.45101740676E+03  0.00000000000E+00 0. -1.
         22    1    1    2    0    0  0.27822051085E+03  0.39037321214E+03 -0.25555945003E+04  0.26001656000E+04  0.00000000000E+00 0. -1.
<mgrwt>
<rscale>  0 0.12306984E+04</rscale>
<asrwt>0</asrwt>
<pdfrwt beam="1">  1        2 0.49121535E+00 0.12306984E+04</pdfrwt>
<pdfrwt beam="2">  1       -2 0.18245031E-01 0.12306984E+04</pdfrwt>
<totfact> 0.32955217E+01</totfact>
</mgrwt>
</event>
<event>
 6    1  0.1603085E-006  0.2721243E+04  0.7818608E-02  0.8328145E-01
          1   -1    0    0  501    0  0.00000000000E+00  0.00000000000E+00  0.22561248733E+04  0.22561248733E+04  0.00000000000E+00 0. -1.
         -1   -1    0    0    0  501 -0.00000000000E+00 -0.00000000000E+00 -0.82056224546E+03  0.82056224546E+03  0.00000000000E+00 0.  1.
         23    2    1    2    0    0 -0.76166738243E+03 -0.10785273055E+04  0.35419661751E+03  0.13700205437E+04  0.90236888958E+02 0.  0.
         13    1    3    3    0    0 -0.75831805093E+03 -0.10631416093E+04  0.34149670866E+03  0.13497912246E+04  0.00000000000E+00 0.  1.
        -13    1    3    3    0    0 -0.33493314932E+01 -0.15385696150E+02  0.12699908847E+02  0.20229319124E+02  0.00000000000E+00 0. -1.
         22    1    1    2    0    0  0.76166738243E+03  0.10785273055E+04  0.10813660103E+04  0.17066665750E+04  0.00000000000E+00 0. -1.
<mgrwt>
<rscale>  0 0.27212430E+04</rscale>
<asrwt>0</asrwt>
<pdfrwt beam="1">  1        1 0.34709613E+00 0.27212430E+04</pdfrwt>
<pdfrwt beam="2">  1       -1 0.12624035E+00 0.27212430E+04</pdfrwt>
<totfact> 0.94883833E-01</totfact>
</mgrwt>
</event>
<event>
 6    1  0.1603085E-006  0.3885472E+03  0.7818608E-02  0.1047819E+00
          4   -1    0    0  501    0  0.00000000000E+00  0.00000000000E+00  0.29790771174E+03  0.29790771174E+03  0.00000000000E+00 0. -1.
         -4   -1    0    0    0  501 -0.00000000000E+00 -0.00000000000E+00 -0.12669098857E+03  0.12669098857E+03  0.00000000000E+00 0.  1.
         23    2    1    2    0    0  0.89543402550E+02 -0.94252427007E+01 -0.84356835840E+02  0.15362877540E+03  0.91536160829E+02 0.  0.
         11    1    3    3    0    0  0.80098284892E+02 -0.43276928094E+02 -0.47448835114E+02  0.10266459809E+03  0.00000000000E+00 0. -1.
        -11    1    3    3    0    0  0.94451176579E+01  0.33851685393E+02 -0.36908000726E+02  0.50964177312E+02  0.00000000000E+00 0.  1.
         22    1    1    2    0    0 -0.89543402550E+02  0.94252427007E+01  0.25557355901E+03  0.27096992491E+03  0.00000000000E+00 0. -1.
<mgrwt>
<rscale>  0 0.38854715E+03</rscale>
<asrwt>0</asrwt>
<pdfrwt beam="1">  1        4 0.45831956E-01 0.38854715E+03</pdfrwt>
<pdfrwt beam="2">  1       -4 0.19490921E-01 0.38854715E+03</pdfrwt>
<totfact> 0.21221538E+02</totfact>
</mgrwt>
</event>
<event>
 6    1  0.1603085E-006  0.2659698E+04  0.7818608E-02  0.8348201E-01
          1   -1    0    0  501    0  0.00000000000E+00  0.00000000000E+00  0.15528851999E+04  0.15528851999E+04  0.00000000000E+00 0. -1.
         -1   -1    0    0    0  501 -0.00000000000E+00 -0.00000000000E+00 -0.11388464453E+04  0.11388464453E+04  0.00000000000E+00 0.  1.
         23    2    1    2    0    0  0.30400161544E+03  0.82213360909E+03  0.12173173893E+04  0.15027921099E+04  0.90564044346E+02 0.  0.
         11    1    3    3    0    0  0.18878698303E+03  0.48630975966E+03  0.79762617410E+03  0.95307146685E+03  0.00000000000E+00 0. -1.
        -11    1    3    3    0    0  0.11521463242E+03  0.33582384943E+03  0.41969121516E+03  0.54972064310E+03  0.00000000000E+00 0.  1.
         22    1    1    2    0    0 -0.30400161544E+03 -0.82213360909E+03 -0.80327863472E+03  0.11889395352E+04  0.00000000000E+00 0.  1.
<mgrwt>
<rscale>  0 0.26596976E+04</rscale>
<asrwt>0</asrwt>
<pdfrwt beam="1">  1        1 0.23890542E+00 0.26596976E+04</pdfrwt>
<pdfrwt beam="2">  1       -1 0.17520714E+00 0.26596976E+04</pdfrwt>
<totfact> 0.11876159E+00</totfact>
</mgrwt>
</event>
<event>
 6    1  0.1603085E-006  0.3305205E+04  0.7818608E-02  0.8161572E-01
          2   -1    0    0  501    0  0.00000000000E+00  0.00000000000E+00  0.31013717176E+04  0.31013717176E+04  0.00000000000E+00 0. -1.
         -2   -1    0    0    0  501 -0.00000000000E+00 -0.00000000000E+00 -0.88060898523E+03  0.88060898523E+03  0.00000000000E+00 0.  1.
         23    2    1    2    0    0 -0.50069652261E+03 -0.55711308117E+03  0.28841327773E+04  0.29814149582E+04  0.97679490748E+02 0.  0.
         13    1    3    3    0    0 -0.36622523826E+02 -0.17729848805E+02  0.22927231455E+03  0.23285478524E+03  0.00000000000E+00 0.  1.
        -13    1    3    3    0    0 -0.46407399879E+03 -0.53938323236E+03  0.26548604627E+04  0.27485601729E+04  0.00000000000E+00 0. -1.
         22    1    1    2    0    0  0.50069652261E+03  0.55711308117E+03 -0.66337004489E+03  0.10005657447E+04  0.00000000000E+00 0.  1.
<mgrwt>
<rscale>  0 0.33052055E+04</rscale>
<asrwt>0</asrwt>
<pdfrwt beam="1">  1        2 0.47713410E+00 0.33052055E+04</pdfrwt>
<pdfrwt beam="2">  1       -2 0.13547831E+00 0.33052055E+04</pdfrwt>
<totfact> 0.48976136E-01</totfact>
</mgrwt>
</event>
<event>
 6    1  0.1603085E-006  0.1412318E+04  0.7818608E-02  0.8944950E-01
         -2   -1    0    0    0  501 -0.00000000000E+00  0.00000000000E+00  0.36848079094E+03  0.36848079094E+03  0.00000000000E+00 0.  1.
          2   -1    0    0  501    0  0.00000000000E+00 -0.00000000000E+00 -0.13532883343E+04  0.13532883343E+04  0.00000000000E+00 0. -1.
         23    2    1    2    0    0  0.49551919560E+03 -0.45175971782E+03 -0.75418347506E+03  0.10126756358E+04  0.84220623811E+02 0.  0.
         13    1    3    3    0    0  0.15903843177E+03 -0.17490811391E+03 -0.31683287614E+03  0.39530892033E+03  0.00000000000E+00 0. -1.
        -13    1    3    3    0    0  0.33648076383E+03 -0.27685160391E+03 -0.43735059892E+03  0.61736671549E+03  0.00000000000E+00 0.  1.
         22    1    1    2    0    0 -0.49551919560E+03  0.45175971782E+03 -0.23062406830E+03  0.70909348942E+03  0.00000000000E+00 0. -1.
<mgrwt>
<rscale>  0 0.14123183E+04</rscale>
<asrwt>0</asrwt>
<pdfrwt beam="1">  1        2 0.20819821E+00 0.14123183E+04</pdfrwt>
<pdfrwt beam="2">  1       -2 0.56689352E-01 0.14123183E+04</pdfrwt>
<totfact> 0.43687244E+01</totfact>
</mgrwt>
</event>
<event>
 6    1  0.1603085E-006  0.5022013E+03  0.7818608E-02  0.1013206E+00
         -2   -1    0    0    0  501 -0.00000000000E+00  0.00000000000E+00  0.39998225667E+02  0.39998225667E+02  0.00000000000E+00 0.  1.
          2   -1    0    0  501    0  0.00000000000E+00 -0.00000000000E+00 -0.15763582780E+04  0.15763582780E+04  0.00000000000E+00 0. -1.
         23    2    1    2    0    0  0.85051107171E+02  0.13319031328E+03 -0.13870737397E+04  0.13989634184E+04  0.90286965958E+02 0.  0.
         11    1    3    3    0    0 -0.12049176495E+02  0.19729628738E+02 -0.76722694833E+02  0.80129974459E+02  0.00000000000E+00 0.  1.
        -11    1    3    3    0    0  0.97100283667E+02  0.11346068454E+03 -0.13103510449E+04  0.13188334439E+04  0.00000000000E+00 0. -1.
         22    1    1    2    0    0 -0.85051107171E+02 -0.13319031328E+03 -0.14928631257E+03  0.21739308523E+03  0.00000000000E+00 0.  1.
<mgrwt>
<rscale>  0 0.50220129E+03</rscale>
<asrwt>0</asrwt>
<pdfrwt beam="1">  1        2 0.24251661E+00 0.50220129E+03</pdfrwt>
<pdfrwt beam="2">  1       -2 0.61535744E-02 0.50220129E+03</pdfrwt>
<totfact> 0.17530588E+03</totfact>
</mgrwt>
</event>
<event>
 6    1  0.1603085E-006  0.1544206E+04  0.7818608E-02  0.8855577E-01
         -2   -1    0    0    0  501 -0.00000000000E+00  0.00000000000E+00  0.57914043501E+03  0.57914043501E+03  0.00000000000E+00 0.  1.
          2   -1    0    0  501    0  0.00000000000E+00 -0.00000000000E+00 -0.10293587534E+04  0.10293587534E+04  0.00000000000E+00 0. -1.
         23    2    1    2    0    0 -0.27694623818E+03  0.35308815275E+03  0.42515617535E+03  0.62480667205E+03  0.90857809479E+02 0.  0.
         13    1    3    3    0    0 -0.26574599248E+02  0.89736635021E+02  0.10326437289E+03  0.13936428415E+03  0.00000000000E+00 0.  1.
        -13    1    3    3    0    0 -0.25037163893E+03  0.26335151773E+03  0.32189180247E+03  0.48544238790E+03  0.00000000000E+00 0. -1.
         22    1    1    2    0    0  0.27694623818E+03 -0.35308815275E+03 -0.87537449374E+03  0.98369251636E+03  0.00000000000E+00 0. -1.
<mgrwt>
<rscale>  0 0.15442063E+04</rscale>
<asrwt>0</asrwt>
<pdfrwt beam="1">  1        2 0.15836288E+00 0.15442063E+04</pdfrwt>
<pdfrwt beam="2">  1       -2 0.89098529E-01 0.15442063E+04</pdfrwt>
<totfact> 0.25132364E+01</totfact>
</mgrwt>
</event>
<event>
 6    1  0.1603085E-006  0.1798838E+04  0.7818608E-02  0.8706918E-01
         -2   -1    0    0    0  501 -0.00000000000E+00  0.00000000000E+00  0.85805503016E+03  0.85805503016E+03  0.00000000000E+00 0.  1.
          2   -1    0    0  501    0  0.00000000000E+00 -0.00000000000E+00 -0.94277687919E+03  0.94277687919E+03  0.00000000000E+00 0. -1.
         23    2    1    2    0    0  0.25050826590E+03 -0.36048425559E+03 -0.82564528622E+03  0.93962878023E+03  0.92243244545E+02 0.  0.
         11    1    3    3    0    0  0.16905662567E+03 -0.16461506182E+03 -0.45630322480E+03  0.51370311876E+03  0.00000000000E+00 0. -1.
        -11    1    3    3    0    0  0.81451640233E+02 -0.19586919376E+03 -0.36934206142E+03  0.42592566147E+03  0.00000000000E+00 0.  1.
         22    1    1    2    0    0 -0.25050826590E+03  0.36048425559E+03  0.74092343719E+03  0.86120312911E+03  0.00000000000E+00 0.  1.
<mgrwt>
<rscale>  0 0.17988379E+04</rscale>
<asrwt>0</asrwt>
<pdfrwt beam="1">  1        2 0.14504260E+00 0.17988379E+04</pdfrwt>
<pdfrwt beam="2">  1       -2 0.13200847E+00 0.17988379E+04</pdfrwt>
<totfact> 0.10825383E+01</totfact>
</mgrwt>
</event>
<event>
 6    1  0.1603085E-006  0.6443182E+03  0.7818608E-02  0.9817499E-01
          2   -1    0    0  501    0  0.00000000000E+00  0.00000000000E+00  0.12667730164E+04  0.12667730164E+04  0.00000000000E+00 0. -1.
         -2   -1    0    0    0  501 -0.00000000000E+00 -0.00000000000E+00 -0.81929823564E+02  0.81929823564E+02  0.00000000000E+00 0.  1.
         23    2    1    2    0    0  0.26822315166E+03  0.16553409047E+03  0.63482482141E+03  0.71477429265E+03  0.92490763708E+02 0.  0.
         13    1    3    3    0    0  0.14546579656E+03  0.50533715554E+02  0.37341120583E+03  0.40391816376E+03  0.00000000000E+00 0.  1.
        -13    1    3    3    0    0  0.12275735510E+03  0.11500037491E+03  0.26141361558E+03  0.31085612889E+03  0.00000000000E+00 0. -1.
         22    1    1    2    0    0 -0.26822315166E+03 -0.16553409047E+03  0.55001837146E+03  0.63392854734E+03  0.00000000000E+00 0.  1.
<mgrwt>
<rscale>  0 0.64431821E+03</rscale>
<asrwt>0</asrwt>
<pdfrwt beam="1">  1        2 0.19488814E+00 0.64431821E+03</pdfrwt>
<pdfrwt beam="2">  1       -2 0.12604589E-01 0.64431821E+03</pdfrwt>
<totfact> 0.82098099E+02</totfact>
</mgrwt>
</event>
<event>
 6    1  0.1603085E-006  0.2039466E+04  0.7818608E-02  0.8588388E-01
         -1   -1    0    0    0  501 -0.00000000000E+00  0.00000000000E+00  0.12429403335E+04  0.12429403335E+04  0.00000000000E+00 0.  1.
          1   -1    0    0  501    0  0.00000000000E+00 -0.00000000000E+00 -0.83660948344E+03  0.83660948344E+03  0.00000000000E+00 0. -1.
         23    2    1    2    0    0  0.93756296870E+02  0.88096843712E+03  0.71405767983E+03  0.11416844577E+04  0.93109614824E+02 0.  0.
         11    1    3    3    0    0  0.51289698396E+02  0.17409988893E+03  0.16994618643E+03  0.24864253612E+03  0.00000000000E+00 0.  1.
        -11    1    3    3    0    0  0.42466598474E+02  0.70686854818E+03  0.54411149341E+03  0.89304192155E+03  0.00000000000E+00 0. -1.
         22    1    1    2    0    0 -0.93756296870E+02 -0.88096843712E+03 -0.30772682975E+03  0.93786535929E+03  0.00000000000E+00 0. -1.
<mgrwt>
<rscale>  0 0.20394663E+04</rscale>
<asrwt>0</asrwt>
<pdfrwt beam="1">  1        1 0.12870915E+00 0.20394663E+04</pdfrwt>
<pdfrwt beam="2">  1       -1 0.19122159E+00 0.20394663E+04</pdfrwt>
<totfact> 0.32925699E+00</totfact>
</mgrwt>
</event>
<event>
 6    1  0.1603085E-006  0.1475227E+04  0.7818608E-02  0.8901096E-01
          2   -1    0    0  501    0  0.00000000000E+00  0.00000000000E+00  0.40971669746E+03  0.40971669746E+03  0.00000000000E+00 0. -1.
         -2   -1    0    0    0  501 -0.00000000000E+00 -0.00000000000E+00 -0.13279273654E+04  0.13279273654E+04  0.00000000000E+00 0.  1.
         23    2    1    2    0    0  0.68637562435E+03  0.16327584919E+03 -0.21882200505E+03  0.74420810496E+03  0.90510402496E+02 0.  0.
         11    1    3    3    0    0  0.28250788015E+02  0.61988367742E+01 -0.30160765416E+02  0.41787610261E+02  0.00000000000E+00 0. -1.
        -11    1    3    3    0    0  0.65812483634E+03  0.15707701242E+03 -0.18866123964E+03  0.70242049470E+03  0.00000000000E+00 0.  1.
         22    1    1    2    0    0 -0.68637562435E+03 -0.16327584919E+03 -0.69938866285E+03  0.99343595785E+03  0.00000000000E+00 0.  1.
<mgrwt>
<rscale>  0 0.14752275E+04</rscale>
<asrwt>0</asrwt>
<pdfrwt beam="1">  1        2 0.63033339E-01 0.14752275E+04</pdfrwt>
<pdfrwt beam="2">  1       -2 0.20429652E+00 0.14752275E+04</pdfrwt>
<totfact> 0.93300477E+00</totfact>
</mgrwt>
</event>
<event>
 6    1  0.1603085E-006  0.3581591E+04  0.7818608E-02  0.8094721E-01
          1   -1    0    0  501    0  0.00000000000E+00  0.00000000000E+00  0.18053747385E+04  0.18053747385E+04  0.00000000000E+00 0. -1.
         -1   -1    0    0    0  501 -0.00000000000E+00 -0.00000000000E+00 -0.17763344397E+04  0.17763344397E+04  0.00000000000E+00 0.  1.
         23    2    1    2    0    0  0.57938081009E+03 -0.10589254419E+04 -0.13067898417E+04  0.17813071735E+04  0.91380202629E+02 0.  0.
         13    1    3    3    0    0  0.20435413943E+03 -0.42787135599E+03 -0.56662500953E+03  0.73884938452E+03  0.00000000000E+00 0.  1.
        -13    1    3    3    0    0  0.37502667066E+03 -0.63105408592E+03 -0.74016483214E+03  0.10424577890E+04  0.00000000000E+00 0. -1.
         22    1    1    2    0    0 -0.57938081009E+03  0.10589254419E+04  0.13358301404E+04  0.18004020047E+04  0.00000000000E+00 0. -1.
<mgrwt>
<rscale>  0 0.35815914E+04</rscale>
<asrwt>0</asrwt>
<pdfrwt beam="1">  1        1 0.27774996E+00 0.35815914E+04</pdfrwt>
<pdfrwt beam="2">  1       -1 0.27328222E+00 0.35815914E+04</pdfrwt>
<totfact> 0.16104978E-01</totfact>
</mgrwt>
</event>
<event>
 6    1  0.1603085E-006  0.1088746E+04  0.7818608E-02  0.9216231E-01
         -2   -1    0    0    0  501 -0.00000000000E+00  0.00000000000E+00  0.18540744820E+03  0.18540744820E+03  0.00000000000E+00 0. -1.
          2   -1    0    0  501    0  0.00000000000E+00 -0.00000000000E+00 -0.15983285494E+04  0.15983285494E+04  0.00000000000E+00 0.  1.
         23    2    1    2    0    0  0.45033968668E+02 -0.49557882030E+03 -0.36534289161E+03  0.62397458651E+03  0.90787833415E+02 0.  0.
         11    1    3    3    0    0  0.70020314378E+02 -0.38832134948E+03 -0.30233937937E+03  0.49709698773E+03  0.00000000000E+00 0. -1.
        -11    1    3    3    0    0 -0.24986345710E+02 -0.10725747082E+03 -0.63003512232E+02  0.12687759878E+03  0.00000000000E+00 0.  1.
         22    1    1    2    0    0 -0.45033968668E+02  0.49557882030E+03 -0.10475782096E+04  0.11597614111E+04  0.00000000000E+00 0.  1.
<mgrwt>
<rscale>  0 0.10887461E+04</rscale>
<asrwt>0</asrwt>
<pdfrwt beam="1">  1        2 0.24589670E+00 0.10887461E+04</pdfrwt>
<pdfrwt beam="2">  1       -2 0.28524222E-01 0.10887461E+04</pdfrwt>
<totfact> 0.12500689E+02</totfact>
</mgrwt>
</event>
<event>
 6    1  0.1603085E-006  0.2501393E+04  0.7818608E-02  0.8402490E-01
          2   -1    0    0  501    0  0.00000000000E+00  0.00000000000E+00  0.13552374238E+04  0.13552374238E+04  0.00000000000E+00 0. -1.
         -2   -1    0    0    0  501 -0.00000000000E+00 -0.00000000000E+00 -0.11542193813E+04  0.11542193813E+04  0.00000000000E+00 0.  1.
         23    2    1    2    0    0 -0.12114747400E+04 -0.17256757843E+03  0.35179443523E+03  0.12764993300E+04  0.90777750473E+02 0.  0.
         13    1    3    3    0    0 -0.39114255602E+03 -0.48372385314E+02  0.15711644009E+03  0.42428523724E+03  0.00000000000E+00 0.  1.
        -13    1    3    3    0    0 -0.82033218401E+03 -0.12419519312E+03  0.19467799514E+03  0.85221409276E+03  0.00000000000E+00 0. -1.
         22    1    1    2    0    0  0.12114747400E+04  0.17256757843E+03 -0.15077639265E+03  0.12329574751E+04  0.00000000000E+00 0.  1.
<mgrwt>
<rscale>  0 0.25013927E+04</rscale>
<asrwt>0</asrwt>
<pdfrwt beam="1">  1        2 0.20849806E+00 0.25013927E+04</pdfrwt>
<pdfrwt beam="2">  1       -2 0.17757221E+00 0.25013927E+04</pdfrwt>
<totfact> 0.25813852E+00</totfact>
</mgrwt>
</event>
<event>
 6    1  0.1603085E-006  0.2270834E+04  0.7818608E-02  0.8489510E-01
          1   -1    0    0  501    0  0.00000000000E+00  0.00000000000E+00  0.81915613195E+03  0.81915613195E+03  0.00000000000E+00 0. -1.
         -1   -1    0    0    0  501 -0.00000000000E+00 -0.00000000000E+00 -0.15737805709E+04  0.15737805709E+04  0.00000000000E+00 0.  1.
         23    2    1    2    0    0 -0.94041837228E+03  0.59144652148E+03 -0.61496421205E+03  0.12732489420E+04  0.93734644308E+02 0.  0.
         13    1    3    3    0    0 -0.58623228491E+03  0.35246346603E+03 -0.42773295834E+03  0.80675539688E+03  0.00000000000E+00 0. -1.
        -13    1    3    3    0    0 -0.35418608738E+03  0.23898305545E+03 -0.18723125371E+03  0.46649354513E+03  0.00000000000E+00 0.  1.
         22    1    1    2    0    0  0.94041837228E+03 -0.59144652148E+03 -0.13966022685E+03  0.11196877608E+04  0.00000000000E+00 0. -1.
<mgrwt>
<rscale>  0 0.22708342E+04</rscale>
<asrwt>0</asrwt>
<pdfrwt beam="1">  1        1 0.12602402E+00 0.22708342E+04</pdfrwt>
<pdfrwt beam="2">  1       -1 0.24212008E+00 0.22708342E+04</pdfrwt>
<totfact> 0.15138614E+00</totfact>
</mgrwt>
</event>
<event>
 6    1  0.1603085E-006  0.3094202E+04  0.7818608E-02  0.8217331E-01
         -1   -1    0    0    0  501 -0.00000000000E+00  0.00000000000E+00  0.18154067778E+04  0.18154067778E+04  0.00000000000E+00 0.  1.
          1   -1    0    0  501    0  0.00000000000E+00 -0.00000000000E+00 -0.13184494592E+04  0.13184494592E+04  0.00000000000E+00 0. -1.
         23    2    1    2    0    0  0.13338053462E+04 -0.73113784628E+03  0.52658369082E+03  0.16125157182E+04  0.96526194156E+02 0.  0.
         13    1    3    3    0    0  0.81910239785E+03 -0.46418394601E+03  0.27809504775E+03  0.98169869587E+03  0.00000000000E+00 0.  1.
        -13    1    3    3    0    0  0.51470294840E+03 -0.26695390027E+03  0.24848864307E+03  0.63081702236E+03  0.00000000000E+00 0. -1.
         22    1    1    2    0    0 -0.13338053462E+04  0.73113784628E+03 -0.29626372234E+02  0.15213405187E+04  0.00000000000E+00 0.  1.
<mgrwt>
<rscale>  0 0.30942024E+04</rscale>
<asrwt>0</asrwt>
<pdfrwt beam="1">  1        1 0.20283838E+00 0.30942024E+04</pdfrwt>
<pdfrwt beam="2">  1       -1 0.27929335E+00 0.30942024E+04</pdfrwt>
<totfact> 0.33319051E-01</totfact>
</mgrwt>
</event>
<event>
 6    1  0.1603085E-006  0.2220881E+04  0.7818608E-02  0.8509787E-01
          2   -1    0    0  501    0  0.00000000000E+00  0.00000000000E+00  0.16034853121E+04  0.16034853121E+04  0.00000000000E+00 0. -1.
         -2   -1    0    0    0  501 -0.00000000000E+00 -0.00000000000E+00 -0.76899870998E+03  0.76899870998E+03  0.00000000000E+00 0.  1.
         23    2    1    2    0    0  0.54681038117E+03 -0.74818179363E+03  0.10679177269E+04  0.14168336261E+04  0.90507807819E+02 0.  0.
         13    1    3    3    0    0  0.26181979814E+03 -0.32532528587E+03  0.54303383210E+03  0.68503422625E+03  0.00000000000E+00 0. -1.
        -13    1    3    3    0    0  0.28499058303E+03 -0.42285650776E+03  0.52488389482E+03  0.73179939984E+03  0.00000000000E+00 0.  1.
         22    1    1    2    0    0 -0.54681038117E+03  0.74818179363E+03 -0.23343112482E+03  0.95565039597E+03  0.00000000000E+00 0.  1.
<mgrwt>
<rscale>  0 0.22208810E+04</rscale>
<asrwt>0</asrwt>
<pdfrwt beam="1">  1        2 0.24669005E+00 0.22208810E+04</pdfrwt>
<pdfrwt beam="2">  1       -2 0.11830749E+00 0.22208810E+04</pdfrwt>
<totfact> 0.55730350E+00</totfact>
</mgrwt>
</event>
<event>
 6    1  0.1603085E-006  0.1422624E+04  0.7818608E-02  0.8937603E-01
         -2   -1    0    0    0  501 -0.00000000000E+00  0.00000000000E+00  0.56053814662E+03  0.56053814662E+03  0.00000000000E+00 0.  1.
          2   -1    0    0  501    0  0.00000000000E+00 -0.00000000000E+00 -0.90264153124E+03  0.90264153124E+03  0.00000000000E+00 0. -1.
         23    2    1    2    0    0 -0.49478211785E+03 -0.30299021048E+03  0.24654002354E+03  0.63667288796E+03  0.89207461959E+02 0.  0.
         11    1    3    3    0    0 -0.30204939575E+02 -0.46107514590E+02  0.34486549415E+02  0.65019715218E+02  0.00000000000E+00 0. -1.
        -11    1    3    3    0    0 -0.46457717827E+03 -0.25688269589E+03  0.21205347413E+03  0.57165317274E+03  0.00000000000E+00 0.  1.
         22    1    1    2    0    0  0.49478211785E+03  0.30299021048E+03 -0.58864340815E+03  0.82650678990E+03  0.00000000000E+00 0. -1.
<mgrwt>
<rscale>  0 0.14226244E+04</rscale>
<asrwt>0</asrwt>
<pdfrwt beam="1">  1        2 0.13886793E+00 0.14226244E+04</pdfrwt>
<pdfrwt beam="2">  1       -2 0.86236638E-01 0.14226244E+04</pdfrwt>
<totfact> 0.33090372E+01</totfact>
</mgrwt>
</event>
<event>
 6    1  0.1603085E-006  0.5241983E+03  0.7818608E-02  0.1007649E+00
         -2   -1    0    0    0  501 -0.00000000000E+00  0.00000000000E+00  0.59685981016E+02  0.59685981016E+02  0.00000000000E+00 0. -1.
          2   -1    0    0  501    0  0.00000000000E+00 -0.00000000000E+00 -0.11509564543E+04  0.11509564543E+04  0.00000000000E+00 0.  1.
         23    2    1    2    0    0 -0.12985570126E+03 -0.19484725259E+03 -0.33503753082E+03  0.41898833266E+03  0.92049556486E+02 0.  0.
         13    1    3    3    0    0 -0.11890657656E+03 -0.15990623253E+03 -0.32464782500E+03  0.38092648559E+03  0.00000000000E+00 0.  1.
        -13    1    3    3    0    0 -0.10949124702E+02 -0.34941020066E+02 -0.10389705829E+02  0.38061847067E+02  0.00000000000E+00 0. -1.
         22    1    1    2    0    0  0.12985570126E+03  0.19484725259E+03 -0.75623294246E+03  0.79165410266E+03  0.00000000000E+00 0.  1.
<mgrwt>
<rscale>  0 0.52419830E+03</rscale>
<asrwt>0</asrwt>
<pdfrwt beam="1">  1        2 0.17707021E+00 0.52419830E+03</pdfrwt>
<pdfrwt beam="2">  1       -2 0.91824591E-02 0.52419830E+03</pdfrwt>
<totfact> 0.16148905E+03</totfact>
</mgrwt>
</event>
<event>
 6    1  0.1603085E-006  0.3662495E+04  0.7818608E-02  0.8076325E-01
          1   -1    0    0  501    0  0.00000000000E+00  0.00000000000E+00  0.28669432985E+04  0.28669432985E+04  0.00000000000E+00 0. -1.
         -1   -1    0    0    0  501 -0.00000000000E+00 -0.00000000000E+00 -0.11697011950E+04  0.11697011950E+04  0.00000000000E+00 0.  1.
         23    2    1    2    0    0 -0.10832721408E+04  0.13925935874E+04  0.31346877477E+03  0.17944080974E+04  0.94033593416E+02 0.  0.
         13    1    3    3    0    0 -0.36042168931E+03  0.48001754997E+03  0.15081873188E+03  0.61892401172E+03  0.00000000000E+00 0. -1.
        -13    1    3    3    0    0 -0.72285045144E+03  0.91257603747E+03  0.16265004289E+03  0.11754840857E+04  0.00000000000E+00 0.  1.
         22    1    1    2    0    0  0.10832721408E+04 -0.13925935874E+04  0.13837733288E+04  0.22422363961E+04  0.00000000000E+00 0.  1.
<mgrwt>
<rscale>  0 0.36624948E+04</rscale>
<asrwt>0</asrwt>
<pdfrwt beam="1">  1        1 0.44106820E+00 0.36624948E+04</pdfrwt>
<pdfrwt beam="2">  1       -1 0.17995403E+00 0.36624948E+04</pdfrwt>
<totfact> 0.12503427E-01</totfact>
</mgrwt>
</event>
<event>
 6    1  0.1603085E-006  0.7456575E+03  0.7818608E-02  0.9642188E-01
         -3   -1    0    0    0  501 -0.00000000000E+00  0.00000000000E+00  0.53588571517E+03  0.53588571517E+03  0.00000000000E+00 0.  1.
          3   -1    0    0  501    0  0.00000000000E+00 -0.00000000000E+00 -0.25938603219E+03  0.25938603219E+03  0.00000000000E+00 0. -1.
         23    2    1    2    0    0  0.67571132306E+02 -0.30376188443E+03 -0.67472701035E+02  0.33142463751E+03  0.91937938906E+02 0.  0.
         11    1    3    3    0    0  0.76256433686E+02 -0.23403100419E+03 -0.82436894106E+02  0.25957926749E+03  0.00000000000E+00 0. -1.
        -11    1    3    3    0    0 -0.86853013801E+01 -0.69730880240E+02  0.14964193071E+02  0.71845370020E+02  0.00000000000E+00 0.  1.
         22    1    1    2    0    0 -0.67571132306E+02  0.30376188443E+03  0.34397238401E+03  0.46384710985E+03  0.00000000000E+00 0.  1.
<mgrwt>
<rscale>  0 0.74565748E+03</rscale>
<asrwt>0</asrwt>
<pdfrwt beam="1">  1        3 0.39905543E-01 0.74565748E+03</pdfrwt>
<pdfrwt beam="2">  1       -3 0.82443956E-01 0.74565748E+03</pdfrwt>
<totfact> 0.22368460E+01</totfact>
</mgrwt>
</event>
<event>
 6    1  0.1603085E-006  0.1351583E+04  0.7818608E-02  0.8989631E-01
         -1   -1    0    0    0  501 -0.00000000000E+00  0.00000000000E+00  0.19860589054E+04  0.19860589054E+04  0.00000000000E+00 0.  1.
          1   -1    0    0  501    0  0.00000000000E+00 -0.00000000000E+00 -0.22994992846E+03  0.22994992846E+03  0.00000000000E+00 0. -1.
         23    2    1    2    0    0 -0.22368496366E+03  0.23820747927E+03  0.18461813372E+04  0.18770533851E+04  0.90366557610E+02 0.  0.
         11    1    3    3    0    0 -0.17165780552E+03  0.19370792343E+03  0.12207461485E+04  0.12478823345E+04  0.00000000000E+00 0. -1.
        -11    1    3    3    0    0 -0.52027158142E+02  0.44499555833E+02  0.62543518871E+03  0.62917105061E+03  0.00000000000E+00 0.  1.
         22    1    1    2    0    0  0.22368496366E+03 -0.23820747927E+03 -0.90072360236E+02  0.33895544873E+03  0.00000000000E+00 0. -1.
<mgrwt>
<rscale>  0 0.13515829E+04</rscale>
<asrwt>0</asrwt>
<pdfrwt beam="1">  1        1 0.35376913E-01 0.13515829E+04</pdfrwt>
<pdfrwt beam="2">  1       -1 0.30554751E+00 0.13515829E+04</pdfrwt>
<totfact> 0.37056411E+00</totfact>
</mgrwt>
</event>
<event>
 6    1  0.1603085E-006  0.3333668E+04  0.7818608E-02  0.8154381E-01
         -1   -1    0    0    0  501 -0.00000000000E+00  0.00000000000E+00  0.18371454672E+04  0.18371454672E+04  0.00000000000E+00 0.  1.
          1   -1    0    0  501    0  0.00000000000E+00 -0.00000000000E+00 -0.15123111949E+04  0.15123111949E+04  0.00000000000E+00 0. -1.
         23    2    1    2    0    0  0.13362744689E+04 -0.29404622082E+03 -0.79158916751E+03  0.15835308615E+04  0.94148515878E+02 0.  0.
         11    1    3    3    0    0  0.36494977794E+03 -0.45437303942E+02 -0.24052665977E+03  0.43943823578E+03  0.00000000000E+00 0.  1.
        -11    1    3    3    0    0  0.97132469098E+03 -0.24860891688E+03 -0.55106250774E+03  0.11440926258E+04  0.00000000000E+00 0. -1.
         22    1    1    2    0    0 -0.13362744689E+04  0.29404622082E+03  0.11164234398E+04  0.17659258006E+04  0.00000000000E+00 0.  1.
<mgrwt>
<rscale>  0 0.33336680E+04</rscale>
<asrwt>0</asrwt>
<pdfrwt beam="1">  1        1 0.23266326E+00 0.33336680E+04</pdfrwt>
<pdfrwt beam="2">  1       -1 0.28263777E+00 0.33336680E+04</pdfrwt>
<totfact> 0.22705098E-01</totfact>
</mgrwt>
</event>
<event>
 6    1  0.1603085E-006  0.1092353E+04  0.7818608E-02  0.9212677E-01
         -3   -1    0    0    0  501 -0.00000000000E+00  0.00000000000E+00  0.45872591000E+03  0.45872591000E+03  0.00000000000E+00 0.  1.
          3   -1    0    0  501    0  0.00000000000E+00 -0.00000000000E+00 -0.65029877301E+03  0.65029877301E+03  0.00000000000E+00 0. -1.
         23    2    1    2    0    0 -0.30927829050E+03 -0.15346875598E+03  0.32964897212E+03  0.48382237858E+03  0.78803103733E+02 0.  0.
         11    1    3    3    0    0 -0.13298590701E+03 -0.10969545149E+03  0.15462755133E+03  0.23157725098E+03  0.00000000000E+00 0. -1.
        -11    1    3    3    0    0 -0.17629238350E+03 -0.43773304491E+02  0.17502142079E+03  0.25224512761E+03  0.00000000000E+00 0.  1.
         22    1    1    2    0    0  0.30927829050E+03  0.15346875598E+03 -0.52122183514E+03  0.62520230443E+03  0.00000000000E+00 0. -1.
<mgrwt>
<rscale>  0 0.10923532E+04</rscale>
<asrwt>0</asrwt>
<pdfrwt beam="1">  1        3 0.10004597E+00 0.10923532E+04</pdfrwt>
<pdfrwt beam="2">  1       -3 0.70573217E-01 0.10923532E+04</pdfrwt>
<totfact> 0.43626862E+00</totfact>
</mgrwt>
</event>
<event>
 6    1  0.1603085E-006  0.1398874E+04  0.7818608E-02  0.8954634E-01
          1   -1    0    0  501    0  0.00000000000E+00  0.00000000000E+00  0.51460851322E+03  0.51460851322E+03  0.00000000000E+00 0.  1.
         -1   -1    0    0    0  501 -0.00000000000E+00 -0.00000000000E+00 -0.95064916603E+03  0.95064916603E+03  0.00000000000E+00 0. -1.
         23    2    1    2    0    0 -0.39584089703E+03 -0.44411555486E+03  0.16010959052E+03  0.62304407543E+03  0.92845016697E+02 0.  0.
         13    1    3    3    0    0 -0.11623452102E+03 -0.73824292285E+02  0.26879503163E+02  0.14029610721E+03  0.00000000000E+00 0.  1.
        -13    1    3    3    0    0 -0.27960637600E+03 -0.37029126258E+03  0.13323008735E+03  0.48274796822E+03  0.00000000000E+00 0. -1.
         22    1    1    2    0    0  0.39584089703E+03  0.44411555486E+03 -0.59615024333E+03  0.84221360382E+03  0.00000000000E+00 0. -1.
<mgrwt>
<rscale>  0 0.13988741E+04</rscale>
<asrwt>0</asrwt>
<pdfrwt beam="1">  1        1 0.79170541E-01 0.13988741E+04</pdfrwt>
<pdfrwt beam="2">  1       -1 0.14625372E+00 0.13988741E+04</pdfrwt>
<totfact> 0.15508621E+01</totfact>
</mgrwt>
</event>
<event>
 6    1  0.1603085E-006  0.1984823E+04  0.7818608E-02  0.8613749E-01
          2   -1    0    0  501    0  0.00000000000E+00  0.00000000000E+00  0.22125811206E+04  0.22125811206E+04  0.00000000000E+00 0. -1.
         -2   -1    0    0    0  501 -0.00000000000E+00 -0.00000000000E+00 -0.44512749140E+03  0.44512749140E+03  0.00000000000E+00 0.  1.
         23    2    1    2    0    0 -0.26302013036E+03 -0.87283328810E+03  0.36781989473E+03  0.98738165943E+03  0.92809097733E+02 0.  0.
         13    1    3    3    0    0 -0.16945693903E+03 -0.47518850761E+03  0.24480380709E+03  0.56075723439E+03  0.00000000000E+00 0. -1.
        -13    1    3    3    0    0 -0.93563191330E+02 -0.39764478049E+03  0.12301608764E+03  0.42662442504E+03  0.00000000000E+00 0.  1.
         22    1    1    2    0    0  0.26302013036E+03  0.87283328810E+03  0.13996337344E+04  0.16703269525E+04  0.00000000000E+00 0. -1.
<mgrwt>
<rscale>  0 0.19848231E+04</rscale>
<asrwt>0</asrwt>
<pdfrwt beam="1">  1        2 0.34039709E+00 0.19848231E+04</pdfrwt>
<pdfrwt beam="2">  1       -2 0.68481154E-01 0.19848231E+04</pdfrwt>
<totfact> 0.92157175E+00</totfact>
</mgrwt>
</event>
<event>
 6    1  0.1603085E-006  0.1159596E+04  0.7818608E-02  0.9148976E-01
          1   -1    0    0  501    0  0.00000000000E+00  0.00000000000E+00  0.65283160973E+03  0.65283160973E+03  0.00000000000E+00 0. -1.
         -1   -1    0    0    0  501 -0.00000000000E+00 -0.00000000000E+00 -0.51493493635E+03  0.51493493635E+03  0.00000000000E+00 0.  1.
         23    2    1    2    0    0  0.14926956522E+03  0.16559629553E+03  0.60439027570E+03  0.65073674307E+03  0.92017211587E+02 0.  0.
         13    1    3    3    0    0  0.11423561384E+03  0.10831462578E+03  0.29745901205E+03  0.33654672406E+03  0.00000000000E+00 0. -1.
        -13    1    3    3    0    0  0.35033951374E+02  0.57281669754E+02  0.30693126366E+03  0.31419001901E+03  0.00000000000E+00 0.  1.
         22    1    1    2    0    0 -0.14926956522E+03 -0.16559629553E+03 -0.46649360232E+03  0.51702980301E+03  0.00000000000E+00 0.  1.
<mgrwt>
<rscale>  0 0.11595961E+04</rscale>
<asrwt>0</asrwt>
<pdfrwt beam="1">  1        1 0.10043563E+00 0.11595961E+04</pdfrwt>
<pdfrwt beam="2">  1       -1 0.79220759E-01 0.11595961E+04</pdfrwt>
<totfact> 0.47861370E+01</totfact>
</mgrwt>
</event>
<event>
 6    1  0.1603085E-006  0.1887119E+04  0.7818608E-02  0.8661295E-01
         -1   -1    0    0    0  501 -0.00000000000E+00  0.00000000000E+00  0.10032562202E+04  0.10032562202E+04  0.00000000000E+00 0.  1.
          1   -1    0    0  501    0  0.00000000000E+00 -0.00000000000E+00 -0.88741482454E+03  0.88741482454E+03  0.00000000000E+00 0. -1.
         23    2    1    2    0    0 -0.79314006418E+03  0.50239456319E+03 -0.92471158304E+01  0.94350759836E+03  0.93003335843E+02 0.  0.
         13    1    3    3    0    0 -0.46613369167E+03  0.30505006452E+03  0.39462898405E+02  0.55847424357E+03  0.00000000000E+00 0.  1.
        -13    1    3    3    0    0 -0.32700637250E+03  0.19734449867E+03 -0.48710014235E+02  0.38503335479E+03  0.00000000000E+00 0. -1.
         22    1    1    2    0    0  0.79314006418E+03 -0.50239456319E+03  0.12508851155E+03  0.94716344643E+03  0.00000000000E+00 0. -1.
<mgrwt>
<rscale>  0 0.18871189E+04</rscale>
<asrwt>0</asrwt>
<pdfrwt beam="1">  1        1 0.13652536E+00 0.18871189E+04</pdfrwt>
<pdfrwt beam="2">  1       -1 0.15434711E+00 0.18871189E+04</pdfrwt>
<totfact> 0.56356971E+00</totfact>
</mgrwt>
</event>
<event>
 6    1  0.1603085E-006  0.3053254E+04  0.7818608E-02  0.8228685E-01
         -1   -1    0    0    0  501 -0.00000000000E+00  0.00000000000E+00  0.61289487604E+03  0.61289487604E+03  0.00000000000E+00 0.  1.
          1   -1    0    0  501    0  0.00000000000E+00 -0.00000000000E+00 -0.38025933600E+04  0.38025933600E+04  0.00000000000E+00 0. -1.
         23    2    1    2    0    0 -0.63979776322E+03  0.13408833844E+04 -0.10970151645E+04  0.18490446064E+04  0.90632537972E+02 0.  0.
         11    1    3    3    0    0 -0.32197473137E+03  0.75584531644E+03 -0.57045385578E+03  0.10001937170E+04  0.00000000000E+00 0. -1.
        -11    1    3    3    0    0 -0.31782303185E+03  0.58503806799E+03 -0.52656130874E+03  0.84885088940E+03  0.00000000000E+00 0.  1.
         22    1    1    2    0    0  0.63979776322E+03 -0.13408833844E+04 -0.20926833194E+04  0.25664436296E+04  0.00000000000E+00 0. -1.
<mgrwt>
<rscale>  0 0.30532540E+04</rscale>
<asrwt>0</asrwt>
<pdfrwt beam="1">  1        1 0.58501437E+00 0.30532540E+04</pdfrwt>
<pdfrwt beam="2">  1       -1 0.94291519E-01 0.30532540E+04</pdfrwt>
<totfact> 0.13069459E-01</totfact>
</mgrwt>
</event>
<event>
 6    1  0.1603085E-006  0.3119869E+04  0.7818608E-02  0.8210306E-01
          1   -1    0    0  501    0  0.00000000000E+00  0.00000000000E+00  0.24806562169E+04  0.24806562169E+04  0.00000000000E+00 0. -1.
         -1   -1    0    0    0  501 -0.00000000000E+00 -0.00000000000E+00 -0.98094839364E+03  0.98094839364E+03  0.00000000000E+00 0.  1.
         23    2    1    2    0    0  0.14812272927E+04 -0.13842971942E+02  0.12885353784E+04  0.19653360109E+04  0.89421998948E+02 0.  0.
         13    1    3    3    0    0  0.54362883367E+03 -0.44707413219E+02  0.45135529365E+03  0.70799199339E+03  0.00000000000E+00 0.  1.
        -13    1    3    3    0    0  0.93759845907E+03  0.30864441276E+02  0.83718008472E+03  0.12573440175E+04  0.00000000000E+00 0. -1.
         22    1    1    2    0    0 -0.14812272927E+04  0.13842971942E+02  0.21117244485E+03  0.14962685996E+04  0.00000000000E+00 0.  1.
<mgrwt>
<rscale>  0 0.31198691E+04</rscale>
<asrwt>0</asrwt>
<pdfrwt beam="1">  1        1 0.38163942E+00 0.31198691E+04</pdfrwt>
<pdfrwt beam="2">  1       -1 0.15091514E+00 0.31198691E+04</pdfrwt>
<totfact> 0.40383603E-01</totfact>
</mgrwt>
</event>
<event>
 6    1  0.1603085E-006  0.1745862E+04  0.7818608E-02  0.8735631E-01
         -2   -1    0    0    0  501 -0.00000000000E+00  0.00000000000E+00  0.19431495252E+04  0.19431495252E+04  0.00000000000E+00 0.  1.
          2   -1    0    0  501    0  0.00000000000E+00 -0.00000000000E+00 -0.39215134355E+03  0.39215134355E+03  0.00000000000E+00 0. -1.
         23    2    1    2    0    0  0.11411273167E+03  0.59919209427E+03 -0.53130305200E+02  0.61911874446E+03  0.91827605020E+02 0.  0.
         11    1    3    3    0    0  0.55539841513E+01  0.26574757979E+03 -0.12466504699E+02  0.26609779526E+03  0.00000000000E+00 0. -1.
        -11    1    3    3    0    0  0.10855874752E+03  0.33344451449E+03 -0.40663800501E+02  0.35302094920E+03  0.00000000000E+00 0.  1.
         22    1    1    2    0    0 -0.11411273167E+03 -0.59919209427E+03  0.16041284868E+04  0.17161821242E+04  0.00000000000E+00 0.  1.
<mgrwt>
<rscale>  0 0.17458622E+04</rscale>
<asrwt>0</asrwt>
<pdfrwt beam="1">  1        2 0.60330977E-01 0.17458622E+04</pdfrwt>
<pdfrwt beam="2">  1       -2 0.29894608E+00 0.17458622E+04</pdfrwt>
<totfact> 0.24920527E+00</totfact>
</mgrwt>
</event>
<event>
 6    1  0.1603085E-006  0.1978295E+04  0.7818608E-02  0.8616836E-01
          2   -1    0    0  501    0  0.00000000000E+00  0.00000000000E+00  0.36252704246E+04  0.36252704246E+04  0.00000000000E+00 0.  1.
         -2   -1    0    0    0  501 -0.00000000000E+00 -0.00000000000E+00 -0.26988676271E+03  0.26988676271E+03  0.00000000000E+00 0. -1.
         23    2    1    2    0    0 -0.16909737580E+03 -0.62244446954E+03  0.20942215481E+03  0.68375486992E+03  0.87361565056E+02 0.  0.
         11    1    3    3    0    0 -0.49004564161E+02 -0.33939990854E+03  0.96942336155E+02  0.35635875430E+03  0.00000000000E+00 0.  1.
        -11    1    3    3    0    0 -0.12009281164E+03 -0.28304456100E+03  0.11247981866E+03  0.32739611563E+03  0.00000000000E+00 0. -1.
         22    1    1    2    0    0  0.16909737580E+03  0.62244446954E+03  0.31459615071E+04  0.32114023174E+04  0.00000000000E+00 0.  1.
<mgrwt>
<rscale>  0 0.19782947E+04</rscale>
<asrwt>0</asrwt>
<pdfrwt beam="1">  1        2 0.55773388E+00 0.19782947E+04</pdfrwt>
<pdfrwt beam="2">  1       -2 0.41521043E-01 0.19782947E+04</pdfrwt>
<totfact> 0.34097450E+00</totfact>
</mgrwt>
</event>
<event>
 6    1  0.1603085E-006  0.2377295E+04  0.7818608E-02  0.8448053E-01
          1   -1    0    0  501    0  0.00000000000E+00  0.00000000000E+00  0.18240994968E+04  0.18240994968E+04  0.00000000000E+00 0. -1.
         -1   -1    0    0    0  501 -0.00000000000E+00 -0.00000000000E+00 -0.77456452810E+03  0.77456452810E+03  0.00000000000E+00 0.  1.
         23    2    1    2    0    0  0.56704985391E+03 -0.83076683393E+03  0.12134644227E+04  0.15795507166E+04  0.10375688940E+03 0.  0.
         11    1    3    3    0    0  0.53752498906E+03 -0.74662811246E+03  0.11326815184E+04  0.14592306446E+04  0.00000000000E+00 0. -1.
        -11    1    3    3    0    0  0.29524864847E+02 -0.84138721462E+02  0.80782904300E+02  0.12032007198E+03  0.00000000000E+00 0.  1.
         22    1    1    2    0    0 -0.56704985391E+03  0.83076683393E+03 -0.16392945401E+03  0.10191133083E+04  0.00000000000E+00 0.  1.
<mgrwt>
<rscale>  0 0.23772949E+04</rscale>
<asrwt>0</asrwt>
<pdfrwt beam="1">  1        1 0.28063069E+00 0.23772949E+04</pdfrwt>
<pdfrwt beam="2">  1       -1 0.11916377E+00 0.23772949E+04</pdfrwt>
<totfact> 0.22182074E+00</totfact>
</mgrwt>
</event>
<event>
 6    1  0.1603085E-006  0.2777024E+04  0.7818608E-02  0.8310437E-01
         -1   -1    0    0    0  501 -0.00000000000E+00  0.00000000000E+00  0.16192099426E+04  0.16192099426E+04  0.00000000000E+00 0. -1.
          1   -1    0    0  501    0  0.00000000000E+00 -0.00000000000E+00 -0.11906827027E+04  0.11906827027E+04  0.00000000000E+00 0.  1.
         23    2    1    2    0    0 -0.52475674065E+03  0.76832768535E+03  0.12552430704E+04  0.15652416367E+04  0.93000787735E+02 0.  0.
         13    1    3    3    0    0 -0.25132853281E+03  0.33894275843E+03  0.64190412773E+03  0.76817259395E+03  0.00000000000E+00 0. -1.
        -13    1    3    3    0    0 -0.27342820784E+03  0.42938492691E+03  0.61333894268E+03  0.79706904275E+03  0.00000000000E+00 0.  1.
         22    1    1    2    0    0  0.52475674065E+03 -0.76832768535E+03 -0.82671583047E+03  0.12446510086E+04  0.00000000000E+00 0.  1.
<mgrwt>
<rscale>  0 0.27770238E+04</rscale>
<asrwt>0</asrwt>
<pdfrwt beam="1">  1        1 0.18318195E+00 0.27770238E+04</pdfrwt>
<pdfrwt beam="2">  1       -1 0.24910922E+00 0.27770238E+04</pdfrwt>
<totfact> 0.66531364E-01</totfact>
</mgrwt>
</event>
<event>
 6    1  0.1603085E-006  0.6319635E+03  0.7818608E-02  0.9841225E-01
          2   -1    0    0  501    0  0.00000000000E+00  0.00000000000E+00  0.69509999127E+03  0.69509999127E+03  0.00000000000E+00 0. -1.
         -2   -1    0    0    0  501 -0.00000000000E+00 -0.00000000000E+00 -0.14364044062E+03  0.14364044062E+03  0.00000000000E+00 0.  1.
         23    2    1    2    0    0  0.15824354975E+03 -0.26188581513E+03  0.35194342924E+03  0.47345713922E+03  0.81684050395E+02 0.  0.
         11    1    3    3    0    0  0.95582704168E+02 -0.19871474488E+03  0.29308933835E+03  0.36677644884E+03  0.00000000000E+00 0. -1.
        -11    1    3    3    0    0  0.62660845582E+02 -0.63171070252E+02  0.58854090892E+02  0.10668069038E+03  0.00000000000E+00 0.  1.
         22    1    1    2    0    0 -0.15824354975E+03  0.26188581513E+03  0.19951612141E+03  0.36528329268E+03  0.00000000000E+00 0.  1.
<mgrwt>
<rscale>  0 0.63196351E+03</rscale>
<asrwt>0</asrwt>
<pdfrwt beam="1">  1        2 0.10693846E+00 0.63196351E+03</pdfrwt>
<pdfrwt beam="2">  1       -2 0.22098530E-01 0.63196351E+03</pdfrwt>
<totfact> 0.74350084E+02</totfact>
</mgrwt>
</event>
<event>
 6    1  0.1603085E-006  0.3743183E+04  0.7818608E-02  0.8058459E-01
          2   -1    0    0  501    0  0.00000000000E+00  0.00000000000E+00  0.42287657657E+04  0.42287657657E+04  0.00000000000E+00 0. -1.
         -2   -1    0    0    0  501 -0.00000000000E+00 -0.00000000000E+00 -0.82833993240E+03  0.82833993240E+03  0.00000000000E+00 0.  1.
         23    2    1    2    0    0  0.46335447836E+03  0.64853844394E+02  0.41479146045E+04  0.41752650907E+04  0.93485919116E+02 0.  0.
         13    1    3    3    0    0  0.17406358572E+03  0.26152715302E+02  0.19766211891E+04  0.19844428492E+04  0.00000000000E+00 0.  1.
        -13    1    3    3    0    0  0.28929089264E+03  0.38701129092E+02  0.21712934154E+04  0.21908222415E+04  0.00000000000E+00 0. -1.
         22    1    1    2    0    0 -0.46335447836E+03 -0.64853844394E+02 -0.74748877125E+03  0.88184060742E+03  0.00000000000E+00 0.  1.
<mgrwt>
<rscale>  0 0.37431834E+04</rscale>
<asrwt>0</asrwt>
<pdfrwt beam="1">  1        2 0.65057934E+00 0.37431834E+04</pdfrwt>
<pdfrwt beam="2">  1       -2 0.12743692E+00 0.37431834E+04</pdfrwt>
<totfact> 0.80396512E-02</totfact>
</mgrwt>
</event>
<event>
 6    1  0.1603085E-006  0.2302511E+04  0.7818608E-02  0.8476932E-01
          2   -1    0    0  501    0  0.00000000000E+00  0.00000000000E+00  0.16754921384E+04  0.16754921384E+04  0.00000000000E+00 0. -1.
         -2   -1    0    0    0  501 -0.00000000000E+00 -0.00000000000E+00 -0.79104484041E+03  0.79104484041E+03  0.00000000000E+00 0.  1.
         23    2    1    2    0    0  0.55640148651E+03  0.21751307001E+03 -0.60898118772E+03  0.85805222858E+03  0.92200814308E+02 0.  0.
         11    1    3    3    0    0  0.14345636011E+03  0.18560938632E+02 -0.17226834059E+03  0.22494580874E+03  0.00000000000E+00 0.  1.
        -11    1    3    3    0    0  0.41294512640E+03  0.19895213138E+03 -0.43671284713E+03  0.63310641984E+03  0.00000000000E+00 0. -1.
         22    1    1    2    0    0 -0.55640148651E+03 -0.21751307001E+03  0.14934284857E+04  0.16084847502E+04  0.00000000000E+00 0. -1.
<mgrwt>
<rscale>  0 0.23025112E+04</rscale>
<asrwt>0</asrwt>
<pdfrwt beam="1">  1        2 0.25776802E+00 0.23025112E+04</pdfrwt>
<pdfrwt beam="2">  1       -2 0.12169921E+00 0.23025112E+04</pdfrwt>
<totfact> 0.47037996E+00</totfact>
</mgrwt>
</event>
<event>
 6    1  0.1603085E-006  0.2102688E+04  0.7818608E-02  0.8560060E-01
         -2   -1    0    0    0  501 -0.00000000000E+00  0.00000000000E+00  0.49302450276E+03  0.49302450276E+03  0.00000000000E+00 0.  1.
          2   -1    0    0  501    0  0.00000000000E+00 -0.00000000000E+00 -0.22419251185E+04  0.22419251185E+04  0.00000000000E+00 0. -1.
         23    2    1    2    0    0  0.60652647478E+03  0.27807153340E+03  0.17690535012E+03  0.69683118495E+03  0.95289323266E+02 0.  0.
         13    1    3    3    0    0  0.22552538892E+03  0.10779335488E+03  0.11424452383E+03  0.27483253015E+03  0.00000000000E+00 0. -1.
        -13    1    3    3    0    0  0.38100108586E+03  0.17027817852E+03  0.62660826297E+02  0.42199865481E+03  0.00000000000E+00 0.  1.
         22    1    1    2    0    0 -0.60652647478E+03 -0.27807153340E+03 -0.19258059658E+04  0.20381184363E+04  0.00000000000E+00 0. -1.
<mgrwt>
<rscale>  0 0.21026878E+04</rscale>
<asrwt>0</asrwt>
<pdfrwt beam="1">  1        2 0.34491155E+00 0.21026878E+04</pdfrwt>
<pdfrwt beam="2">  1       -2 0.75849924E-01 0.21026878E+04</pdfrwt>
<totfact> 0.70164394E+00</totfact>
</mgrwt>
</event>
<event>
 6    1  0.1603085E-006  0.3471203E+04  0.7818608E-02  0.8120649E-01
         -2   -1    0    0    0  501 -0.00000000000E+00  0.00000000000E+00  0.11164391006E+04  0.11164391006E+04  0.00000000000E+00 0.  1.
          2   -1    0    0  501    0  0.00000000000E+00 -0.00000000000E+00 -0.26981428553E+04  0.26981428553E+04  0.00000000000E+00 0. -1.
         23    2    1    2    0    0  0.15480683576E+03  0.17259429936E+04 -0.87283386007E+03  0.19423263908E+04  0.89154290485E+02 0.  0.
         13    1    3    3    0    0  0.13802152370E+03  0.10817750615E+04 -0.53325033584E+03  0.12139370434E+04  0.00000000000E+00 0. -1.
        -13    1    3    3    0    0  0.16785312064E+02  0.64416793214E+03 -0.33958352423E+03  0.72838934741E+03  0.00000000000E+00 0.  1.
         22    1    1    2    0    0 -0.15480683576E+03 -0.17259429936E+04 -0.70886989467E+03  0.18722555651E+04  0.00000000000E+00 0.  1.
<mgrwt>
<rscale>  0 0.34712028E+04</rscale>
<asrwt>0</asrwt>
<pdfrwt beam="1">  1        2 0.41509889E+00 0.34712028E+04</pdfrwt>
<pdfrwt beam="2">  1       -2 0.17175986E+00 0.34712028E+04</pdfrwt>
<totfact> 0.45396087E-01</totfact>
</mgrwt>
</event>
<event>
 6    1  0.1603085E-006  0.1793797E+04  0.7818608E-02  0.8709605E-01
          2   -1    0    0  501    0  0.00000000000E+00  0.00000000000E+00  0.11831900163E+04  0.11831900163E+04  0.00000000000E+00 0.  1.
         -2   -1    0    0    0  501 -0.00000000000E+00 -0.00000000000E+00 -0.67987949938E+03  0.67987949938E+03  0.00000000000E+00 0. -1.
         23    2    1    2    0    0  0.43836225000E+03  0.77896006718E+03  0.21359330032E+03  0.92345453384E+03  0.90586586393E+02 0.  0.
         13    1    3    3    0    0  0.35029329901E+03  0.63613923400E+03  0.13704257314E+03  0.73902583663E+03  0.00000000000E+00 0. -1.
        -13    1    3    3    0    0  0.88068950997E+02  0.14282083318E+03  0.76550727177E+02  0.18442869720E+03  0.00000000000E+00 0.  1.
         22    1    1    2    0    0 -0.43836225000E+03 -0.77896006718E+03  0.28971721660E+03  0.93961498183E+03  0.00000000000E+00 0. -1.
<mgrwt>
<rscale>  0 0.17937967E+04</rscale>
<asrwt>0</asrwt>
<pdfrwt beam="1">  1        2 0.18202923E+00 0.17937967E+04</pdfrwt>
<pdfrwt beam="2">  1       -2 0.10459685E+00 0.17937967E+04</pdfrwt>
<totfact> 0.13587185E+01</totfact>
</mgrwt>
</event>
<event>
 6    1  0.1603085E-006  0.3720514E+04  0.7818608E-02  0.8063431E-01
          1   -1    0    0  501    0  0.00000000000E+00  0.00000000000E+00  0.11898353101E+04  0.11898353101E+04  0.00000000000E+00 0. -1.
         -1   -1    0    0    0  501 -0.00000000000E+00 -0.00000000000E+00 -0.29084320785E+04  0.29084320785E+04  0.00000000000E+00 0.  1.
         23    2    1    2    0    0  0.16768711602E+04 -0.79506182300E+03 -0.74232954015E+03  0.20013368005E+04  0.10136889355E+03 0.  0.
         13    1    3    3    0    0  0.12241844040E+04 -0.53012572289E+03 -0.53689252545E+03  0.14380244507E+04  0.00000000000E+00 0. -1.
        -13    1    3    3    0    0  0.45268675618E+03 -0.26493610011E+03 -0.20543701471E+03  0.56331234974E+03  0.00000000000E+00 0.  1.
         22    1    1    2    0    0 -0.16768711602E+04  0.79506182300E+03 -0.97626722822E+03  0.20969305880E+04  0.00000000000E+00 0.  1.
<mgrwt>
<rscale>  0 0.37205135E+04</rscale>
<asrwt>0</asrwt>
<pdfrwt beam="1">  1        1 0.18305159E+00 0.37205135E+04</pdfrwt>
<pdfrwt beam="2">  1       -1 0.44745109E+00 0.37205135E+04</pdfrwt>
<totfact> 0.29321011E-02</totfact>
</mgrwt>
</event>
<event>
 6    1  0.1603085E-006  0.2128370E+04  0.7818608E-02  0.8548848E-01
         -1   -1    0    0    0  501 -0.00000000000E+00  0.00000000000E+00  0.25847949827E+04  0.25847949827E+04  0.00000000000E+00 0. -1.
          1   -1    0    0  501    0  0.00000000000E+00 -0.00000000000E+00 -0.43813505880E+03  0.43813505880E+03  0.00000000000E+00 0.  1.
         23    2    1    2    0    0  0.13147873317E+03  0.83486353105E+03  0.19892947170E+04  0.21632512753E+04  0.89882347960E+02 0.  0.
         13    1    3    3    0    0  0.61297456546E+02  0.59252320016E+03  0.13288525380E+04  0.14562589703E+04  0.00000000000E+00 0. -1.
        -13    1    3    3    0    0  0.70181276622E+02  0.24234033089E+03  0.66044217895E+03  0.70699230498E+03  0.00000000000E+00 0.  1.
         22    1    1    2    0    0 -0.13147873317E+03 -0.83486353105E+03  0.15736520700E+03  0.85967876624E+03  0.00000000000E+00 0.  1.
<mgrwt>
<rscale>  0 0.21283696E+04</rscale>
<asrwt>0</asrwt>
<pdfrwt beam="1">  1        1 0.67405395E-01 0.21283696E+04</pdfrwt>
<pdfrwt beam="2">  1       -1 0.39766076E+00 0.21283696E+04</pdfrwt>
<totfact> 0.36194161E-01</totfact>
</mgrwt>
</event>
<event>
 6    1  0.1603085E-006  0.4858706E+04  0.7818608E-02  0.7850680E-01
         -2   -1    0    0    0  501 -0.00000000000E+00  0.00000000000E+00  0.23716015262E+04  0.23716015262E+04  0.00000000000E+00 0.  1.
          2   -1    0    0  501    0  0.00000000000E+00 -0.00000000000E+00 -0.24885112047E+04  0.24885112047E+04  0.00000000000E+00 0. -1.
         23    2    1    2    0    0  0.13762375250E+04  0.58234702088E+03  0.18563701594E+04  0.23848367671E+04  0.90434833030E+02 0.  0.
         11    1    3    3    0    0  0.61464382712E+03  0.22103898733E+03  0.85331296572E+03  0.10746107600E+04  0.00000000000E+00 0.  1.
        -11    1    3    3    0    0  0.76159369788E+03  0.36130803355E+03  0.10030571937E+04  0.13102260071E+04  0.00000000000E+00 0. -1.
         22    1    1    2    0    0 -0.13762375250E+04 -0.58234702088E+03 -0.19732798380E+04  0.24752759638E+04  0.00000000000E+00 0. -1.
<mgrwt>
<rscale>  0 0.48587064E+04</rscale>
<asrwt>0</asrwt>
<pdfrwt beam="1">  1        2 0.38284788E+00 0.48587064E+04</pdfrwt>
<pdfrwt beam="2">  1       -2 0.36486177E+00 0.48587064E+04</pdfrwt>
<totfact> 0.32593524E-02</totfact>
</mgrwt>
</event>
<event>
 6    1  0.1603085E-006  0.1770889E+04  0.7818608E-02  0.8721935E-01
          2   -1    0    0  501    0  0.00000000000E+00  0.00000000000E+00  0.19437589770E+04  0.19437589770E+04  0.00000000000E+00 0. -1.
         -2   -1    0    0    0  501 -0.00000000000E+00 -0.00000000000E+00 -0.40334827339E+03  0.40334827339E+03  0.00000000000E+00 0.  1.
         23    2    1    2    0    0 -0.40803259194E+03 -0.19460952066E+03 -0.23241242002E+03  0.51755394717E+03  0.97381177014E+02 0.  0.
         13    1    3    3    0    0 -0.14594244028E+03 -0.48156649438E+02 -0.33160054722E+02  0.15721910822E+03  0.00000000000E+00 0.  1.
        -13    1    3    3    0    0 -0.26209015166E+03 -0.14645287122E+03 -0.19925236530E+03  0.36033483895E+03  0.00000000000E+00 0. -1.
         22    1    1    2    0    0  0.40803259194E+03  0.19460952066E+03  0.17728231236E+04  0.18295533032E+04  0.00000000000E+00 0. -1.
<mgrwt>
<rscale>  0 0.17708888E+04</rscale>
<asrwt>0</asrwt>
<pdfrwt beam="1">  1        2 0.29903984E+00 0.17708888E+04</pdfrwt>
<pdfrwt beam="2">  1       -2 0.62053581E-01 0.17708888E+04</pdfrwt>
<totfact> 0.16382047E+01</totfact>
</mgrwt>
</event>
<event>
 6    1  0.1603085E-006  0.9363369E+03  0.7818608E-02  0.9381265E-01
          1   -1    0    0  501    0  0.00000000000E+00  0.00000000000E+00  0.58291387398E+03  0.58291387398E+03  0.00000000000E+00 0. -1.
         -1   -1    0    0    0  501 -0.00000000000E+00 -0.00000000000E+00 -0.37601042963E+03  0.37601042963E+03  0.00000000000E+00 0.  1.
         23    2    1    2    0    0  0.35254470972E+03 -0.13900357447E+03 -0.16920301217E+03  0.42500873659E+03  0.91613322086E+02 0.  0.
         13    1    3    3    0    0  0.21430047829E+03 -0.43739724028E+02 -0.12276046246E+03  0.25081465188E+03  0.00000000000E+00 0. -1.
        -13    1    3    3    0    0  0.13824423143E+03 -0.95263850443E+02 -0.46442549704E+02  0.17419408471E+03  0.00000000000E+00 0.  1.
         22    1    1    2    0    0 -0.35254470972E+03  0.13900357447E+03  0.37610645652E+03  0.53391556702E+03  0.00000000000E+00 0. -1.
<mgrwt>
<rscale>  0 0.93633690E+03</rscale>
<asrwt>0</asrwt>
<pdfrwt beam="1">  1        1 0.89679057E-01 0.93633690E+03</pdfrwt>
<pdfrwt beam="2">  1       -1 0.57847759E-01 0.93633690E+03</pdfrwt>
<totfact> 0.10875611E+02</totfact>
</mgrwt>
</event>
<event>
 6    1  0.1603085E-006  0.6149906E+03  0.7818608E-02  0.9874784E-01
          3   -1    0    0  501    0  0.00000000000E+00  0.00000000000E+00  0.74020602882E+02  0.74020602882E+02  0.00000000000E+00 0. -1.
         -3   -1    0    0    0  501 -0.00000000000E+00 -0.00000000000E+00 -0.12773924264E+04  0.12773924264E+04  0.00000000000E+00 0.  1.
         23    2    1    2    0    0  0.46904085042E+02 -0.26947426010E+03 -0.88820403861E+03  0.93410366837E+03  0.93951471544E+02 0.  0.
         13    1    3    3    0    0  0.57491996188E+02 -0.11030307103E+03 -0.30277919423E+03  0.32733367924E+03  0.00000000000E+00 0.  1.
        -13    1    3    3    0    0 -0.10587911146E+02 -0.15917118907E+03 -0.58542484438E+03  0.60676998913E+03  0.00000000000E+00 0. -1.
         22    1    1    2    0    0 -0.46904085042E+02  0.26947426010E+03 -0.31516778486E+03  0.41730936086E+03  0.00000000000E+00 0. -1.
<mgrwt>
<rscale>  0 0.61499059E+03</rscale>
<asrwt>0</asrwt>
<pdfrwt beam="1">  1        3 0.11387786E-01 0.61499059E+03</pdfrwt>
<pdfrwt beam="2">  1       -3 0.19652190E+00 0.61499059E+03</pdfrwt>
<totfact> 0.25294540E+01</totfact>
</mgrwt>
</event>
<event>
 6    1  0.1603085E-006  0.4752601E+03  0.7818608E-02  0.1020446E+00
          2   -1    0    0  501    0  0.00000000000E+00  0.00000000000E+00  0.82568440783E+03  0.82568440783E+03  0.00000000000E+00 0. -1.
         -2   -1    0    0    0  501 -0.00000000000E+00 -0.00000000000E+00 -0.68389377253E+02  0.68389377253E+02  0.00000000000E+00 0.  1.
         23    2    1    2    0    0  0.96886354550E+02  0.18335274288E+03  0.57307178234E+03  0.61668705286E+03  0.94268019129E+02 0.  0.
         13    1    3    3    0    0  0.46751441049E+02  0.14771341737E+02  0.16966626992E+03  0.17660841691E+03  0.00000000000E+00 0.  1.
        -13    1    3    3    0    0  0.50134913502E+02  0.16858140115E+03  0.40340551242E+03  0.44007863595E+03  0.00000000000E+00 0. -1.
         22    1    1    2    0    0 -0.96886354550E+02 -0.18335274288E+03  0.18422324823E+03  0.27738673222E+03  0.00000000000E+00 0.  1.
<mgrwt>
<rscale>  0 0.47526011E+03</rscale>
<asrwt>0</asrwt>
<pdfrwt beam="1">  1        2 0.12702836E+00 0.47526011E+03</pdfrwt>
<pdfrwt beam="2">  1       -2 0.10521443E-01 0.47526011E+03</pdfrwt>
<totfact> 0.20888313E+03</totfact>
</mgrwt>
</event>
<event>
 6    1  0.1603085E-006  0.2584218E+04  0.7818608E-02  0.8373582E-01
         -1   -1    0    0    0  501 -0.00000000000E+00  0.00000000000E+00  0.85541906444E+03  0.85541906444E+03  0.00000000000E+00 0.  1.
          1   -1    0    0  501    0  0.00000000000E+00 -0.00000000000E+00 -0.19517279241E+04  0.19517279241E+04  0.00000000000E+00 0. -1.
         23    2    1    2    0    0  0.92064010313E+03 -0.33488332986E+03  0.36274452540E+03  0.10497165277E+04  0.10293762088E+03 0.  0.
         13    1    3    3    0    0  0.71427334302E+03 -0.30198624557E+03  0.27078445048E+03  0.82140508867E+03  0.00000000000E+00 0. -1.
        -13    1    3    3    0    0  0.20636676011E+03 -0.32897084287E+02  0.91960074919E+02  0.22831143907E+03  0.00000000000E+00 0.  1.
         22    1    1    2    0    0 -0.92064010313E+03  0.33488332986E+03 -0.14590533851E+04  0.17574304608E+04  0.00000000000E+00 0. -1.
<mgrwt>
<rscale>  0 0.25842177E+04</rscale>
<asrwt>0</asrwt>
<pdfrwt beam="1">  1        1 0.30026583E+00 0.25842177E+04</pdfrwt>
<pdfrwt beam="2">  1       -1 0.13160293E+00 0.25842177E+04</pdfrwt>
<totfact> 0.13931623E+00</totfact>
</mgrwt>
</event>
<event>
 6    1  0.1603085E-006  0.3357169E+04  0.7818608E-02  0.8148499E-01
         -2   -1    0    0    0  501 -0.00000000000E+00  0.00000000000E+00  0.18065079746E+04  0.18065079746E+04  0.00000000000E+00 0.  1.
          2   -1    0    0  501    0  0.00000000000E+00 -0.00000000000E+00 -0.15597196275E+04  0.15597196275E+04  0.00000000000E+00 0. -1.
         23    2    1    2    0    0 -0.36017275157E+03 -0.16198155692E+04  0.36882353895E+03  0.17023707942E+04  0.92242228748E+02 0.  0.
         11    1    3    3    0    0 -0.48833160911E+02 -0.30180314177E+03  0.99959787747E+02  0.32165474216E+03  0.00000000000E+00 0.  1.
        -11    1    3    3    0    0 -0.31133959066E+03 -0.13180124274E+04  0.26886375121E+03  0.13807160520E+04  0.00000000000E+00 0. -1.
         22    1    1    2    0    0  0.36017275157E+03  0.16198155692E+04 -0.12203519177E+03  0.16638568079E+04  0.00000000000E+00 0.  1.
<mgrwt>
<rscale>  0 0.33571690E+04</rscale>
<asrwt>0</asrwt>
<pdfrwt beam="1">  1        2 0.23995687E+00 0.33571690E+04</pdfrwt>
<pdfrwt beam="2">  1       -2 0.27792430E+00 0.33571690E+04</pdfrwt>
<totfact> 0.42342556E-01</totfact>
</mgrwt>
</event>
<event>
 6    1  0.2229280E-006  0.3722907E+04  0.7818608E-02  0.8062904E-01
         -3   -1    0    0    0  501 -0.00000000000E+00  0.00000000000E+00  0.25614198012E+04  0.25614198012E+04  0.00000000000E+00 0.  1.
          3   -1    0    0  501    0  0.00000000000E+00 -0.00000000000E+00 -0.13527687055E+04  0.13527687055E+04  0.00000000000E+00 0. -1.
         23    2    1    2    0    0 -0.66912019282E+03  0.99885655430E+03 -0.88787731433E+03  0.14973998064E+04  0.91890185863E+02 0.  0.
         13    1    3    3    0    0 -0.29850088273E+03  0.36508771972E+03 -0.34918623023E+03  0.58679028917E+03  0.00000000000E+00 0.  1.
        -13    1    3    3    0    0 -0.37061931008E+03  0.63376883458E+03 -0.53869108410E+03  0.91060951718E+03  0.00000000000E+00 0. -1.
         22    1    1    2    0    0  0.66912019282E+03 -0.99885655430E+03  0.20965284100E+04  0.24167887004E+04  0.00000000000E+00 0.  1.
<mgrwt>
<rscale>  0 0.37229067E+04</rscale>
<asrwt>0</asrwt>
<pdfrwt beam="1">  1        3 0.20811826E+00 0.37229067E+04</pdfrwt>
<pdfrwt beam="2">  1       -3 0.39406459E+00 0.37229067E+04</pdfrwt>
<totfact> 0.31115840E-03</totfact>
</mgrwt>
</event>
<event>
 6    1  0.1603085E-006  0.5128843E+04  0.7818608E-02  0.7808934E-01
          2   -1    0    0  501    0  0.00000000000E+00  0.00000000000E+00  0.28128454896E+04  0.28128454896E+04  0.00000000000E+00 0. -1.
         -2   -1    0    0    0  501 -0.00000000000E+00 -0.00000000000E+00 -0.23379380650E+04  0.23379380650E+04  0.00000000000E+00 0.  1.
         23    2    1    2    0    0  0.12017597350E+04  0.41489014907E+03  0.24731984354E+04  0.27823394957E+04  0.91336038211E+02 0.  0.
         13    1    3    3    0    0  0.15618994128E+03  0.86457083490E+02  0.36273905876E+03  0.40428919079E+03  0.00000000000E+00 0. -1.
        -13    1    3    3    0    0  0.10455697937E+04  0.32843306558E+03  0.21104593767E+04  0.23780503049E+04  0.00000000000E+00 0.  1.
         22    1    1    2    0    0 -0.12017597350E+04 -0.41489014907E+03 -0.19982910108E+04  0.23684440589E+04  0.00000000000E+00 0.  1.
<mgrwt>
<rscale>  0 0.51288434E+04</rscale>
<asrwt>0</asrwt>
<pdfrwt beam="1">  1        2 0.43274546E+00 0.51288434E+04</pdfrwt>
<pdfrwt beam="2">  1       -2 0.35968278E+00 0.51288434E+04</pdfrwt>
<totfact> 0.22112682E-02</totfact>
</mgrwt>
</event>
<event>
 6    1  0.1603085E-006  0.9914760E+03  0.7818608E-02  0.9317943E-01
         -1   -1    0    0    0  501 -0.00000000000E+00  0.00000000000E+00  0.41495673152E+03  0.41495673152E+03  0.00000000000E+00 0.  1.
          1   -1    0    0  501    0  0.00000000000E+00 -0.00000000000E+00 -0.59224525975E+03  0.59224525975E+03  0.00000000000E+00 0. -1.
         23    2    1    2    0    0  0.42509860369E+03  0.20631549726E+03  0.48019870163E+02  0.48371485518E+03  0.91647399943E+02 0.  0.
         13    1    3    3    0    0  0.17894915906E+03  0.97974881978E+02 -0.23679564083E+02  0.20538403244E+03  0.00000000000E+00 0.  1.
        -13    1    3    3    0    0  0.24614944463E+03  0.10834061528E+03  0.71699434246E+02  0.27833082273E+03  0.00000000000E+00 0. -1.
         22    1    1    2    0    0 -0.42509860369E+03 -0.20631549726E+03 -0.22530839839E+03  0.52348713609E+03  0.00000000000E+00 0. -1.
<mgrwt>
<rscale>  0 0.99147599E+03</rscale>
<asrwt>0</asrwt>
<pdfrwt beam="1">  1        1 0.91114656E-01 0.99147599E+03</pdfrwt>
<pdfrwt beam="2">  1       -1 0.63839497E-01 0.99147599E+03</pdfrwt>
<totfact> 0.87138042E+01</totfact>
</mgrwt>
</event>
<event>
 6    1  0.1603085E-006  0.2676752E+04  0.7818608E-02  0.8342588E-01
         -1   -1    0    0    0  501 -0.00000000000E+00  0.00000000000E+00  0.91998991571E+03  0.91998991571E+03  0.00000000000E+00 0.  1.
          1   -1    0    0  501    0  0.00000000000E+00 -0.00000000000E+00 -0.19470325591E+04  0.19470325591E+04  0.00000000000E+00 0. -1.
         23    2    1    2    0    0  0.11125506632E+04 -0.44079292176E+03  0.12402210296E+03  0.12065955935E+04  0.91782711944E+02 0.  0.
         11    1    3    3    0    0  0.18112889995E+03 -0.10079660240E+03  0.43449225647E+02  0.21179109675E+03  0.00000000000E+00 0. -1.
        -11    1    3    3    0    0  0.93142176321E+03 -0.33999631936E+03  0.80572877313E+02  0.99480449673E+03  0.00000000000E+00 0.  1.
         22    1    1    2    0    0 -0.11125506632E+04  0.44079292176E+03 -0.11510647464E+04  0.16604268813E+04  0.00000000000E+00 0. -1.
<mgrwt>
<rscale>  0 0.26767520E+04</rscale>
<asrwt>0</asrwt>
<pdfrwt beam="1">  1        1 0.29954347E+00 0.26767520E+04</pdfrwt>
<pdfrwt beam="2">  1       -1 0.14153691E+00 0.26767520E+04</pdfrwt>
<totfact> 0.11534783E+00</totfact>
</mgrwt>
</event>
<event>
 6    1  0.1603085E-006  0.1595104E+04  0.7818608E-02  0.8823562E-01
          4   -1    0    0  501    0  0.00000000000E+00  0.00000000000E+00  0.87231048802E+03  0.87231048802E+03  0.00000000000E+00 0. -1.
         -4   -1    0    0    0  501 -0.00000000000E+00 -0.00000000000E+00 -0.72920004302E+03  0.72920004302E+03  0.00000000000E+00 0.  1.
         23    2    1    2    0    0  0.78290676435E+03 -0.78371567078E+02  0.18566413637E+03  0.81354103871E+03  0.91064515219E+02 0.  0.
         11    1    3    3    0    0  0.59378842941E+03 -0.61210672321E+02  0.10014430817E+03  0.60527706694E+03  0.00000000000E+00 0. -1.
        -11    1    3    3    0    0  0.18911833494E+03 -0.17160894757E+02  0.85519828200E+02  0.20826397177E+03  0.00000000000E+00 0.  1.
         22    1    1    2    0    0 -0.78290676435E+03  0.78371567078E+02 -0.42553691364E+02  0.78796949233E+03  0.00000000000E+00 0. -1.
<mgrwt>
<rscale>  0 0.15951036E+04</rscale>
<asrwt>0</asrwt>
<pdfrwt beam="1">  1        4 0.13420161E+00 0.15951036E+04</pdfrwt>
<pdfrwt beam="2">  1       -4 0.11218462E+00 0.15951036E+04</pdfrwt>
<totfact> 0.47828913E-01</totfact>
</mgrwt>
</event>
<event>
 6    1  0.1603085E-006  0.3553364E+04  0.7818608E-02  0.8101259E-01
         -1   -1    0    0    0  501 -0.00000000000E+00  0.00000000000E+00  0.13995680272E+04  0.13995680272E+04  0.00000000000E+00 0.  1.
          1   -1    0    0  501    0  0.00000000000E+00 -0.00000000000E+00 -0.22554090293E+04  0.22554090293E+04  0.00000000000E+00 0. -1.
         23    2    1    2    0    0 -0.48443349955E+03 -0.50927695589E+03  0.12487549382E+04  0.14361118273E+04  0.94812717754E+02 0.  0.
         13    1    3    3    0    0 -0.42895413587E+03 -0.44966891156E+03  0.10333150996E+04  0.12057959511E+04  0.00000000000E+00 0.  1.
        -13    1    3    3    0    0 -0.55479363680E+02 -0.59608044334E+02  0.21543983863E+03  0.23031587616E+03  0.00000000000E+00 0. -1.
         22    1    1    2    0    0  0.48443349955E+03  0.50927695589E+03 -0.21045959404E+04  0.22188652292E+04  0.00000000000E+00 0. -1.
<mgrwt>
<rscale>  0 0.35533637E+04</rscale>
<asrwt>0</asrwt>
<pdfrwt beam="1">  1        1 0.34698600E+00 0.35533637E+04</pdfrwt>
<pdfrwt beam="2">  1       -1 0.21531816E+00 0.35533637E+04</pdfrwt>
<totfact> 0.19190185E-01</totfact>
</mgrwt>
</event>
<event>
 6    1  0.1603085E-006  0.1703935E+04  0.7818608E-02  0.8759123E-01
          1   -1    0    0  501    0  0.00000000000E+00  0.00000000000E+00  0.94617782734E+03  0.94617782734E+03  0.00000000000E+00 0. -1.
         -1   -1    0    0    0  501 -0.00000000000E+00 -0.00000000000E+00 -0.76713775802E+03  0.76713775802E+03  0.00000000000E+00 0.  1.
         23    2    1    2    0    0 -0.68796281524E+02 -0.64119797559E+03 -0.46532845928E+03  0.80168047583E+03  0.10145559647E+03 0.  0.
         13    1    3    3    0    0 -0.43164787899E+01 -0.46415294833E+03 -0.32157024212E+03  0.56468045128E+03  0.00000000000E+00 0.  1.
        -13    1    3    3    0    0 -0.64479802734E+02 -0.17704502726E+03 -0.14375821716E+03  0.23700002456E+03  0.00000000000E+00 0. -1.
         22    1    1    2    0    0  0.68796281524E+02  0.64119797559E+03  0.64436852861E+03  0.91163510953E+03  0.00000000000E+00 0. -1.
<mgrwt>
<rscale>  0 0.17039351E+04</rscale>
<asrwt>0</asrwt>
<pdfrwt beam="1">  1        1 0.14556582E+00 0.17039351E+04</pdfrwt>
<pdfrwt beam="2">  1       -1 0.11802119E+00 0.17039351E+04</pdfrwt>
<totfact> 0.10240360E+01</totfact>
</mgrwt>
</event>
<event>
 6    1  0.1603085E-006  0.2134574E+04  0.7818608E-02  0.8546164E-01
         -2   -1    0    0    0  501 -0.00000000000E+00  0.00000000000E+00  0.10220301388E+04  0.10220301388E+04  0.00000000000E+00 0.  1.
          2   -1    0    0  501    0  0.00000000000E+00 -0.00000000000E+00 -0.11145480528E+04  0.11145480528E+04  0.00000000000E+00 0. -1.
         23    2    1    2    0    0 -0.79702280488E+02  0.98801118122E+03 -0.43716535728E+03  0.10871495814E+04  0.90896177394E+02 0.  0.
         11    1    3    3    0    0 -0.19429032587E+02  0.37818919244E+03 -0.21408811011E+03  0.43501525430E+03  0.00000000000E+00 0. -1.
        -11    1    3    3    0    0 -0.60273247901E+02  0.60982198879E+03 -0.22307724718E+03  0.65213432713E+03  0.00000000000E+00 0.  1.
         22    1    1    2    0    0  0.79702280488E+02 -0.98801118122E+03  0.34464744332E+03  0.10494286102E+04  0.00000000000E+00 0.  1.
<mgrwt>
<rscale>  0 0.21345742E+04</rscale>
<asrwt>0</asrwt>
<pdfrwt beam="1">  1        2 0.17146893E+00 0.21345742E+04</pdfrwt>
<pdfrwt beam="2">  1       -2 0.15723541E+00 0.21345742E+04</pdfrwt>
<totfact> 0.51794598E+00</totfact>
</mgrwt>
</event>
<event>
 6    1  0.1603085E-006  0.1406141E+04  0.7818608E-02  0.8949385E-01
          1   -1    0    0  501    0  0.00000000000E+00  0.00000000000E+00  0.57732991888E+03  0.57732991888E+03  0.00000000000E+00 0. -1.
         -1   -1    0    0    0  501 -0.00000000000E+00 -0.00000000000E+00 -0.85619687930E+03  0.85619687930E+03  0.00000000000E+00 0.  1.
         23    2    1    2    0    0  0.69814733380E+03 -0.12856074917E+02 -0.88025092993E+02  0.70965139680E+03  0.91003899033E+02 0.  0.
         11    1    3    3    0    0  0.70430574645E+02 -0.44270436151E-02 -0.37453031166E+02  0.79769639638E+02  0.00000000000E+00 0.  1.
        -11    1    3    3    0    0  0.62771675915E+03 -0.12851647873E+02 -0.50572061827E+02  0.62988175717E+03  0.00000000000E+00 0. -1.
         22    1    1    2    0    0 -0.69814733380E+03  0.12856074917E+02 -0.19084186743E+03  0.72387540137E+03  0.00000000000E+00 0.  1.
<mgrwt>
<rscale>  0 0.14061409E+04</rscale>
<asrwt>0</asrwt>
<pdfrwt beam="1">  1        1 0.88819988E-01 0.14061409E+04</pdfrwt>
<pdfrwt beam="2">  1       -1 0.13172260E+00 0.14061409E+04</pdfrwt>
<totfact> 0.17310332E+01</totfact>
</mgrwt>
</event>
<event>
 6    1  0.1603085E-006  0.1435309E+04  0.7818608E-02  0.8928649E-01
         -2   -1    0    0    0  501 -0.00000000000E+00  0.00000000000E+00  0.13406567487E+04  0.13406567487E+04  0.00000000000E+00 0. -1.
          2   -1    0    0  501    0  0.00000000000E+00 -0.00000000000E+00 -0.38416113651E+03  0.38416113651E+03  0.00000000000E+00 0.  1.
         23    2    1    2    0    0 -0.28025013822E+03  0.29468401184E+02 -0.30885779982E+03  0.42846616444E+03  0.93710121730E+02 0.  0.
         13    1    3    3    0    0 -0.28346546942E+03  0.17445706671E+02 -0.29026059304E+03  0.40608895197E+03  0.00000000000E+00 0. -1.
        -13    1    3    3    0    0  0.32153311965E+01  0.12022694513E+02 -0.18597206778E+02  0.22377212472E+02  0.00000000000E+00 0.  1.
         22    1    1    2    0    0  0.28025013822E+03 -0.29468401184E+02  0.12653534120E+04  0.12963517207E+04  0.00000000000E+00 0. -1.
<mgrwt>
<rscale>  0 0.14353093E+04</rscale>
<asrwt>0</asrwt>
<pdfrwt beam="1">  1        2 0.59101714E-01 0.14353093E+04</pdfrwt>
<pdfrwt beam="2">  1       -2 0.20625488E+00 0.14353093E+04</pdfrwt>
<totfact> 0.97737166E+00</totfact>
</mgrwt>
</event>
<event>
 6    1  0.1603085E-006  0.2168497E+04  0.7818608E-02  0.8531656E-01
          1   -1    0    0  501    0  0.00000000000E+00  0.00000000000E+00  0.27847092814E+04  0.27847092814E+04  0.00000000000E+00 0. -1.
         -1   -1    0    0    0  501 -0.00000000000E+00 -0.00000000000E+00 -0.42216084282E+03  0.42216084282E+03  0.00000000000E+00 0.  1.
         23    2    1    2    0    0 -0.57315969180E+03 -0.73763478322E+03  0.37487906218E+03  0.10106354702E+04  0.90733877898E+02 0.  0.
         13    1    3    3    0    0 -0.12206215629E+03 -0.22129634149E+03  0.92362940992E+02  0.26907648286E+03  0.00000000000E+00 0.  1.
        -13    1    3    3    0    0 -0.45109753551E+03 -0.51633844172E+03  0.28251612119E+03  0.74155898732E+03  0.00000000000E+00 0. -1.
         22    1    1    2    0    0  0.57315969180E+03  0.73763478322E+03  0.19876693764E+04  0.21962346540E+04  0.00000000000E+00 0. -1.
<mgrwt>
<rscale>  0 0.21684974E+04</rscale>
<asrwt>0</asrwt>
<pdfrwt beam="1">  1        1 0.42841680E+00 0.21684974E+04</pdfrwt>
<pdfrwt beam="2">  1       -1 0.64947824E-01 0.21684974E+04</pdfrwt>
<totfact> 0.18788832E+00</totfact>
</mgrwt>
</event>
<event>
 6    1  0.1603085E-006  0.2974664E+04  0.7818608E-02  0.8251003E-01
          2   -1    0    0  501    0  0.00000000000E+00  0.00000000000E+00  0.14688857412E+04  0.14688857412E+04  0.00000000000E+00 0. -1.
         -2   -1    0    0    0  501 -0.00000000000E+00 -0.00000000000E+00 -0.15060094293E+04  0.15060094293E+04  0.00000000000E+00 0.  1.
         23    2    1    2    0    0 -0.14820328897E+04 -0.27503768154E+01  0.89234694462E+02  0.14874828229E+04  0.90627076744E+02 0.  0.
         13    1    3    3    0    0 -0.52211109824E+03  0.26253901190E+02  0.65213104769E+02  0.52682256526E+03  0.00000000000E+00 0.  1.
        -13    1    3    3    0    0 -0.95992179150E+03 -0.29004278005E+02  0.24021589693E+02  0.96066025769E+03  0.00000000000E+00 0. -1.
         22    1    1    2    0    0  0.14820328897E+04  0.27503768154E+01 -0.12635838257E+03  0.14874123476E+04  0.00000000000E+00 0.  1.
<mgrwt>
<rscale>  0 0.29746635E+04</rscale>
<asrwt>0</asrwt>
<pdfrwt beam="1">  1        2 0.22598242E+00 0.29746635E+04</pdfrwt>
<pdfrwt beam="2">  1       -2 0.23169376E+00 0.29746635E+04</pdfrwt>
<totfact> 0.94619635E-01</totfact>
</mgrwt>
</event>
<event>
 6    1  0.1603085E-006  0.5279665E+04  0.7818608E-02  0.7786757E-01
          2   -1    0    0  501    0  0.00000000000E+00  0.00000000000E+00  0.24810141661E+04  0.24810141661E+04  0.00000000000E+00 0. -1.
         -2   -1    0    0    0  501 -0.00000000000E+00 -0.00000000000E+00 -0.28088176624E+04  0.28088176624E+04  0.00000000000E+00 0.  1.
         23    2    1    2    0    0 -0.18159773037E+04  0.12940438939E+04  0.12501918538E+04  0.25580938300E+04  0.92418638541E+02 0.  0.
         13    1    3    3    0    0 -0.40278340584E+03  0.28583597015E+03  0.32149568607E+03  0.58931837746E+03  0.00000000000E+00 0. -1.
        -13    1    3    3    0    0 -0.14131938979E+04  0.10082079238E+04  0.92869616775E+03  0.19687754526E+04  0.00000000000E+00 0.  1.
         22    1    1    2    0    0  0.18159773037E+04 -0.12940438939E+04 -0.15779953501E+04  0.27317379984E+04  0.00000000000E+00 0.  1.
<mgrwt>
<rscale>  0 0.52796653E+04</rscale>
<asrwt>0</asrwt>
<pdfrwt beam="1">  1        2 0.38169449E+00 0.52796653E+04</pdfrwt>
<pdfrwt beam="2">  1       -2 0.43212580E+00 0.52796653E+04</pdfrwt>
<totfact> 0.11615827E-02</totfact>
</mgrwt>
</event>
<event>
 6    1  0.1603085E-006  0.5858203E+03  0.7818608E-02  0.9935269E-01
          2   -1    0    0  501    0  0.00000000000E+00  0.00000000000E+00  0.67902038477E+03  0.67902038477E+03  0.00000000000E+00 0. -1.
         -2   -1    0    0    0  501 -0.00000000000E+00 -0.00000000000E+00 -0.12635315191E+03  0.12635315191E+03  0.00000000000E+00 0.  1.
         23    2    1    2    0    0  0.48751301051E+02  0.25947124154E+03  0.13299071396E+03  0.30956067374E+03  0.91865478758E+02 0.  0.
         13    1    3    3    0    0 -0.25692404440E+01  0.59227547194E+02 -0.73059771153E+01  0.59731739006E+02  0.00000000000E+00 0.  1.
        -13    1    3    3    0    0  0.51320541495E+02  0.20024369434E+03  0.14029669107E+03  0.24982893473E+03  0.00000000000E+00 0. -1.
         22    1    1    2    0    0 -0.48751301051E+02 -0.25947124154E+03  0.41967651891E+03  0.49581286294E+03  0.00000000000E+00 0.  1.
<mgrwt>
<rscale>  0 0.58582033E+03</rscale>
<asrwt>0</asrwt>
<pdfrwt beam="1">  1        2 0.10446467E+00 0.58582033E+03</pdfrwt>
<pdfrwt beam="2">  1       -2 0.19438947E-01 0.58582033E+03</pdfrwt>
<totfact> 0.95919138E+02</totfact>
</mgrwt>
</event>
<event>
 6    1  0.1603085E-006  0.2264909E+04  0.7818608E-02  0.8491887E-01
         -2   -1    0    0    0  501 -0.00000000000E+00  0.00000000000E+00  0.37184942023E+03  0.37184942023E+03  0.00000000000E+00 0.  1.
          2   -1    0    0  501    0  0.00000000000E+00 -0.00000000000E+00 -0.34488516707E+04  0.34488516707E+04  0.00000000000E+00 0. -1.
         23    2    1    2    0    0  0.98907794153E+03 -0.49371303822E+03 -0.19409416428E+04  0.22355634178E+04  0.91986932252E+02 0.  0.
         13    1    3    3    0    0  0.51656102442E+03 -0.20675167547E+03 -0.98371684642E+03  0.11301682977E+04  0.00000000000E+00 0. -1.
        -13    1    3    3    0    0  0.47251691711E+03 -0.28696136275E+03 -0.95722479641E+03  0.11053951201E+04  0.00000000000E+00 0.  1.
         22    1    1    2    0    0 -0.98907794153E+03  0.49371303822E+03 -0.11360606077E+04  0.15851376731E+04  0.00000000000E+00 0. -1.
<mgrwt>
<rscale>  0 0.22649093E+04</rscale>
<asrwt>0</asrwt>
<pdfrwt beam="1">  1        2 0.53059254E+00 0.22649093E+04</pdfrwt>
<pdfrwt beam="2">  1       -2 0.57207605E-01 0.22649093E+04</pdfrwt>
<totfact> 0.23036827E+00</totfact>
</mgrwt>
</event>
<event>
 6    1  0.1603085E-006  0.2806043E+04  0.7818608E-02  0.8301395E-01
          2   -1    0    0  501    0  0.00000000000E+00  0.00000000000E+00  0.35062910021E+04  0.35062910021E+04  0.00000000000E+00 0. -1.
         -2   -1    0    0    0  501 -0.00000000000E+00 -0.00000000000E+00 -0.56141078107E+03  0.56141078107E+03  0.00000000000E+00 0.  1.
         23    2    1    2    0    0 -0.61045873440E+03  0.12613037844E+04  0.15148510587E+04  0.20655702920E+04  0.90883431380E+02 0.  0.
         13    1    3    3    0    0 -0.26301494120E+03  0.57552041207E+03  0.62093326053E+03  0.88654312813E+03  0.00000000000E+00 0.  1.
        -13    1    3    3    0    0 -0.34744379320E+03  0.68578337233E+03  0.89391779818E+03  0.11790271639E+04  0.00000000000E+00 0. -1.
         22    1    1    2    0    0  0.61045873440E+03 -0.12613037844E+04  0.14300291623E+04  0.20021314912E+04  0.00000000000E+00 0.  1.
<mgrwt>
<rscale>  0 0.28060432E+04</rscale>
<asrwt>0</asrwt>
<pdfrwt beam="1">  1        2 0.53942937E+00 0.28060432E+04</pdfrwt>
<pdfrwt beam="2">  1       -2 0.86370892E-01 0.28060432E+04</pdfrwt>
<totfact> 0.81293761E-01</totfact>
</mgrwt>
</event>
<event>
 6    1  0.1603085E-006  0.2781593E+04  0.7818608E-02  0.8309006E-01
          1   -1    0    0  501    0  0.00000000000E+00  0.00000000000E+00  0.24467457875E+04  0.24467457875E+04  0.00000000000E+00 0.  1.
         -1   -1    0    0    0  501 -0.00000000000E+00 -0.00000000000E+00 -0.79056619442E+03  0.79056619442E+03  0.00000000000E+00 0. -1.
         23    2    1    2    0    0  0.58083731350E+03 -0.71382196249E+03 -0.38226543789E+03  0.10007584004E+04  0.92069169719E+02 0.  0.
         13    1    3    3    0    0  0.44051733634E+03 -0.51200192066E+03 -0.31883994723E+03  0.74690053041E+03  0.00000000000E+00 0. -1.
        -13    1    3    3    0    0  0.14031997716E+03 -0.20182004183E+03 -0.63425490662E+02  0.25385786995E+03  0.00000000000E+00 0.  1.
         22    1    1    2    0    0 -0.58083731350E+03  0.71382196249E+03  0.20384450309E+04  0.22365535815E+04  0.00000000000E+00 0.  1.
<mgrwt>
<rscale>  0 0.27815927E+04</rscale>
<asrwt>0</asrwt>
<pdfrwt beam="1">  1        1 0.37642243E+00 0.27815927E+04</pdfrwt>
<pdfrwt beam="2">  1       -1 0.12162557E+00 0.27815927E+04</pdfrwt>
<totfact> 0.76563058E-01</totfact>
</mgrwt>
</event>
<event>
 6    1  0.1603085E-006  0.2260494E+04  0.7818608E-02  0.8493663E-01
          2   -1    0    0  501    0  0.00000000000E+00  0.00000000000E+00  0.12320244181E+04  0.12320244181E+04  0.00000000000E+00 0. -1.
         -2   -1    0    0    0  501 -0.00000000000E+00 -0.00000000000E+00 -0.10368775100E+04  0.10368775100E+04  0.00000000000E+00 0.  1.
         23    2    1    2    0    0  0.19350566176E+01 -0.97599515478E+03 -0.47069709332E+03  0.10874119702E+04  0.91316771037E+02 0.  0.
         11    1    3    3    0    0 -0.26690434238E+02 -0.74220010493E+03 -0.32685922177E+03  0.81142487385E+03  0.00000000000E+00 0. -1.
        -11    1    3    3    0    0  0.28625490856E+02 -0.23379504985E+03 -0.14383787156E+03  0.27598709635E+03  0.00000000000E+00 0.  1.
         22    1    1    2    0    0 -0.19350566176E+01  0.97599515478E+03  0.66584400143E+03  0.11814899580E+04  0.00000000000E+00 0. -1.
<mgrwt>
<rscale>  0 0.22604941E+04</rscale>
<asrwt>0</asrwt>
<pdfrwt beam="1">  1        2 0.18954222E+00 0.22604941E+04</pdfrwt>
<pdfrwt beam="2">  1       -2 0.15951962E+00 0.22604941E+04</pdfrwt>
<totfact> 0.41873522E+00</totfact>
</mgrwt>
</event>
<event>
 6    1  0.1603085E-006  0.2931692E+04  0.7818608E-02  0.8263510E-01
         -2   -1    0    0    0  501 -0.00000000000E+00  0.00000000000E+00  0.15271090497E+04  0.15271090497E+04  0.00000000000E+00 0.  1.
          2   -1    0    0  501    0  0.00000000000E+00 -0.00000000000E+00 -0.14070404479E+04  0.14070404479E+04  0.00000000000E+00 0. -1.
         23    2    1    2    0    0 -0.29857148614E+03 -0.59300839271E+03  0.13665687114E+04  0.15218583062E+04  0.87970307387E+02 0.  0.
         11    1    3    3    0    0 -0.14494976273E+03 -0.20251307908E+03  0.46804750434E+03  0.53017963676E+03  0.00000000000E+00 0. -1.
        -11    1    3    3    0    0 -0.15362172341E+03 -0.39049531362E+03  0.89852120703E+03  0.99167866941E+03  0.00000000000E+00 0.  1.
         22    1    1    2    0    0  0.29857148614E+03  0.59300839271E+03 -0.12465001096E+04  0.14122911915E+04  0.00000000000E+00 0. -1.
<mgrwt>
<rscale>  0 0.29316918E+04</rscale>
<asrwt>0</asrwt>
<pdfrwt beam="1">  1        2 0.21646776E+00 0.29316918E+04</pdfrwt>
<pdfrwt beam="2">  1       -2 0.23493985E+00 0.29316918E+04</pdfrwt>
<totfact> 0.98286258E-01</totfact>
</mgrwt>
</event>
<event>
 6    1  0.1603085E-006  0.3104468E+04  0.7818608E-02  0.8214513E-01
         -2   -1    0    0    0  501 -0.00000000000E+00  0.00000000000E+00  0.61935573471E+03  0.61935573471E+03  0.00000000000E+00 0.  1.
          2   -1    0    0  501    0  0.00000000000E+00 -0.00000000000E+00 -0.38902217067E+04  0.38902217067E+04  0.00000000000E+00 0. -1.
         23    2    1    2    0    0 -0.86137114234E+03 -0.86404599724E+03 -0.24681824026E+03  0.12486879287E+04  0.98825955052E+02 0.  0.
         11    1    3    3    0    0 -0.29163968635E+03 -0.30139603988E+03 -0.13255885968E+03  0.43984671283E+03  0.00000000000E+00 0. -1.
        -11    1    3    3    0    0 -0.56973145599E+03 -0.56264995736E+03 -0.11425938058E+03  0.80884121588E+03  0.00000000000E+00 0.  1.
         22    1    1    2    0    0  0.86137114234E+03  0.86404599724E+03 -0.30240477318E+04  0.32608895127E+04  0.00000000000E+00 0. -1.
<mgrwt>
<rscale>  0 0.31044685E+04</rscale>
<asrwt>0</asrwt>
<pdfrwt beam="1">  1        2 0.59849566E+00 0.31044685E+04</pdfrwt>
<pdfrwt beam="2">  1       -2 0.95285495E-01 0.31044685E+04</pdfrwt>
<totfact> 0.32824323E-01</totfact>
</mgrwt>
</event>
<event>
 6    1  0.1603085E-006  0.1888382E+04  0.7818608E-02  0.8660661E-01
         -1   -1    0    0    0  501 -0.00000000000E+00  0.00000000000E+00  0.62046670063E+03  0.62046670063E+03  0.00000000000E+00 0.  1.
          1   -1    0    0  501    0  0.00000000000E+00 -0.00000000000E+00 -0.14368156732E+04  0.14368156732E+04  0.00000000000E+00 0. -1.
         23    2    1    2    0    0  0.47730030609E+03 -0.80109020140E+03 -0.55386803311E+03  0.10885422969E+04  0.92700815291E+02 0.  0.
         13    1    3    3    0    0  0.15665911409E+03 -0.26522302197E+03 -0.13321793666E+03  0.33560743147E+03  0.00000000000E+00 0. -1.
        -13    1    3    3    0    0  0.32064119200E+03 -0.53586717943E+03 -0.42065009645E+03  0.75293486547E+03  0.00000000000E+00 0.  1.
         22    1    1    2    0    0 -0.47730030609E+03  0.80109020140E+03 -0.26248093945E+03  0.96874007688E+03  0.00000000000E+00 0. -1.
<mgrwt>
<rscale>  0 0.18883816E+04</rscale>
<asrwt>0</asrwt>
<pdfrwt beam="1">  1        1 0.22104857E+00 0.18883816E+04</pdfrwt>
<pdfrwt beam="2">  1       -1 0.95456415E-01 0.18883816E+04</pdfrwt>
<totfact> 0.71817595E+00</totfact>
</mgrwt>
</event>
<event>
 6    1  0.1603085E-006  0.2478880E+04  0.7818608E-02  0.8410549E-01
         -2   -1    0    0    0  501 -0.00000000000E+00  0.00000000000E+00  0.65603118963E+03  0.65603118963E+03  0.00000000000E+00 0.  1.
          2   -1    0    0  501    0  0.00000000000E+00 -0.00000000000E+00 -0.23416736275E+04  0.23416736275E+04  0.00000000000E+00 0. -1.
         23    2    1    2    0    0  0.10966549330E+04 -0.27300848186E+03 -0.14544199982E+04  0.18441670025E+04  0.91808107677E+02 0.  0.
         11    1    3    3    0    0  0.55382006359E+03 -0.15694742160E+03 -0.80864682489E+03  0.99260205691E+03  0.00000000000E+00 0. -1.
        -11    1    3    3    0    0  0.54283486941E+03 -0.11606106026E+03 -0.64577317334E+03  0.85156494559E+03  0.00000000000E+00 0.  1.
         22    1    1    2    0    0 -0.10966549330E+04  0.27300848186E+03 -0.23122243965E+03  0.11535378146E+04  0.00000000000E+00 0. -1.
<mgrwt>
<rscale>  0 0.24788795E+04</rscale>
<asrwt>0</asrwt>
<pdfrwt beam="1">  1        2 0.36025748E+00 0.24788795E+04</pdfrwt>
<pdfrwt beam="2">  1       -2 0.10092788E+00 0.24788795E+04</pdfrwt>
<totfact> 0.30986304E+00</totfact>
</mgrwt>
</event>
<event>
 6    1  0.1603085E-006  0.4645024E+04  0.7818608E-02  0.7885728E-01
          2   -1    0    0  501    0  0.00000000000E+00  0.00000000000E+00  0.38448467817E+04  0.38448467817E+04  0.00000000000E+00 0.  1.
         -2   -1    0    0    0  501 -0.00000000000E+00 -0.00000000000E+00 -0.14029325899E+04  0.14029325899E+04  0.00000000000E+00 0. -1.
         23    2    1    2    0    0 -0.19419558811E+04 -0.18313163291E+03  0.26437641102E+04  0.32867915520E+04  0.93702703280E+02 0.  0.
         13    1    3    3    0    0 -0.10619431439E+04 -0.10967350038E+03  0.15235075682E+04  0.18603297632E+04  0.00000000000E+00 0.  1.
        -13    1    3    3    0    0 -0.88001273720E+03 -0.73458132525E+02  0.11202565421E+04  0.14264617888E+04  0.00000000000E+00 0. -1.
         22    1    1    2    0    0  0.19419558811E+04  0.18313163291E+03 -0.20184991839E+03  0.19609878196E+04  0.00000000000E+00 0. -1.
<mgrwt>
<rscale>  0 0.46450235E+04</rscale>
<asrwt>0</asrwt>
<pdfrwt beam="1">  1        2 0.59151489E+00 0.46450235E+04</pdfrwt>
<pdfrwt beam="2">  1       -2 0.21583578E+00 0.46450235E+04</pdfrwt>
<totfact> 0.35574468E-02</totfact>
</mgrwt>
</event>
<event>
 6    1  0.1603085E-006  0.1226459E+04  0.7818608E-02  0.9090008E-01
         -2   -1    0    0    0  501 -0.00000000000E+00  0.00000000000E+00  0.21288024434E+03  0.21288024434E+03  0.00000000000E+00 0. -1.
          2   -1    0    0  501    0  0.00000000000E+00 -0.00000000000E+00 -0.17664866748E+04  0.17664866748E+04  0.00000000000E+00 0.  1.
         23    2    1    2    0    0  0.48821785993E+00  0.92467601755E+02 -0.17535567791E+04  0.17590702155E+04  0.10400072089E+03 0.  0.
         13    1    3    3    0    0  0.69440170485E+01  0.11475675955E+03 -0.15296024794E+04  0.15339169072E+04  0.00000000000E+00 0.  1.
        -13    1    3    3    0    0 -0.64557991885E+01 -0.22289157799E+02 -0.22395429968E+03  0.22515330831E+03  0.00000000000E+00 0. -1.
         22    1    1    2    0    0 -0.48821785993E+00 -0.92467601755E+02  0.19995034860E+03  0.22029670364E+03  0.00000000000E+00 0. -1.
<mgrwt>
<rscale>  0 0.12264585E+04</rscale>
<asrwt>0</asrwt>
<pdfrwt beam="1">  1        2 0.27176718E+00 0.12264585E+04</pdfrwt>
<pdfrwt beam="2">  1       -2 0.32750807E-01 0.12264585E+04</pdfrwt>
<totfact> 0.77138231E+01</totfact>
</mgrwt>
</event>
<event>
 6    1  0.1603085E-006  0.6239782E+03  0.7818608E-02  0.9856871E-01
          1   -1    0    0  501    0  0.00000000000E+00  0.00000000000E+00  0.41148570363E+03  0.41148570363E+03  0.00000000000E+00 0. -1.
         -1   -1    0    0    0  501 -0.00000000000E+00 -0.00000000000E+00 -0.23655061698E+03  0.23655061698E+03  0.00000000000E+00 0.  1.
         23    2    1    2    0    0 -0.29773868541E+03  0.66163019030E+02  0.80974750201E+02  0.32888993617E+03  0.92659646376E+02 0.  0.
         13    1    3    3    0    0 -0.98383419546E+02  0.47174987016E+02  0.67235723417E+02  0.12816169141E+03  0.00000000000E+00 0. -1.
        -13    1    3    3    0    0 -0.19935526587E+03  0.18988032014E+02  0.13739026784E+02  0.20072824476E+03  0.00000000000E+00 0.  1.
         22    1    1    2    0    0  0.29773868541E+03 -0.66163019030E+02  0.93960336445E+02  0.31914638444E+03  0.00000000000E+00 0.  1.
<mgrwt>
<rscale>  0 0.62397820E+03</rscale>
<asrwt>0</asrwt>
<pdfrwt beam="1">  1        1 0.63305493E-01 0.62397820E+03</pdfrwt>
<pdfrwt beam="2">  1       -1 0.36392403E-01 0.62397820E+03</pdfrwt>
<totfact> 0.42283917E+02</totfact>
</mgrwt>
</event>
<event>
 6    1  0.1603085E-006  0.4408758E+04  0.7818608E-02  0.7926808E-01
          2   -1    0    0  501    0  0.00000000000E+00  0.00000000000E+00  0.28071780905E+04  0.28071780905E+04  0.00000000000E+00 0. -1.
         -2   -1    0    0    0  501 -0.00000000000E+00 -0.00000000000E+00 -0.17310221822E+04  0.17310221822E+04  0.00000000000E+00 0.  1.
         23    2    1    2    0    0 -0.11551432425E+04  0.48621591939E+03 -0.13271044354E+04  0.18277718728E+04  0.93712354457E+02 0.  0.
         11    1    3    3    0    0 -0.54922355581E+03  0.18560311087E+03 -0.58280919362E+03  0.82204719159E+03  0.00000000000E+00 0. -1.
        -11    1    3    3    0    0 -0.60591968673E+03  0.30061280852E+03 -0.74429524178E+03  0.10057246812E+04  0.00000000000E+00 0.  1.
         22    1    1    2    0    0  0.11551432425E+04 -0.48621591939E+03  0.24032603437E+04  0.27104283999E+04  0.00000000000E+00 0. -1.
<mgrwt>
<rscale>  0 0.44087583E+04</rscale>
<asrwt>0</asrwt>
<pdfrwt beam="1">  1        2 0.43187355E+00 0.44087583E+04</pdfrwt>
<pdfrwt beam="2">  1       -2 0.26631110E+00 0.44087583E+04</pdfrwt>
<totfact> 0.89186992E-02</totfact>
</mgrwt>
</event>
<event>
 6    1  0.1603085E-006  0.1558652E+04  0.7818608E-02  0.8846360E-01
         -1   -1    0    0    0  501 -0.00000000000E+00  0.00000000000E+00  0.27540707824E+03  0.27540707824E+03  0.00000000000E+00 0.  1.
          1   -1    0    0  501    0  0.00000000000E+00 -0.00000000000E+00 -0.22052780448E+04  0.22052780448E+04  0.00000000000E+00 0. -1.
         23    2    1    2    0    0  0.57598971298E+03  0.40536418533E+03 -0.44692909796E+03  0.83897843248E+03  0.89749202563E+02 0.  0.
         11    1    3    3    0    0  0.24569380648E+03  0.14275387653E+03 -0.13724854369E+03  0.31556501478E+03  0.00000000000E+00 0. -1.
        -11    1    3    3    0    0  0.33029590649E+03  0.26261030881E+03 -0.30968055427E+03  0.52341341770E+03  0.00000000000E+00 0.  1.
         22    1    1    2    0    0 -0.57598971298E+03 -0.40536418533E+03 -0.14829418686E+04  0.16417066906E+04  0.00000000000E+00 0.  1.
<mgrwt>
<rscale>  0 0.15586522E+04</rscale>
<asrwt>0</asrwt>
<pdfrwt beam="1">  1        1 0.33927355E+00 0.15586522E+04</pdfrwt>
<pdfrwt beam="2">  1       -1 0.42370319E-01 0.15586522E+04</pdfrwt>
<totfact> 0.11407043E+01</totfact>
</mgrwt>
</event>
<event>
 6    1  0.2260672E-006  0.3347972E+04  0.7818608E-02  0.8150795E-01
         -2   -1    0    0    0  501 -0.00000000000E+00  0.00000000000E+00  0.13619458084E+04  0.13619458084E+04  0.00000000000E+00 0.  1.
          2   -1    0    0  501    0  0.00000000000E+00 -0.00000000000E+00 -0.20575183129E+04  0.20575183129E+04  0.00000000000E+00 0. -1.
         23    2    1    2    0    0 -0.16185497940E+03  0.14244186628E+04 -0.12281114486E+04  0.18901625526E+04  0.96390786442E+02 0.  0.
         13    1    3    3    0    0 -0.12989357694E+03  0.83758229252E+03 -0.68224751591E+03  0.10880616302E+04  0.00000000000E+00 0. -1.
        -13    1    3    3    0    0 -0.31961402457E+02  0.58683637028E+03 -0.54586393266E+03  0.80210092240E+03  0.00000000000E+00 0.  1.
         22    1    1    2    0    0  0.16185497940E+03 -0.14244186628E+04  0.53253894410E+03  0.15293015688E+04  0.00000000000E+00 0.  1.
<mgrwt>
<rscale>  0 0.33479716E+04</rscale>
<asrwt>0</asrwt>
<pdfrwt beam="1">  1        2 0.31654128E+00 0.33479716E+04</pdfrwt>
<pdfrwt beam="2">  1       -2 0.20953013E+00 0.33479716E+04</pdfrwt>
<totfact> 0.59538054E-01</totfact>
</mgrwt>
</event>
<event>
 6    1  0.1603085E-006  0.2669884E+04  0.7818608E-02  0.8344843E-01
         -1   -1    0    0    0  501 -0.00000000000E+00  0.00000000000E+00  0.10327000151E+04  0.10327000151E+04  0.00000000000E+00 0. -1.
          1   -1    0    0  501    0  0.00000000000E+00 -0.00000000000E+00 -0.17256414862E+04  0.17256414862E+04  0.00000000000E+00 0.  1.
         23    2    1    2    0    0  0.66175406163E+03 -0.10753458731E+04 -0.78608072024E+03  0.14922601040E+04  0.12095509213E+03 0.  0.
         13    1    3    3    0    0  0.95250051087E+02 -0.14601558516E+03 -0.62054476977E+02  0.18505102392E+03  0.00000000000E+00 0. -1.
        -13    1    3    3    0    0  0.56650401054E+03 -0.92933028795E+03 -0.72402624326E+03  0.13072090801E+04  0.00000000000E+00 0.  1.
         22    1    1    2    0    0 -0.66175406163E+03  0.10753458731E+04  0.93139249155E+02  0.12660813973E+04  0.00000000000E+00 0. -1.
<mgrwt>
<rscale>  0 0.26698839E+04</rscale>
<asrwt>0</asrwt>
<pdfrwt beam="1">  1        1 0.26548330E+00 0.26698839E+04</pdfrwt>
<pdfrwt beam="2">  1       -1 0.15887693E+00 0.26698839E+04</pdfrwt>
<totfact> 0.11943920E+00</totfact>
</mgrwt>
</event>
<event>
 6    1  0.1603085E-006  0.3425527E+04  0.7818608E-02  0.8131669E-01
         -1   -1    0    0    0  501 -0.00000000000E+00  0.00000000000E+00  0.19717592991E+04  0.19717592991E+04  0.00000000000E+00 0.  1.
          1   -1    0    0  501    0  0.00000000000E+00 -0.00000000000E+00 -0.14877872937E+04  0.14877872937E+04  0.00000000000E+00 0. -1.
         23    2    1    2    0    0  0.15821668526E+03  0.11529748803E+04  0.15098307055E+04  0.19081698924E+04  0.84498430912E+02 0.  0.
         11    1    3    3    0    0  0.66429858520E+02  0.24103122152E+03  0.30680910822E+03  0.39577873205E+03  0.00000000000E+00 0. -1.
        -11    1    3    3    0    0  0.91786826737E+02  0.91194365875E+03  0.12030215973E+04  0.15123911603E+04  0.00000000000E+00 0.  1.
         22    1    1    2    0    0 -0.15821668526E+03 -0.11529748803E+04 -0.10258587002E+04  0.15513767005E+04  0.00000000000E+00 0. -1.
<mgrwt>
<rscale>  0 0.34255268E+04</rscale>
<asrwt>0</asrwt>
<pdfrwt beam="1">  1        1 0.22889035E+00 0.34255268E+04</pdfrwt>
<pdfrwt beam="2">  1       -1 0.30334759E+00 0.34255268E+04</pdfrwt>
<totfact> 0.17200231E-01</totfact>
</mgrwt>
</event>
<event>
 6    1  0.1647745E-006  0.1217040E+04  0.7818608E-02  0.9098070E-01
         -1   -1    0    0    0  501 -0.00000000000E+00  0.00000000000E+00  0.23407572189E+03  0.23407572189E+03  0.00000000000E+00 0.  1.
          1   -1    0    0  501    0  0.00000000000E+00 -0.00000000000E+00 -0.15819534168E+04  0.15819534168E+04  0.00000000000E+00 0. -1.
         23    2    1    2    0    0 -0.25302786084E+03 -0.52810702845E+03 -0.44117811970E+03  0.73666624718E+03  0.71546450408E+02 0.  0.
         11    1    3    3    0    0 -0.11131494775E+03 -0.27400147321E+03 -0.18377604059E+03  0.34819744113E+03  0.00000000000E+00 0.  1.
        -11    1    3    3    0    0 -0.14171291309E+03 -0.25410555524E+03 -0.25740207912E+03  0.38846880605E+03  0.00000000000E+00 0. -1.
         22    1    1    2    0    0  0.25302786084E+03  0.52810702845E+03 -0.90669957521E+03  0.10793628915E+04  0.00000000000E+00 0.  1.
<mgrwt>
<rscale>  0 0.12170405E+04</rscale>
<asrwt>0</asrwt>
<pdfrwt beam="1">  1        1 0.24337745E+00 0.12170405E+04</pdfrwt>
<pdfrwt beam="2">  1       -1 0.36011649E-01 0.12170405E+04</pdfrwt>
<totfact> 0.41841688E+01</totfact>
</mgrwt>
</event>
<event>
 6    1  0.1603085E-006  0.3471564E+04  0.7818608E-02  0.8120562E-01
         -1   -1    0    0    0  501 -0.00000000000E+00  0.00000000000E+00  0.99855021679E+03  0.99855021679E+03  0.00000000000E+00 0.  1.
          1   -1    0    0  501    0  0.00000000000E+00 -0.00000000000E+00 -0.30173129802E+04  0.30173129802E+04  0.00000000000E+00 0. -1.
         23    2    1    2    0    0  0.14869844088E+04  0.85706270571E+03 -0.72010580097E+03  0.18636111161E+04  0.93887772156E+02 0.  0.
         11    1    3    3    0    0  0.97560686755E+03  0.53441722903E+03 -0.50725294319E+03  0.12225858183E+04  0.00000000000E+00 0. -1.
        -11    1    3    3    0    0  0.51137754129E+03  0.32264547669E+03 -0.21285285778E+03  0.64102529781E+03  0.00000000000E+00 0.  1.
         22    1    1    2    0    0 -0.14869844088E+04 -0.85706270571E+03 -0.12986569624E+04  0.21522520809E+04  0.00000000000E+00 0. -1.
<mgrwt>
<rscale>  0 0.34715636E+04</rscale>
<asrwt>0</asrwt>
<pdfrwt beam="1">  1        1 0.46420199E+00 0.34715636E+04</pdfrwt>
<pdfrwt beam="2">  1       -1 0.15362311E+00 0.34715636E+04</pdfrwt>
<totfact> 0.15513617E-01</totfact>
</mgrwt>
</event>
<event>
 6    1  0.1603085E-006  0.2235432E+04  0.7818608E-02  0.8503823E-01
         -1   -1    0    0    0  501 -0.00000000000E+00  0.00000000000E+00  0.99856190851E+03  0.99856190851E+03  0.00000000000E+00 0.  1.
          1   -1    0    0  501    0  0.00000000000E+00 -0.00000000000E+00 -0.12510886900E+04  0.12510886900E+04  0.00000000000E+00 0. -1.
         23    2    1    2    0    0  0.36343656596E+03  0.57184542904E+03  0.76582995935E+03  0.10264810339E+04  0.89857966471E+02 0.  0.
         13    1    3    3    0    0  0.78793360157E+02  0.17314740573E+03  0.17002460382E+03  0.25514071337E+03  0.00000000000E+00 0. -1.
        -13    1    3    3    0    0  0.28464320580E+03  0.39869802331E+03  0.59580535553E+03  0.77134032053E+03  0.00000000000E+00 0.  1.
         22    1    1    2    0    0 -0.36343656596E+03 -0.57184542904E+03 -0.10183567409E+04  0.12231695646E+04  0.00000000000E+00 0. -1.
<mgrwt>
<rscale>  0 0.22354324E+04</rscale>
<asrwt>0</asrwt>
<pdfrwt beam="1">  1        1 0.19247518E+00 0.22354324E+04</pdfrwt>
<pdfrwt beam="2">  1       -1 0.15362491E+00 0.22354324E+04</pdfrwt>
<totfact> 0.29156608E+00</totfact>
</mgrwt>
</event>
<event>
 6    1  0.1603085E-006  0.4127717E+04  0.7818608E-02  0.7979266E-01
         -2   -1    0    0    0  501 -0.00000000000E+00  0.00000000000E+00  0.16804767258E+04  0.16804767258E+04  0.00000000000E+00 0.  1.
          2   -1    0    0  501    0  0.00000000000E+00 -0.00000000000E+00 -0.25347046820E+04  0.25347046820E+04  0.00000000000E+00 0. -1.
         23    2    1    2    0    0 -0.19343112742E+04 -0.27962224118E+03 -0.11013156181E+04  0.22452065308E+04  0.91145883246E+02 0.  0.
         11    1    3    3    0    0 -0.26296193661E+03 -0.67742924776E+02 -0.14012123501E+03  0.30556839572E+03  0.00000000000E+00 0.  1.
        -11    1    3    3    0    0 -0.16713493376E+04 -0.21187931641E+03 -0.96119438312E+03  0.19396381351E+04  0.00000000000E+00 0. -1.
         22    1    1    2    0    0  0.19343112742E+04  0.27962224118E+03  0.24708766192E+03  0.19699748770E+04  0.00000000000E+00 0.  1.
<mgrwt>
<rscale>  0 0.41277172E+04</rscale>
<asrwt>0</asrwt>
<pdfrwt beam="1">  1        2 0.38995457E+00 0.41277172E+04</pdfrwt>
<pdfrwt beam="2">  1       -2 0.25853488E+00 0.41277172E+04</pdfrwt>
<totfact> 0.14778453E-01</totfact>
</mgrwt>
</event>
<event>
 6    1  0.1603085E-006  0.8934225E+03  0.7818608E-02  0.9433841E-01
          2   -1    0    0  501    0  0.00000000000E+00  0.00000000000E+00  0.35227247487E+03  0.35227247487E+03  0.00000000000E+00 0. -1.
         -2   -1    0    0    0  501 -0.00000000000E+00 -0.00000000000E+00 -0.56646754081E+03  0.56646754081E+03  0.00000000000E+00 0.  1.
         23    2    1    2    0    0  0.64139036654E+02 -0.41413822744E+03  0.36792542954E+02  0.43025350894E+03  0.90222520959E+02 0.  0.
         13    1    3    3    0    0 -0.19264825641E+02 -0.15891910123E+03  0.18092772391E+02  0.16110171525E+03  0.00000000000E+00 0.  1.
        -13    1    3    3    0    0  0.83403862295E+02 -0.25521912620E+03  0.18699770562E+02  0.26915179369E+03  0.00000000000E+00 0. -1.
         22    1    1    2    0    0 -0.64139036654E+02  0.41413822744E+03 -0.25098760889E+03  0.48848650674E+03  0.00000000000E+00 0.  1.
<mgrwt>
<rscale>  0 0.89342246E+03</rscale>
<asrwt>0</asrwt>
<pdfrwt beam="1">  1        2 0.54195766E-01 0.89342246E+03</pdfrwt>
<pdfrwt beam="2">  1       -2 0.87148852E-01 0.89342246E+03</pdfrwt>
<totfact> 0.10483101E+02</totfact>
</mgrwt>
</event>
<event>
 6    1  0.1603085E-006  0.3159335E+04  0.7818608E-02  0.8199640E-01
          1   -1    0    0  501    0  0.00000000000E+00  0.00000000000E+00  0.11995753279E+04  0.11995753279E+04  0.00000000000E+00 0. -1.
         -1   -1    0    0    0  501 -0.00000000000E+00 -0.00000000000E+00 -0.20801939566E+04  0.20801939566E+04  0.00000000000E+00 0.  1.
         23    2    1    2    0    0 -0.85924408912E+03 -0.11250960588E+04  0.28379331921E+03  0.14467398982E+04  0.91521247501E+02 0.  0.
         11    1    3    3    0    0 -0.89925536208E+02 -0.11259077095E+03  0.57488827712E+02  0.15513945042E+03  0.00000000000E+00 0.  1.
        -11    1    3    3    0    0 -0.76931855291E+03 -0.10125052879E+04  0.22630449149E+03  0.12916004478E+04  0.00000000000E+00 0. -1.
         22    1    1    2    0    0  0.85924408912E+03  0.11250960588E+04 -0.11644119479E+04  0.18330293862E+04  0.00000000000E+00 0.  1.
<mgrwt>
<rscale>  0 0.31593350E+04</rscale>
<asrwt>0</asrwt>
<pdfrwt beam="1">  1        1 0.18455005E+00 0.31593350E+04</pdfrwt>
<pdfrwt beam="2">  1       -1 0.32002984E+00 0.31593350E+04</pdfrwt>
<totfact> 0.21958530E-01</totfact>
</mgrwt>
</event>
<event>
 6    1  0.1603085E-006  0.2495379E+04  0.7818608E-02  0.8404634E-01
         -2   -1    0    0    0  501 -0.00000000000E+00  0.00000000000E+00  0.12901519898E+04  0.12901519898E+04  0.00000000000E+00 0.  1.
          2   -1    0    0  501    0  0.00000000000E+00 -0.00000000000E+00 -0.12066242798E+04  0.12066242798E+04  0.00000000000E+00 0. -1.
         23    2    1    2    0    0  0.25098264400E+03 -0.19518353339E+03 -0.11636433645E+04  0.12097158248E+04  0.90871324366E+02 0.  0.
         11    1    3    3    0    0  0.58388987608E+02 -0.16591106427E+02 -0.13412994689E+03  0.14722561373E+03  0.00000000000E+00 0.  1.
        -11    1    3    3    0    0  0.19259365639E+03 -0.17859242696E+03 -0.10295134177E+04  0.10624902111E+04  0.00000000000E+00 0. -1.
         22    1    1    2    0    0 -0.25098264400E+03  0.19518353339E+03  0.12471710746E+04  0.12870604448E+04  0.00000000000E+00 0.  1.
<mgrwt>
<rscale>  0 0.24953787E+04</rscale>
<asrwt>0</asrwt>
<pdfrwt beam="1">  1        2 0.18563450E+00 0.24953787E+04</pdfrwt>
<pdfrwt beam="2">  1       -2 0.19848492E+00 0.24953787E+04</pdfrwt>
<totfact> 0.22788995E+00</totfact>
</mgrwt>
</event>
<event>
 6    1  0.1603085E-006  0.1079732E+04  0.7818608E-02  0.9225175E-01
         -2   -1    0    0    0  501 -0.00000000000E+00  0.00000000000E+00  0.71190765758E+03  0.71190765758E+03  0.00000000000E+00 0.  1.
          2   -1    0    0  501    0  0.00000000000E+00 -0.00000000000E+00 -0.40940056797E+03  0.40940056797E+03  0.00000000000E+00 0. -1.
         23    2    1    2    0    0 -0.77411353929E+02 -0.37686335933E+03  0.53995489504E+03  0.66920207693E+03  0.90893463828E+02 0.  0.
         13    1    3    3    0    0 -0.87780318014E+02 -0.26339609341E+03  0.42253408543E+03  0.50558672807E+03  0.00000000000E+00 0. -1.
        -13    1    3    3    0    0  0.10368964085E+02 -0.11346726592E+03  0.11742080961E+03  0.16361534885E+03  0.00000000000E+00 0.  1.
         22    1    1    2    0    0  0.77411353929E+02  0.37686335933E+03 -0.23744780543E+03  0.45210614863E+03  0.00000000000E+00 0. -1.
<mgrwt>
<rscale>  0 0.10797322E+04</rscale>
<asrwt>0</asrwt>
<pdfrwt beam="1">  1        2 0.62984703E-01 0.10797322E+04</pdfrwt>
<pdfrwt beam="2">  1       -2 0.10952426E+00 0.10797322E+04</pdfrwt>
<totfact> 0.51118890E+01</totfact>
</mgrwt>
</event>
<event>
 6    1  0.1957002E-006  0.2973774E+04  0.7818608E-02  0.8251260E-01
         -2   -1    0    0    0  501 -0.00000000000E+00  0.00000000000E+00  0.11572860876E+04  0.11572860876E+04  0.00000000000E+00 0.  1.
          2   -1    0    0  501    0  0.00000000000E+00 -0.00000000000E+00 -0.19103603998E+04  0.19103603998E+04  0.00000000000E+00 0. -1.
         23    2    1    2    0    0  0.54476626644E+03  0.49981153808E+03 -0.17060614837E+04  0.18615095103E+04  0.89386866932E+02 0.  0.
         11    1    3    3    0    0  0.37906485920E+03  0.37891830612E+03 -0.11482299566E+04  0.12671626902E+04  0.00000000000E+00 0. -1.
        -11    1    3    3    0    0  0.16570140724E+03  0.12089323196E+03 -0.55783152707E+03  0.59434682004E+03  0.00000000000E+00 0.  1.
         22    1    1    2    0    0 -0.54476626644E+03 -0.49981153808E+03  0.95298717147E+03  0.12061369771E+04  0.00000000000E+00 0.  1.
<mgrwt>
<rscale>  0 0.29737744E+04</rscale>
<asrwt>0</asrwt>
<pdfrwt beam="1">  1        2 0.29390160E+00 0.29737744E+04</pdfrwt>
<pdfrwt beam="2">  1       -2 0.17804402E+00 0.29737744E+04</pdfrwt>
<totfact> 0.12027708E+00</totfact>
</mgrwt>
</event>
<event>
 6    1  0.1603085E-006  0.2052757E+04  0.7818608E-02  0.8582344E-01
         -3   -1    0    0    0  501 -0.00000000000E+00  0.00000000000E+00  0.82935680347E+03  0.82935680347E+03  0.00000000000E+00 0.  1.
          3   -1    0    0  501    0  0.00000000000E+00 -0.00000000000E+00 -0.12702051736E+04  0.12702051736E+04  0.00000000000E+00 0. -1.
         23    2    1    2    0    0  0.57198320225E+02 -0.71872702211E+03 -0.96515841588E+03  0.12080793893E+04  0.89915866578E+02 0.  0.
         11    1    3    3    0    0 -0.43367463952E+01 -0.33828850823E+03 -0.39777878089E+03  0.52219333651E+03  0.00000000000E+00 0. -1.
        -11    1    3    3    0    0  0.61535066620E+02 -0.38043851388E+03 -0.56737963499E+03  0.68588605283E+03  0.00000000000E+00 0.  1.
         22    1    1    2    0    0 -0.57198320225E+02  0.71872702211E+03  0.52431004575E+03  0.89148258773E+03  0.00000000000E+00 0.  1.
<mgrwt>
<rscale>  0 0.20527575E+04</rscale>
<asrwt>0</asrwt>
<pdfrwt beam="1">  1        3 0.19541618E+00 0.20527575E+04</pdfrwt>
<pdfrwt beam="2">  1       -3 0.12759335E+00 0.20527575E+04</pdfrwt>
<totfact> 0.18501746E-01</totfact>
</mgrwt>
</event>
<event>
 6    1  0.1603085E-006  0.4233620E+04  0.7818608E-02  0.7959008E-01
         -2   -1    0    0    0  501 -0.00000000000E+00  0.00000000000E+00  0.20927449964E+04  0.20927449964E+04  0.00000000000E+00 0.  1.
          2   -1    0    0  501    0  0.00000000000E+00 -0.00000000000E+00 -0.21411514649E+04  0.21411514649E+04  0.00000000000E+00 0. -1.
         23    2    1    2    0    0 -0.11502777035E+04  0.77063522939E+03  0.15757745499E+04  0.20996562142E+04  0.92050713542E+02 0.  0.
         11    1    3    3    0    0 -0.52818904022E+03  0.38152960664E+03  0.68110640687E+03  0.94257861234E+03  0.00000000000E+00 0. -1.
        -11    1    3    3    0    0 -0.62208866329E+03  0.38910562275E+03  0.89466814303E+03  0.11570776019E+04  0.00000000000E+00 0.  1.
         22    1    1    2    0    0  0.11502777035E+04 -0.77063522939E+03 -0.16241810183E+04  0.21342402471E+04  0.00000000000E+00 0. -1.
<mgrwt>
<rscale>  0 0.42336197E+04</rscale>
<asrwt>0</asrwt>
<pdfrwt beam="1">  1        2 0.32940792E+00 0.42336197E+04</pdfrwt>
<pdfrwt beam="2">  1       -2 0.32196077E+00 0.42336197E+04</pdfrwt>
<totfact> 0.10044503E-01</totfact>
</mgrwt>
</event>
<event>
 6    1  0.1603085E-006  0.9593416E+03  0.7818608E-02  0.9354298E-01
          2   -1    0    0  501    0  0.00000000000E+00  0.00000000000E+00  0.34319437900E+04  0.34319437900E+04  0.00000000000E+00 0. -1.
         -2   -1    0    0    0  501 -0.00000000000E+00 -0.00000000000E+00 -0.67041908954E+02  0.67041908954E+02  0.00000000000E+00 0.  1.
         23    2    1    2    0    0 -0.39999547111E+02 -0.38616780015E+03  0.26982972518E+04  0.27275667042E+04  0.89925155044E+02 0.  0.
         11    1    3    3    0    0  0.51070265212E+01 -0.70354620702E+02  0.30208202193E+03  0.31020864325E+03  0.00000000000E+00 0. -1.
        -11    1    3    3    0    0 -0.45106573632E+02 -0.31581317945E+03  0.23962152299E+04  0.24173580610E+04  0.00000000000E+00 0.  1.
         22    1    1    2    0    0  0.39999547111E+02  0.38616780015E+03  0.66660462930E+03  0.77141899475E+03  0.00000000000E+00 0. -1.
<mgrwt>
<rscale>  0 0.95934157E+03</rscale>
<asrwt>0</asrwt>
<pdfrwt beam="1">  1        2 0.52799122E+00 0.95934157E+03</pdfrwt>
<pdfrwt beam="2">  1       -2 0.10314143E-01 0.95934157E+03</pdfrwt>
<totfact> 0.61766368E+01</totfact>
</mgrwt>
</event>
<event>
 6    1  0.1603085E-006  0.4275630E+04  0.7818608E-02  0.7951140E-01
         -2   -1    0    0    0  501 -0.00000000000E+00  0.00000000000E+00  0.17377400715E+04  0.17377400715E+04  0.00000000000E+00 0.  1.
          2   -1    0    0  501    0  0.00000000000E+00 -0.00000000000E+00 -0.26299984325E+04  0.26299984325E+04  0.00000000000E+00 0. -1.
         23    2    1    2    0    0 -0.18132055235E+04  0.10948587869E+04 -0.73476345857E+03  0.22437717721E+04  0.90578095815E+02 0.  0.
         13    1    3    3    0    0 -0.83949169127E+03  0.46513138842E+03 -0.36182050052E+03  0.10256742089E+04  0.00000000000E+00 0. -1.
        -13    1    3    3    0    0 -0.97371383225E+03  0.62972739850E+03 -0.37294295805E+03  0.12180975632E+04  0.00000000000E+00 0.  1.
         22    1    1    2    0    0  0.18132055235E+04 -0.10948587869E+04 -0.15749490238E+03  0.21239667319E+04  0.00000000000E+00 0. -1.
<mgrwt>
<rscale>  0 0.42756303E+04</rscale>
<asrwt>0</asrwt>
<pdfrwt beam="1">  1        2 0.40461514E+00 0.42756303E+04</pdfrwt>
<pdfrwt beam="2">  1       -2 0.26734463E+00 0.42756303E+04</pdfrwt>
<totfact> 0.11341586E-01</totfact>
</mgrwt>
</event>
<event>
 6    1  0.1603085E-006  0.3727057E+04  0.7818608E-02  0.8061992E-01
         -1   -1    0    0    0  501 -0.00000000000E+00  0.00000000000E+00  0.11634109078E+04  0.11634109078E+04  0.00000000000E+00 0.  1.
          1   -1    0    0  501    0  0.00000000000E+00 -0.00000000000E+00 -0.29849626722E+04  0.29849626722E+04  0.00000000000E+00 0. -1.
         23    2    1    2    0    0 -0.53471060297E+03 -0.16621358892E+04 -0.19000731236E+03  0.17586981958E+04  0.91134089695E+02 0.  0.
         11    1    3    3    0    0 -0.20054176937E+03 -0.50698214613E+03 -0.82054362503E+02  0.55134455304E+03  0.00000000000E+00 0.  1.
        -11    1    3    3    0    0 -0.33416883360E+03 -0.11551537430E+04 -0.10795294986E+03  0.12073536428E+04  0.00000000000E+00 0. -1.
         22    1    1    2    0    0  0.53471060297E+03  0.16621358892E+04 -0.16315444520E+04  0.23896753842E+04  0.00000000000E+00 0. -1.
<mgrwt>
<rscale>  0 0.37270568E+04</rscale>
<asrwt>0</asrwt>
<pdfrwt beam="1">  1        1 0.45922502E+00 0.37270568E+04</pdfrwt>
<pdfrwt beam="2">  1       -1 0.17898630E+00 0.37270568E+04</pdfrwt>
<totfact> 0.10379475E-01</totfact>
</mgrwt>
</event>
<event>
 6    1  0.1603085E-006  0.2498377E+04  0.7818608E-02  0.8403564E-01
          1   -1    0    0  501    0  0.00000000000E+00  0.00000000000E+00  0.21355922760E+04  0.21355922760E+04  0.00000000000E+00 0. -1.
         -1   -1    0    0    0  501 -0.00000000000E+00 -0.00000000000E+00 -0.73069724431E+03  0.73069724431E+03  0.00000000000E+00 0.  1.
         23    2    1    2    0    0  0.11422119569E+04  0.47086180069E+03  0.51246019987E+03  0.13422163860E+04  0.11211770850E+03 0.  0.
         11    1    3    3    0    0  0.94973837208E+03  0.34840419199E+03  0.43643305814E+03  0.11017541789E+04  0.00000000000E+00 0.  1.
        -11    1    3    3    0    0  0.19247358480E+03  0.12245760870E+03  0.76027141736E+02  0.24046220712E+03  0.00000000000E+00 0. -1.
         22    1    1    2    0    0 -0.11422119569E+04 -0.47086180069E+03  0.89243483181E+03  0.15240731343E+04  0.00000000000E+00 0. -1.
<mgrwt>
<rscale>  0 0.24983766E+04</rscale>
<asrwt>0</asrwt>
<pdfrwt beam="1">  1        1 0.32855265E+00 0.24983766E+04</pdfrwt>
<pdfrwt beam="2">  1       -1 0.11241496E+00 0.24983766E+04</pdfrwt>
<totfact> 0.15518137E+00</totfact>
</mgrwt>
</event>
<event>
 6    1  0.1603085E-006  0.5904502E+03  0.7818608E-02  0.9925419E-01
          2   -1    0    0  501    0  0.00000000000E+00  0.00000000000E+00  0.66792758449E+03  0.66792758449E+03  0.00000000000E+00 0. -1.
         -2   -1    0    0    0  501 -0.00000000000E+00 -0.00000000000E+00 -0.13048997681E+03  0.13048997681E+03  0.00000000000E+00 0.  1.
         23    2    1    2    0    0 -0.24558383088E+03  0.14673130130E+03  0.21823538964E+03  0.36977837881E+03  0.85251811560E+02 0.  0.
         13    1    3    3    0    0 -0.20420697812E+03  0.14879157489E+03  0.16279407692E+03  0.30056835189E+03  0.00000000000E+00 0.  1.
        -13    1    3    3    0    0 -0.41376852754E+02 -0.20602735967E+01  0.55441312713E+02  0.69210026921E+02  0.00000000000E+00 0. -1.
         22    1    1    2    0    0  0.24558383088E+03 -0.14673130130E+03  0.31920221804E+03  0.42863918250E+03  0.00000000000E+00 0. -1.
<mgrwt>
<rscale>  0 0.59045018E+03</rscale>
<asrwt>0</asrwt>
<pdfrwt beam="1">  1        2 0.10275809E+00 0.59045018E+03</pdfrwt>
<pdfrwt beam="2">  1       -2 0.20075381E-01 0.59045018E+03</pdfrwt>
<totfact> 0.92551818E+02</totfact>
</mgrwt>
</event>
<event>
 6    1  0.1603085E-006  0.3856841E+04  0.7818608E-02  0.8034066E-01
         -2   -1    0    0    0  501 -0.00000000000E+00  0.00000000000E+00  0.10578306832E+04  0.10578306832E+04  0.00000000000E+00 0.  1.
          2   -1    0    0  501    0  0.00000000000E+00 -0.00000000000E+00 -0.35155013427E+04  0.35155013427E+04  0.00000000000E+00 0. -1.
         23    2    1    2    0    0  0.15112368328E+04 -0.73474226139E+03 -0.23488156562E+04  0.28894281191E+04  0.90426287482E+02 0.  0.
         11    1    3    3    0    0  0.54404524465E+03 -0.21991743357E+03 -0.84642807680E+03  0.10299463069E+04  0.00000000000E+00 0.  1.
        -11    1    3    3    0    0  0.96719158813E+03 -0.51482482782E+03 -0.15023875794E+04  0.18594818123E+04  0.00000000000E+00 0. -1.
         22    1    1    2    0    0 -0.15112368328E+04  0.73474226139E+03 -0.10885500336E+03  0.16839039067E+04  0.00000000000E+00 0. -1.
<mgrwt>
<rscale>  0 0.38568408E+04</rscale>
<asrwt>0</asrwt>
<pdfrwt beam="1">  1        2 0.54084636E+00 0.38568408E+04</pdfrwt>
<pdfrwt beam="2">  1       -2 0.16274318E+00 0.38568408E+04</pdfrwt>
<totfact> 0.15187167E-01</totfact>
</mgrwt>
</event>
<event>
 6    1  0.1603085E-006  0.5653808E+04  0.7818608E-02  0.7734873E-01
          2   -1    0    0  501    0  0.00000000000E+00  0.00000000000E+00  0.18686076138E+04  0.18686076138E+04  0.00000000000E+00 0. -1.
         -2   -1    0    0    0  501 -0.00000000000E+00 -0.00000000000E+00 -0.42766524637E+04  0.42766524637E+04  0.00000000000E+00 0.  1.
         23    2    1    2    0    0  0.18774695444E+04  0.14592090051E+04  0.45578620783E+03  0.24229340389E+04  0.93195916879E+02 0.  0.
         13    1    3    3    0    0  0.11506857321E+04  0.93509253097E+03  0.31631416039E+03  0.15160904800E+04  0.00000000000E+00 0. -1.
        -13    1    3    3    0    0  0.72678381235E+03  0.52411647409E+03  0.13947204744E+03  0.90684355891E+03  0.00000000000E+00 0.  1.
         22    1    1    2    0    0 -0.18774695444E+04 -0.14592090051E+04 -0.28638310577E+04  0.37223260386E+04  0.00000000000E+00 0.  1.
<mgrwt>
<rscale>  0 0.56538077E+04</rscale>
<asrwt>0</asrwt>
<pdfrwt beam="1">  1        2 0.28747810E+00 0.56538077E+04</pdfrwt>
<pdfrwt beam="2">  1       -2 0.65794652E+00 0.56538077E+04</pdfrwt>
<totfact> 0.17573495E-03</totfact>
</mgrwt>
</event>
<event>
 6    1  0.1603085E-006  0.2953170E+04  0.7818608E-02  0.8257231E-01
         -2   -1    0    0    0  501 -0.00000000000E+00  0.00000000000E+00  0.83650914974E+03  0.83650914974E+03  0.00000000000E+00 0.  1.
          2   -1    0    0  501    0  0.00000000000E+00 -0.00000000000E+00 -0.26064301815E+04  0.26064301815E+04  0.00000000000E+00 0. -1.
         23    2    1    2    0    0 -0.62125188391E+03 -0.13167224198E+04 -0.11617243962E+04  0.18650879499E+04  0.96112715294E+02 0.  0.
         13    1    3    3    0    0 -0.13727064632E+03 -0.34807528290E+03 -0.25543785878E+03  0.45304319066E+03  0.00000000000E+00 0.  1.
        -13    1    3    3    0    0 -0.48398123758E+03 -0.96864713693E+03 -0.90628653739E+03  0.14120447592E+04  0.00000000000E+00 0. -1.
         22    1    1    2    0    0  0.62125188391E+03  0.13167224198E+04 -0.60819663562E+03  0.15778513814E+04  0.00000000000E+00 0.  1.
<mgrwt>
<rscale>  0 0.29531696E+04</rscale>
<asrwt>0</asrwt>
<pdfrwt beam="1">  1        2 0.40098925E+00 0.29531696E+04</pdfrwt>
<pdfrwt beam="2">  1       -2 0.12869372E+00 0.29531696E+04</pdfrwt>
<totfact> 0.11547055E+00</totfact>
</mgrwt>
</event>
<event>
 6    1  0.1603085E-006  0.9539849E+03  0.7818608E-02  0.9360505E-01
         -3   -1    0    0    0  501 -0.00000000000E+00  0.00000000000E+00  0.12565646189E+04  0.12565646189E+04  0.00000000000E+00 0.  1.
          3   -1    0    0  501    0  0.00000000000E+00 -0.00000000000E+00 -0.18106652875E+03  0.18106652875E+03  0.00000000000E+00 0. -1.
         23    2    1    2    0    0 -0.48669650652E+02  0.26575627905E+03 -0.41375043551E+02  0.28854423556E+03  0.92470248712E+02 0.  0.
         13    1    3    3    0    0 -0.55106214753E+02  0.14039713661E+03 -0.58670339607E+02  0.16183404964E+03  0.00000000000E+00 0. -1.
        -13    1    3    3    0    0  0.64365641008E+01  0.12535914244E+03  0.17295296055E+02  0.12671018592E+03  0.00000000000E+00 0.  1.
         22    1    1    2    0    0  0.48669650652E+02 -0.26575627905E+03  0.11168731337E+04  0.11490869121E+04  0.00000000000E+00 0.  1.
<mgrwt>
<rscale>  0 0.95398489E+03</rscale>
<asrwt>0</asrwt>
<pdfrwt beam="1">  1        3 0.27856390E-01 0.95398489E+03</pdfrwt>
<pdfrwt beam="2">  1       -3 0.19331763E+00 0.95398489E+03</pdfrwt>
<totfact> 0.53002585E+00</totfact>
</mgrwt>
</event>
<event>
 6    1  0.1603085E-006  0.3631469E+04  0.7818608E-02  0.8083321E-01
          2   -1    0    0  501    0  0.00000000000E+00  0.00000000000E+00  0.30026291934E+04  0.30026291934E+04  0.00000000000E+00 0.  1.
         -2   -1    0    0    0  501 -0.00000000000E+00 -0.00000000000E+00 -0.10980014279E+04  0.10980014279E+04  0.00000000000E+00 0. -1.
         23    2    1    2    0    0  0.95603961637E+03  0.39884619126E+03  0.26352918274E+04  0.28329713595E+04  0.88733735456E+02 0.  0.
         11    1    3    3    0    0  0.50057236296E+03  0.25673118696E+03  0.14235126460E+04  0.15306442586E+04  0.00000000000E+00 0. -1.
        -11    1    3    3    0    0  0.45546725342E+03  0.14211500430E+03  0.12117791814E+04  0.13023271009E+04  0.00000000000E+00 0.  1.
         22    1    1    2    0    0 -0.95603961637E+03 -0.39884619126E+03 -0.73066406200E+03  0.12676592617E+04  0.00000000000E+00 0. -1.
<mgrwt>
<rscale>  0 0.36314687E+04</rscale>
<asrwt>0</asrwt>
<pdfrwt beam="1">  1        2 0.46194295E+00 0.36314687E+04</pdfrwt>
<pdfrwt beam="2">  1       -2 0.16892330E+00 0.36314687E+04</pdfrwt>
<totfact> 0.30568807E-01</totfact>
</mgrwt>
</event>
<event>
 6    1  0.1749946E-006  0.3243124E+04  0.7818608E-02  0.8177520E-01
          1   -1    0    0  501    0  0.00000000000E+00  0.00000000000E+00  0.22553126056E+04  0.22553126056E+04  0.00000000000E+00 0. -1.
         -1   -1    0    0    0  501 -0.00000000000E+00 -0.00000000000E+00 -0.11658972929E+04  0.11658972929E+04  0.00000000000E+00 0.  1.
         23    2    1    2    0    0 -0.40941692527E+03 -0.94105252478E+03  0.18679461513E+04  0.21330669174E+04  0.86888301472E+02 0.  0.
         11    1    3    3    0    0 -0.18900935630E+03 -0.53451774289E+03  0.10629728207E+04  0.12047177976E+04  0.00000000000E+00 0. -1.
        -11    1    3    3    0    0 -0.22040756897E+03 -0.40653478190E+03  0.80497333058E+03  0.92834911984E+03  0.00000000000E+00 0.  1.
         22    1    1    2    0    0  0.40941692527E+03  0.94105252478E+03 -0.77853083862E+03  0.12881429811E+04  0.00000000000E+00 0.  1.
<mgrwt>
<rscale>  0 0.32431237E+04</rscale>
<asrwt>0</asrwt>
<pdfrwt beam="1">  1        1 0.34697117E+00 0.32431237E+04</pdfrwt>
<pdfrwt beam="2">  1       -1 0.17936881E+00 0.32431237E+04</pdfrwt>
<totfact> 0.35004842E-01</totfact>
</mgrwt>
</event>
<event>
 6    1  0.1603085E-006  0.2117184E+04  0.7818608E-02  0.8553711E-01
          2   -1    0    0  501    0  0.00000000000E+00  0.00000000000E+00  0.30464872509E+04  0.30464872509E+04  0.00000000000E+00 0. -1.
         -2   -1    0    0    0  501 -0.00000000000E+00 -0.00000000000E+00 -0.36783891688E+03  0.36783891688E+03  0.00000000000E+00 0.  1.
         23    2    1    2    0    0 -0.30480674226E+03  0.49469468834E+03  0.27650159168E+04  0.28268831116E+04  0.91242104845E+02 0.  0.
         13    1    3    3    0    0 -0.57016494568E+02  0.75955972264E+02  0.31441968461E+03  0.32845080064E+03  0.00000000000E+00 0. -1.
        -13    1    3    3    0    0 -0.24779024769E+03  0.41873871608E+03  0.24505962322E+04  0.24984323110E+04  0.00000000000E+00 0.  1.
         22    1    1    2    0    0  0.30480674226E+03 -0.49469468834E+03 -0.86367582862E+02  0.58744305611E+03  0.00000000000E+00 0.  1.
<mgrwt>
<rscale>  0 0.21171836E+04</rscale>
<asrwt>0</asrwt>
<pdfrwt beam="1">  1        2 0.46869033E+00 0.21171836E+04</pdfrwt>
<pdfrwt beam="2">  1       -2 0.56590604E-01 0.21171836E+04</pdfrwt>
<totfact> 0.43958208E+00</totfact>
</mgrwt>
</event>
<event>
 6    1  0.1603085E-006  0.1903482E+04  0.7818608E-02  0.8653125E-01
         -2   -1    0    0    0  501 -0.00000000000E+00  0.00000000000E+00  0.41562111059E+03  0.41562111059E+03  0.00000000000E+00 0. -1.
          2   -1    0    0  501    0  0.00000000000E+00 -0.00000000000E+00 -0.21794140774E+04  0.21794140774E+04  0.00000000000E+00 0.  1.
         23    2    1    2    0    0 -0.73014604934E+02 -0.94161413501E+03 -0.10136746205E+04  0.13889481906E+04  0.98349011946E+02 0.  0.
         11    1    3    3    0    0 -0.81503728327E+02 -0.42996170406E+03 -0.48172586530E+03  0.65082235210E+03  0.00000000000E+00 0. -1.
        -11    1    3    3    0    0  0.84891233929E+01 -0.51165243095E+03 -0.53194875521E+03  0.73812583852E+03  0.00000000000E+00 0.  1.
         22    1    1    2    0    0  0.73014604934E+02  0.94161413501E+03 -0.75011834632E+03  0.12060869974E+04  0.00000000000E+00 0. -1.
<mgrwt>
<rscale>  0 0.19034815E+04</rscale>
<asrwt>0</asrwt>
<pdfrwt beam="1">  1        2 0.33529447E+00 0.19034815E+04</pdfrwt>
<pdfrwt beam="2">  1       -2 0.63941709E-01 0.19034815E+04</pdfrwt>
<totfact> 0.11230907E+01</totfact>
</mgrwt>
</event>
<event>
 6    1  0.1603085E-006  0.3086942E+04  0.7818608E-02  0.8219331E-01
          2   -1    0    0  501    0  0.00000000000E+00  0.00000000000E+00  0.25173509782E+04  0.25173509782E+04  0.00000000000E+00 0. -1.
         -2   -1    0    0    0  501 -0.00000000000E+00 -0.00000000000E+00 -0.94635293529E+03  0.94635293529E+03  0.00000000000E+00 0.  1.
         23    2    1    2    0    0 -0.61491624659E+03  0.14075140862E+04  0.63009038793E+03  0.16624473775E+04  0.86599612036E+02 0.  0.
         11    1    3    3    0    0 -0.17548380804E+03  0.49785335341E+03  0.20071959502E+03  0.56474851413E+03  0.00000000000E+00 0.  1.
        -11    1    3    3    0    0 -0.43943243855E+03  0.90966073280E+03  0.42937079291E+03  0.10976988634E+04  0.00000000000E+00 0. -1.
         22    1    1    2    0    0  0.61491624659E+03 -0.14075140862E+04  0.94090765496E+03  0.18012565360E+04  0.00000000000E+00 0. -1.
<mgrwt>
<rscale>  0 0.30869418E+04</rscale>
<asrwt>0</asrwt>
<pdfrwt beam="1">  1        2 0.38728476E+00 0.30869418E+04</pdfrwt>
<pdfrwt beam="2">  1       -2 0.14559276E+00 0.30869418E+04</pdfrwt>
<totfact> 0.93695119E-01</totfact>
</mgrwt>
</event>
<event>
 6    1  0.1603085E-006  0.3362298E+04  0.7818608E-02  0.8147222E-01
          1   -1    0    0  501    0  0.00000000000E+00  0.00000000000E+00  0.13753782207E+04  0.13753782207E+04  0.00000000000E+00 0. -1.
         -1   -1    0    0    0  501 -0.00000000000E+00 -0.00000000000E+00 -0.20548977819E+04  0.20548977819E+04  0.00000000000E+00 0.  1.
         23    2    1    2    0    0 -0.16873989655E+03 -0.10383819980E+04  0.99615951311E+03  0.14517384905E+04  0.92198388230E+02 0.  0.
         11    1    3    3    0    0 -0.68526453371E+02 -0.47410934359E+03  0.51593076816E+03  0.70403132176E+03  0.00000000000E+00 0.  1.
        -11    1    3    3    0    0 -0.10021344318E+03 -0.56427265441E+03  0.48022874495E+03  0.74770716874E+03  0.00000000000E+00 0. -1.
         22    1    1    2    0    0  0.16873989655E+03  0.10383819980E+04 -0.16756790743E+04  0.19785375121E+04  0.00000000000E+00 0.  1.
<mgrwt>
<rscale>  0 0.33622978E+04</rscale>
<asrwt>0</asrwt>
<pdfrwt beam="1">  1        1 0.21159665E+00 0.33622978E+04</pdfrwt>
<pdfrwt beam="2">  1       -1 0.31613812E+00 0.33622978E+04</pdfrwt>
<totfact> 0.17111854E-01</totfact>
</mgrwt>
</event>
<event>
 6    1  0.1603085E-006  0.1663504E+04  0.7818608E-02  0.8782458E-01
         -1   -1    0    0    0  501 -0.00000000000E+00  0.00000000000E+00  0.11362381176E+04  0.11362381176E+04  0.00000000000E+00 0.  1.
          1   -1    0    0  501    0  0.00000000000E+00 -0.00000000000E+00 -0.60886110156E+03  0.60886110156E+03  0.00000000000E+00 0. -1.
         23    2    1    2    0    0 -0.55558494703E+03 -0.26878905899E+03  0.84543790489E+03  0.10507758647E+04  0.91882942663E+02 0.  0.
         13    1    3    3    0    0 -0.17668619283E+03 -0.13418237238E+03  0.29569253810E+03  0.36967147156E+03  0.00000000000E+00 0.  1.
        -13    1    3    3    0    0 -0.37889875420E+03 -0.13460668661E+03  0.54974536678E+03  0.68110439311E+03  0.00000000000E+00 0. -1.
         22    1    1    2    0    0  0.55558494703E+03  0.26878905899E+03 -0.31806088884E+03  0.69432335450E+03  0.00000000000E+00 0. -1.
<mgrwt>
<rscale>  0 0.16635038E+04</rscale>
<asrwt>0</asrwt>
<pdfrwt beam="1">  1        1 0.93670939E-01 0.16635038E+04</pdfrwt>
<pdfrwt beam="2">  1       -1 0.17480586E+00 0.16635038E+04</pdfrwt>
<totfact> 0.72613981E+00</totfact>
</mgrwt>
</event>
<event>
 6    1  0.1603085E-006  0.3024375E+04  0.7818608E-02  0.8236805E-01
          2   -1    0    0  501    0  0.00000000000E+00  0.00000000000E+00  0.20944629344E+04  0.20944629344E+04  0.00000000000E+00 0. -1.
         -2   -1    0    0    0  501 -0.00000000000E+00 -0.00000000000E+00 -0.10917887655E+04  0.10917887655E+04  0.00000000000E+00 0.  1.
         23    2    1    2    0    0 -0.14631794081E+04 -0.61759495857E+02  0.89265685974E+03  0.17176428262E+04  0.93554227308E+02 0.  0.
         11    1    3    3    0    0 -0.63696054894E+03  0.10986182336E+02  0.41924070230E+03  0.76262848332E+03  0.00000000000E+00 0. -1.
        -11    1    3    3    0    0 -0.82621885916E+03 -0.72745678193E+02  0.47341615744E+03  0.95501434285E+03  0.00000000000E+00 0.  1.
         22    1    1    2    0    0  0.14631794081E+04  0.61759495857E+02  0.11001730922E+03  0.14686088737E+04  0.00000000000E+00 0.  1.
<mgrwt>
<rscale>  0 0.30243750E+04</rscale>
<asrwt>0</asrwt>
<pdfrwt beam="1">  1        2 0.32222506E+00 0.30243750E+04</pdfrwt>
<pdfrwt beam="2">  1       -2 0.16796750E+00 0.30243750E+04</pdfrwt>
<totfact> 0.11142372E+00</totfact>
</mgrwt>
</event>
<event>
 6    1  0.1603085E-006  0.2422331E+04  0.7818608E-02  0.8431190E-01
         -1   -1    0    0    0  501 -0.00000000000E+00  0.00000000000E+00  0.17430827992E+04  0.17430827992E+04  0.00000000000E+00 0.  1.
          1   -1    0    0  501    0  0.00000000000E+00 -0.00000000000E+00 -0.84156732770E+03  0.84156732770E+03  0.00000000000E+00 0. -1.
         23    2    1    2    0    0  0.75697660212E+03 -0.72165942653E+03  0.10996506643E+04  0.15201955912E+04  0.89202847070E+02 0.  0.
         13    1    3    3    0    0  0.49327876083E+03 -0.41038169866E+03  0.66735885302E+03  0.92579960746E+03  0.00000000000E+00 0.  1.
        -13    1    3    3    0    0  0.26369784129E+03 -0.31127772787E+03  0.43229181124E+03  0.59439598370E+03  0.00000000000E+00 0. -1.
         22    1    1    2    0    0 -0.75697660212E+03  0.72165942653E+03 -0.19813519275E+03  0.10644545357E+04  0.00000000000E+00 0. -1.
<mgrwt>
<rscale>  0 0.24223307E+04</rscale>
<asrwt>0</asrwt>
<pdfrwt beam="1">  1        1 0.12947190E+00 0.24223307E+04</pdfrwt>
<pdfrwt beam="2">  1       -1 0.26816658E+00 0.24223307E+04</pdfrwt>
<totfact> 0.96701017E-01</totfact>
</mgrwt>
</event>
<event>
 6    1  0.1603085E-006  0.1765872E+04  0.7818608E-02  0.8724662E-01
          1   -1    0    0  501    0  0.00000000000E+00  0.00000000000E+00  0.17297706371E+04  0.17297706371E+04  0.00000000000E+00 0. -1.
         -1   -1    0    0    0  501 -0.00000000000E+00 -0.00000000000E+00 -0.45068194446E+03  0.45068194446E+03  0.00000000000E+00 0.  1.
         23    2    1    2    0    0  0.34637086857E+03 -0.77837901924E+03  0.36609099059E+03  0.93168860062E+03  0.90412161500E+02 0.  0.
         11    1    3    3    0    0  0.83153702790E+02 -0.17435804596E+03  0.12498071721E+03  0.23007704395E+03  0.00000000000E+00 0. -1.
        -11    1    3    3    0    0  0.26321716578E+03 -0.60402097328E+03  0.24111027338E+03  0.70161155667E+03  0.00000000000E+00 0.  1.
         22    1    1    2    0    0 -0.34637086857E+03  0.77837901924E+03  0.91299770209E+03  0.12487639810E+04  0.00000000000E+00 0.  1.
<mgrwt>
<rscale>  0 0.17658725E+04</rscale>
<asrwt>0</asrwt>
<pdfrwt beam="1">  1        1 0.26611856E+00 0.17658725E+04</pdfrwt>
<pdfrwt beam="2">  1       -1 0.69335685E-01 0.17658725E+04</pdfrwt>
<totfact> 0.90558671E+00</totfact>
</mgrwt>
</event>
<event>
 6    1  0.1603085E-006  0.2289659E+04  0.7818608E-02  0.8482010E-01
          1   -1    0    0  501    0  0.00000000000E+00  0.00000000000E+00  0.11032744477E+04  0.11032744477E+04  0.00000000000E+00 0. -1.
         -1   -1    0    0    0  501 -0.00000000000E+00 -0.00000000000E+00 -0.11879495255E+04  0.11879495255E+04  0.00000000000E+00 0.  1.
         23    2    1    2    0    0  0.22322563166E+03 -0.70587422525E+03 -0.91390048193E+03  0.11796022411E+04  0.90328577436E+02 0.  0.
         13    1    3    3    0    0  0.19236381711E+03 -0.52169998305E+03 -0.72852805391E+03  0.91647576933E+03  0.00000000000E+00 0. -1.
        -13    1    3    3    0    0  0.30861814553E+02 -0.18417424221E+03 -0.18537242802E+03  0.26312647180E+03  0.00000000000E+00 0.  1.
         22    1    1    2    0    0 -0.22322563166E+03  0.70587422525E+03  0.82922540413E+03  0.11116217321E+04  0.00000000000E+00 0. -1.
<mgrwt>
<rscale>  0 0.22896588E+04</rscale>
<asrwt>0</asrwt>
<pdfrwt beam="1">  1        1 0.16973453E+00 0.22896588E+04</pdfrwt>
<pdfrwt beam="2">  1       -1 0.18276147E+00 0.22896588E+04</pdfrwt>
<totfact> 0.22679156E+00</totfact>
</mgrwt>
</event>
<event>
 6    1  0.1603085E-006  0.1381034E+04  0.7818608E-02  0.8967662E-01
         -1   -1    0    0    0  501 -0.00000000000E+00  0.00000000000E+00  0.35809084000E+03  0.35809084000E+03  0.00000000000E+00 0.  1.
          1   -1    0    0  501    0  0.00000000000E+00 -0.00000000000E+00 -0.13315445777E+04  0.13315445777E+04  0.00000000000E+00 0. -1.
         23    2    1    2    0    0 -0.84022294323E+02 -0.35190715183E+03  0.22661006188E+03  0.43621948014E+03  0.89648899911E+02 0.  0.
         11    1    3    3    0    0 -0.25717119354E+01 -0.18261948470E+03  0.13559785035E+03  0.22747146396E+03  0.00000000000E+00 0. -1.
        -11    1    3    3    0    0 -0.81450582388E+02 -0.16928766712E+03  0.91012211538E+02  0.20874801618E+03  0.00000000000E+00 0.  1.
         22    1    1    2    0    0  0.84022294323E+02  0.35190715183E+03 -0.12000637996E+04  0.12534159375E+04  0.00000000000E+00 0. -1.
<mgrwt>
<rscale>  0 0.13810343E+04</rscale>
<asrwt>0</asrwt>
<pdfrwt beam="1">  1        1 0.20485301E+00 0.13810343E+04</pdfrwt>
<pdfrwt beam="2">  1       -1 0.55090898E-01 0.13810343E+04</pdfrwt>
<totfact> 0.27928552E+01</totfact>
</mgrwt>
</event>
<event>
 6    1  0.1603085E-006  0.2097363E+04  0.7818608E-02  0.8562406E-01
         -1   -1    0    0    0  501 -0.00000000000E+00  0.00000000000E+00  0.94021465125E+03  0.94021465125E+03  0.00000000000E+00 0.  1.
          1   -1    0    0  501    0  0.00000000000E+00 -0.00000000000E+00 -0.11696617375E+04  0.11696617375E+04  0.00000000000E+00 0. -1.
         23    2    1    2    0    0  0.30727361642E+02  0.23555216689E+03  0.91062138228E+03  0.94532278027E+03  0.89302088107E+02 0.  0.
         11    1    3    3    0    0  0.27853600538E+02  0.60527505091E+02  0.13967258020E+03  0.15475086945E+03  0.00000000000E+00 0. -1.
        -11    1    3    3    0    0  0.28737611046E+01  0.17502466180E+03  0.77094880209E+03  0.79057191082E+03  0.00000000000E+00 0.  1.
         22    1    1    2    0    0 -0.30727361642E+02 -0.23555216689E+03 -0.11400684685E+04  0.11645536085E+04  0.00000000000E+00 0. -1.
<mgrwt>
<rscale>  0 0.20973632E+04</rscale>
<asrwt>0</asrwt>
<pdfrwt beam="1">  1        1 0.17994796E+00 0.20973632E+04</pdfrwt>
<pdfrwt beam="2">  1       -1 0.14464841E+00 0.20973632E+04</pdfrwt>
<totfact> 0.39796030E+00</totfact>
</mgrwt>
</event>
<event>
 6    1  0.1603085E-006  0.1181346E+04  0.7818608E-02  0.9129343E-01
         -1   -1    0    0    0  501 -0.00000000000E+00  0.00000000000E+00  0.26579465991E+03  0.26579465991E+03  0.00000000000E+00 0.  1.
          1   -1    0    0  501    0  0.00000000000E+00 -0.00000000000E+00 -0.13126463918E+04  0.13126463918E+04  0.00000000000E+00 0. -1.
         23    2    1    2    0    0  0.31734562560E+03  0.46761642399E+03 -0.73890119257E+03  0.93485197418E+03  0.92735511909E+02 0.  0.
         13    1    3    3    0    0  0.50943623718E+02  0.12431292493E+03 -0.13129210051E+03  0.18784720322E+03  0.00000000000E+00 0.  1.
        -13    1    3    3    0    0  0.26640200189E+03  0.34330349906E+03 -0.60760909206E+03  0.74700477095E+03  0.00000000000E+00 0. -1.
         22    1    1    2    0    0 -0.31734562560E+03 -0.46761642399E+03 -0.30795053935E+03  0.64358907757E+03  0.00000000000E+00 0.  1.
<mgrwt>
<rscale>  0 0.11813457E+04</rscale>
<asrwt>0</asrwt>
<pdfrwt beam="1">  1        1 0.20194560E+00 0.11813457E+04</pdfrwt>
<pdfrwt beam="2">  1       -1 0.40891486E-01 0.11813457E+04</pdfrwt>
<totfact> 0.51331290E+01</totfact>
</mgrwt>
</event>
<event>
 6    1  0.1603085E-006  0.1197097E+04  0.7818608E-02  0.9115401E-01
          1   -1    0    0  501    0  0.00000000000E+00  0.00000000000E+00  0.89387007424E+03  0.89387007424E+03  0.00000000000E+00 0. -1.
         -1   -1    0    0    0  501 -0.00000000000E+00 -0.00000000000E+00 -0.40079716596E+03  0.40079716596E+03  0.00000000000E+00 0.  1.
         23    2    1    2    0    0  0.22217595735E+03 -0.53795636819E+03  0.38194697778E+03  0.70212341690E+03  0.91293968141E+02 0.  0.
         11    1    3    3    0    0  0.19068083006E+03 -0.36581837016E+03  0.24395455365E+03  0.47926619237E+03  0.00000000000E+00 0. -1.
        -11    1    3    3    0    0  0.31495127296E+02 -0.17213799803E+03  0.13799242413E+03  0.22285722453E+03  0.00000000000E+00 0.  1.
         22    1    1    2    0    0 -0.22217595735E+03  0.53795636819E+03  0.11112593050E+03  0.59254382330E+03  0.00000000000E+00 0.  1.
<mgrwt>
<rscale>  0 0.11970975E+04</rscale>
<asrwt>0</asrwt>
<pdfrwt beam="1">  1        1 0.13751847E+00 0.11970975E+04</pdfrwt>
<pdfrwt beam="2">  1       -1 0.61661103E-01 0.11970975E+04</pdfrwt>
<totfact> 0.48618342E+01</totfact>
</mgrwt>
</event>
<event>
 6    1  0.1603085E-006  0.2979743E+04  0.7818608E-02  0.8249539E-01
          2   -1    0    0  501    0  0.00000000000E+00  0.00000000000E+00  0.17294940262E+04  0.17294940262E+04  0.00000000000E+00 0. -1.
         -2   -1    0    0    0  501 -0.00000000000E+00 -0.00000000000E+00 -0.12834491157E+04  0.12834491157E+04  0.00000000000E+00 0.  1.
         23    2    1    2    0    0 -0.60094383693E+03 -0.13336187077E+04 -0.55523676662E+02  0.14665785663E+04  0.89985887200E+02 0.  0.
         11    1    3    3    0    0 -0.51980592568E+03 -0.11216856875E+04 -0.16962321153E+02  0.12363918078E+04  0.00000000000E+00 0. -1.
        -11    1    3    3    0    0 -0.81137911248E+02 -0.21193302019E+03 -0.38561355509E+02  0.23018675859E+03  0.00000000000E+00 0.  1.
         22    1    1    2    0    0  0.60094383693E+03  0.13336187077E+04  0.50156858719E+03  0.15463645755E+04  0.00000000000E+00 0. -1.
<mgrwt>
<rscale>  0 0.29797433E+04</rscale>
<asrwt>0</asrwt>
<pdfrwt beam="1">  1        2 0.26607601E+00 0.29797433E+04</pdfrwt>
<pdfrwt beam="2">  1       -2 0.19745371E+00 0.29797433E+04</pdfrwt>
<totfact> 0.11194717E+00</totfact>
</mgrwt>
</event>
<event>
 6    1  0.1603085E-006  0.2456922E+04  0.7818608E-02  0.8418495E-01
          2   -1    0    0  501    0  0.00000000000E+00  0.00000000000E+00  0.11957640965E+04  0.11957640965E+04  0.00000000000E+00 0. -1.
         -2   -1    0    0    0  501 -0.00000000000E+00 -0.00000000000E+00 -0.12620516122E+04  0.12620516122E+04  0.00000000000E+00 0.  1.
         23    2    1    2    0    0  0.14414155283E+03 -0.90148730245E+03 -0.85292357674E+03  0.12527213405E+04  0.91520410427E+02 0.  0.
         11    1    3    3    0    0  0.12194812914E+03 -0.74993411089E+03 -0.66022262692E+03  0.10065616891E+04  0.00000000000E+00 0. -1.
        -11    1    3    3    0    0  0.22193423689E+02 -0.15155319156E+03 -0.19270094982E+03  0.24615965143E+03  0.00000000000E+00 0.  1.
         22    1    1    2    0    0 -0.14414155283E+03  0.90148730245E+03  0.78663606105E+03  0.12050943682E+04  0.00000000000E+00 0. -1.
<mgrwt>
<rscale>  0 0.24569217E+04</rscale>
<asrwt>0</asrwt>
<pdfrwt beam="1">  1        2 0.18396371E+00 0.24569217E+04</pdfrwt>
<pdfrwt beam="2">  1       -2 0.19416179E+00 0.24569217E+04</pdfrwt>
<totfact> 0.24788795E+00</totfact>
</mgrwt>
</event>
<event>
 6    1  0.1603085E-006  0.7806780E+03  0.7818608E-02  0.9588414E-01
         -2   -1    0    0    0  501 -0.00000000000E+00  0.00000000000E+00  0.27471814511E+03  0.27471814511E+03  0.00000000000E+00 0.  1.
          2   -1    0    0  501    0  0.00000000000E+00 -0.00000000000E+00 -0.55462130441E+03  0.55462130441E+03  0.00000000000E+00 0. -1.
         23    2    1    2    0    0  0.54495278623E+02 -0.35309059903E+03  0.10487422469E+02  0.36893810668E+03  0.91447438520E+02 0.  0.
         11    1    3    3    0    0  0.33900566660E+02 -0.18581198153E+03  0.50903668007E+02  0.19561831284E+03  0.00000000000E+00 0.  1.
        -11    1    3    3    0    0  0.20594711963E+02 -0.16727861750E+03 -0.40416245538E+02  0.17331979384E+03  0.00000000000E+00 0. -1.
         22    1    1    2    0    0 -0.54495278623E+02  0.35309059903E+03 -0.29039058177E+03  0.46040134285E+03  0.00000000000E+00 0. -1.
<mgrwt>
<rscale>  0 0.78067800E+03</rscale>
<asrwt>0</asrwt>
<pdfrwt beam="1">  1        2 0.85326354E-01 0.78067800E+03</pdfrwt>
<pdfrwt beam="2">  1       -2 0.42264330E-01 0.78067800E+03</pdfrwt>
<totfact> 0.29118707E+02</totfact>
</mgrwt>
</event>
<event>
 6    1  0.1603085E-006  0.3563266E+04  0.7818608E-02  0.8098958E-01
          2   -1    0    0  501    0  0.00000000000E+00  0.00000000000E+00  0.31579005747E+04  0.31579005747E+04  0.00000000000E+00 0. -1.
         -2   -1    0    0    0  501 -0.00000000000E+00 -0.00000000000E+00 -0.10051664486E+04  0.10051664486E+04  0.00000000000E+00 0.  1.
         23    2    1    2    0    0  0.14360027391E+04  0.10515629593E+04  0.10232473937E+04  0.20550753718E+04  0.91711674760E+02 0.  0.
         13    1    3    3    0    0  0.70531659079E+03  0.55120688000E+03  0.47250212627E+03  0.10122049087E+04  0.00000000000E+00 0.  1.
        -13    1    3    3    0    0  0.73068614829E+03  0.50035607927E+03  0.55074526742E+03  0.10428704632E+04  0.00000000000E+00 0. -1.
         22    1    1    2    0    0 -0.14360027391E+04 -0.10515629593E+04  0.11294867324E+04  0.21079916515E+04  0.00000000000E+00 0.  1.
<mgrwt>
<rscale>  0 0.35632658E+04</rscale>
<asrwt>0</asrwt>
<pdfrwt beam="1">  1        2 0.48583085E+00 0.35632658E+04</pdfrwt>
<pdfrwt beam="2">  1       -2 0.15464099E+00 0.35632658E+04</pdfrwt>
<totfact> 0.31158201E-01</totfact>
</mgrwt>
</event>
<event>
 6    1  0.1992723E-006  0.4914301E+04  0.7818608E-02  0.7841865E-01
         -1   -1    0    0    0  501 -0.00000000000E+00  0.00000000000E+00  0.26985239090E+04  0.26985239090E+04  0.00000000000E+00 0.  1.
          1   -1    0    0  501    0  0.00000000000E+00 -0.00000000000E+00 -0.22373670226E+04  0.22373670226E+04  0.00000000000E+00 0. -1.
         23    2    1    2    0    0  0.49430958331E+03  0.72001158533E+03  0.25368037182E+04  0.26839876439E+04  0.75219150681E+02 0.  0.
         13    1    3    3    0    0  0.21089537726E+03  0.33198031192E+03  0.10363898039E+04  0.11085087340E+04  0.00000000000E+00 0.  1.
        -13    1    3    3    0    0  0.28341420605E+03  0.38803127341E+03  0.15004139143E+04  0.15754789099E+04  0.00000000000E+00 0. -1.
         22    1    1    2    0    0 -0.49430958331E+03 -0.72001158533E+03 -0.20756468318E+04  0.22519032878E+04  0.00000000000E+00 0. -1.
<mgrwt>
<rscale>  0 0.49143009E+04</rscale>
<asrwt>0</asrwt>
<pdfrwt beam="1">  1        1 0.34421031E+00 0.49143009E+04</pdfrwt>
<pdfrwt beam="2">  1       -1 0.41515752E+00 0.49143009E+04</pdfrwt>
<totfact> 0.84122785E-03</totfact>
</mgrwt>
</event>
<event>
 6    1  0.1603085E-006  0.2039390E+04  0.7818608E-02  0.8588423E-01
          3   -1    0    0  501    0  0.00000000000E+00  0.00000000000E+00  0.16071877071E+04  0.16071877071E+04  0.00000000000E+00 0. -1.
         -3   -1    0    0    0  501 -0.00000000000E+00 -0.00000000000E+00 -0.64695497927E+03  0.64695497927E+03  0.00000000000E+00 0.  1.
         23    2    1    2    0    0  0.34015272277E+03  0.64738336165E+03 -0.30108683568E+03  0.79615224296E+03  0.91629796487E+02 0.  0.
         11    1    3    3    0    0  0.21960082071E+03  0.48421828399E+03 -0.24661521990E+03  0.58609805809E+03  0.00000000000E+00 0. -1.
        -11    1    3    3    0    0  0.12055190206E+03  0.16316507766E+03 -0.54471615780E+02  0.21005418487E+03  0.00000000000E+00 0.  1.
         22    1    1    2    0    0 -0.34015272277E+03 -0.64738336165E+03  0.12613195635E+04  0.14579904434E+04  0.00000000000E+00 0. -1.
<mgrwt>
<rscale>  0 0.20393902E+04</rscale>
<asrwt>0</asrwt>
<pdfrwt beam="1">  1        3 0.24725965E+00 0.20393902E+04</pdfrwt>
<pdfrwt beam="2">  1       -3 0.99531536E-01 0.20393902E+04</pdfrwt>
<totfact> 0.16382502E-01</totfact>
</mgrwt>
</event>
<event>
 6    1  0.1603085E-006  0.2825402E+04  0.7818608E-02  0.8295425E-01
         -2   -1    0    0    0  501 -0.00000000000E+00  0.00000000000E+00  0.10716733425E+04  0.10716733425E+04  0.00000000000E+00 0.  1.
          2   -1    0    0  501    0  0.00000000000E+00 -0.00000000000E+00 -0.18622509203E+04  0.18622509203E+04  0.00000000000E+00 0. -1.
         23    2    1    2    0    0 -0.16155764160E+03  0.10138591277E+04  0.60973524468E+03  0.11975812082E+04  0.91719569061E+02 0.  0.
         13    1    3    3    0    0 -0.11097684240E+03  0.61491208209E+03  0.32065629469E+03  0.70231986130E+03  0.00000000000E+00 0. -1.
        -13    1    3    3    0    0 -0.50580799193E+02  0.39894704559E+03  0.28907894998E+03  0.49526134693E+03  0.00000000000E+00 0.  1.
         22    1    1    2    0    0  0.16155764160E+03 -0.10138591277E+04 -0.14003128225E+04  0.17363430546E+04  0.00000000000E+00 0. -1.
<mgrwt>
<rscale>  0 0.28254024E+04</rscale>
<asrwt>0</asrwt>
<pdfrwt beam="1">  1        2 0.28650014E+00 0.28254024E+04</pdfrwt>
<pdfrwt beam="2">  1       -2 0.16487282E+00 0.28254024E+04</pdfrwt>
<totfact> 0.16056564E+00</totfact>
</mgrwt>
</event>
<event>
 6    1  0.1603085E-006  0.4992480E+04  0.7818608E-02  0.7829668E-01
          2   -1    0    0  501    0  0.00000000000E+00  0.00000000000E+00  0.28326795598E+04  0.28326795598E+04  0.00000000000E+00 0. -1.
         -2   -1    0    0    0  501 -0.00000000000E+00 -0.00000000000E+00 -0.21997595902E+04  0.21997595902E+04  0.00000000000E+00 0.  1.
         23    2    1    2    0    0  0.47965288920E+03  0.16761121907E+04 -0.14831933812E+04  0.22906596761E+04  0.88544768910E+02 0.  0.
         13    1    3    3    0    0  0.27798987816E+03  0.94392670200E+03 -0.78012609167E+03  0.12557359237E+04  0.00000000000E+00 0. -1.
        -13    1    3    3    0    0  0.20166301105E+03  0.73218548866E+03 -0.70306728950E+03  0.10349237525E+04  0.00000000000E+00 0.  1.
         22    1    1    2    0    0 -0.47965288920E+03 -0.16761121907E+04  0.21161133508E+04  0.27417794738E+04  0.00000000000E+00 0. -1.
<mgrwt>
<rscale>  0 0.49924800E+04</rscale>
<asrwt>0</asrwt>
<pdfrwt beam="1">  1        2 0.43579686E+00 0.49924800E+04</pdfrwt>
<pdfrwt beam="2">  1       -2 0.33842455E+00 0.49924800E+04</pdfrwt>
<totfact> 0.29594988E-02</totfact>
</mgrwt>
</event>
<event>
 6    1  0.1603085E-006  0.9679121E+03  0.7818608E-02  0.9344456E-01
         -2   -1    0    0    0  501 -0.00000000000E+00  0.00000000000E+00  0.17675114359E+03  0.17675114359E+03  0.00000000000E+00 0.  1.
          2   -1    0    0  501    0  0.00000000000E+00 -0.00000000000E+00 -0.13251029700E+04  0.13251029700E+04  0.00000000000E+00 0. -1.
         23    2    1    2    0    0 -0.41008874082E+02 -0.45437514972E+03 -0.35006754254E+03  0.58239976327E+03  0.92215483952E+02 0.  0.
         13    1    3    3    0    0 -0.18414809171E+02 -0.11259284869E+03 -0.13994711735E+03  0.18055871739E+03  0.00000000000E+00 0.  1.
        -13    1    3    3    0    0 -0.22594064912E+02 -0.34178230103E+03 -0.21012042519E+03  0.40184104587E+03  0.00000000000E+00 0. -1.
         22    1    1    2    0    0  0.41008874082E+02  0.45437514972E+03 -0.79828428383E+03  0.91945435027E+03  0.00000000000E+00 0. -1.
<mgrwt>
<rscale>  0 0.96791211E+03</rscale>
<asrwt>0</asrwt>
<pdfrwt beam="1">  1        2 0.20386199E+00 0.96791211E+03</pdfrwt>
<pdfrwt beam="2">  1       -2 0.27192485E-01 0.96791211E+03</pdfrwt>
<totfact> 0.19636816E+02</totfact>
</mgrwt>
</event>
<event>
 6    1  0.1603085E-006  0.1388463E+04  0.7818608E-02  0.8962212E-01
         -1   -1    0    0    0  501 -0.00000000000E+00  0.00000000000E+00  0.24161365259E+03  0.24161365259E+03  0.00000000000E+00 0. -1.
          1   -1    0    0  501    0  0.00000000000E+00 -0.00000000000E+00 -0.19947441777E+04  0.19947441777E+04  0.00000000000E+00 0.  1.
         23    2    1    2    0    0  0.64316308682E+03 -0.23887298895E+03 -0.74496240104E+03  0.10168817020E+04  0.91434981261E+02 0.  0.
         11    1    3    3    0    0  0.40615348572E+03 -0.12131919111E+03 -0.40660681172E+03  0.58737390087E+03  0.00000000000E+00 0.  1.
        -11    1    3    3    0    0  0.23700960110E+03 -0.11755379784E+03 -0.33835558933E+03  0.42950780113E+03  0.00000000000E+00 0. -1.
         22    1    1    2    0    0 -0.64316308682E+03  0.23887298895E+03 -0.10081681241E+04  0.12194761283E+04  0.00000000000E+00 0. -1.
<mgrwt>
<rscale>  0 0.13884631E+04</rscale>
<asrwt>0</asrwt>
<pdfrwt beam="1">  1        1 0.30688373E+00 0.13884631E+04</pdfrwt>
<pdfrwt beam="2">  1       -1 0.37171330E-01 0.13884631E+04</pdfrwt>
<totfact> 0.20432717E+01</totfact>
</mgrwt>
</event>
<event>
 6    1  0.1603085E-006  0.3551724E+04  0.7818608E-02  0.8101640E-01
          2   -1    0    0  501    0  0.00000000000E+00  0.00000000000E+00  0.16363602542E+04  0.16363602542E+04  0.00000000000E+00 0. -1.
         -2   -1    0    0    0  501 -0.00000000000E+00 -0.00000000000E+00 -0.19272561987E+04  0.19272561987E+04  0.00000000000E+00 0.  1.
         23    2    1    2    0    0  0.89926524034E+03 -0.11370070143E+04 -0.11727564297E+04  0.18668133299E+04  0.90396029330E+02 0.  0.
         11    1    3    3    0    0  0.66152226062E+03 -0.79945659525E+03 -0.88165562566E+03  0.13616384216E+04  0.00000000000E+00 0. -1.
        -11    1    3    3    0    0  0.23774297972E+03 -0.33755041907E+03 -0.29110080407E+03  0.50517490827E+03  0.00000000000E+00 0.  1.
         22    1    1    2    0    0 -0.89926524034E+03  0.11370070143E+04  0.88186048522E+03  0.16968031231E+04  0.00000000000E+00 0. -1.
<mgrwt>
<rscale>  0 0.35517238E+04</rscale>
<asrwt>0</asrwt>
<pdfrwt beam="1">  1        2 0.25174773E+00 0.35517238E+04</pdfrwt>
<pdfrwt beam="2">  1       -2 0.29650095E+00 0.35517238E+04</pdfrwt>
<totfact> 0.29072977E-01</totfact>
</mgrwt>
</event>
<event>
 6    1  0.1603085E-006  0.1683386E+04  0.7818608E-02  0.8770897E-01
          2   -1    0    0  501    0  0.00000000000E+00  0.00000000000E+00  0.24942535703E+04  0.24942535703E+04  0.00000000000E+00 0.  1.
         -2   -1    0    0    0  501 -0.00000000000E+00 -0.00000000000E+00 -0.28403157576E+03  0.28403157576E+03  0.00000000000E+00 0. -1.
         23    2    1    2    0    0  0.33805668914E+03  0.55237382546E+03  0.19892560609E+04  0.20940153806E+04  0.91441621654E+02 0.  0.
         11    1    3    3    0    0  0.26180651654E+03  0.41172863933E+03  0.16124170704E+04  0.16846221931E+04  0.00000000000E+00 0. -1.
        -11    1    3    3    0    0  0.76250172600E+02  0.14064518613E+03  0.37683899051E+03  0.40939318750E+03  0.00000000000E+00 0.  1.
         22    1    1    2    0    0 -0.33805668914E+03 -0.55237382546E+03  0.22096593365E+03  0.68426976549E+03  0.00000000000E+00 0. -1.
<mgrwt>
<rscale>  0 0.16833856E+04</rscale>
<asrwt>0</asrwt>
<pdfrwt beam="1">  1        2 0.38373130E+00 0.16833856E+04</pdfrwt>
<pdfrwt beam="2">  1       -2 0.43697167E-01 0.16833856E+04</pdfrwt>
<totfact> 0.16626706E+01</totfact>
</mgrwt>
</event>
<event>
 6    1  0.1603085E-006  0.2694365E+04  0.7818608E-02  0.8336836E-01
         -1   -1    0    0    0  501 -0.00000000000E+00  0.00000000000E+00  0.72800273944E+03  0.72800273944E+03  0.00000000000E+00 0. -1.
          1   -1    0    0  501    0  0.00000000000E+00 -0.00000000000E+00 -0.24929855690E+04  0.24929855690E+04  0.00000000000E+00 0.  1.
         23    2    1    2    0    0  0.10755747332E+04 -0.75852549211E+03 -0.12184958085E+04  0.17959023486E+04  0.91166230335E+02 0.  0.
         11    1    3    3    0    0  0.42726392751E+03 -0.34561763247E+03 -0.54442545946E+03  0.77356647583E+03  0.00000000000E+00 0.  1.
        -11    1    3    3    0    0  0.64831080564E+03 -0.41290785965E+03 -0.67407034902E+03  0.10223358727E+04  0.00000000000E+00 0. -1.
         22    1    1    2    0    0 -0.10755747332E+04  0.75852549211E+03 -0.54648702106E+03  0.14250859599E+04  0.00000000000E+00 0. -1.
<mgrwt>
<rscale>  0 0.26943647E+04</rscale>
<asrwt>0</asrwt>
<pdfrwt beam="1">  1        1 0.38353624E+00 0.26943647E+04</pdfrwt>
<pdfrwt beam="2">  1       -1 0.11200042E+00 0.26943647E+04</pdfrwt>
<totfact> 0.87473100E-01</totfact>
</mgrwt>
</event>
<event>
 6    1  0.1603085E-006  0.1971805E+04  0.7818608E-02  0.8619917E-01
         -1   -1    0    0    0  501 -0.00000000000E+00  0.00000000000E+00  0.10768039888E+04  0.10768039888E+04  0.00000000000E+00 0.  1.
          1   -1    0    0  501    0  0.00000000000E+00 -0.00000000000E+00 -0.90267515561E+03  0.90267515561E+03  0.00000000000E+00 0. -1.
         23    2    1    2    0    0  0.22104263285E+02  0.43299728444E+03  0.97239516098E+03  0.10710715394E+04  0.11690443331E+03 0.  0.
         11    1    3    3    0    0  0.70577697798E+00  0.38218271494E+03  0.91437072764E+03  0.99102873484E+03  0.00000000000E+00 0.  1.
        -11    1    3    3    0    0  0.21398486307E+02  0.50814569494E+02  0.58024433345E+02  0.80042804512E+02  0.00000000000E+00 0. -1.
         22    1    1    2    0    0 -0.22104263285E+02 -0.43299728444E+03 -0.79826632781E+03  0.90840760504E+03  0.00000000000E+00 0. -1.
<mgrwt>
<rscale>  0 0.19718055E+04</rscale>
<asrwt>0</asrwt>
<pdfrwt beam="1">  1        1 0.13887310E+00 0.19718055E+04</pdfrwt>
<pdfrwt beam="2">  1       -1 0.16566215E+00 0.19718055E+04</pdfrwt>
<totfact> 0.44607772E+00</totfact>
</mgrwt>
</event>
<event>
 6    1  0.1603085E-006  0.3868479E+04  0.7818608E-02  0.8031617E-01
          1   -1    0    0  501    0  0.00000000000E+00  0.00000000000E+00  0.27137774798E+04  0.27137774798E+04  0.00000000000E+00 0. -1.
         -1   -1    0    0    0  501 -0.00000000000E+00 -0.00000000000E+00 -0.13786255098E+04  0.13786255098E+04  0.00000000000E+00 0.  1.
         23    2    1    2    0    0 -0.13097650002E+04  0.13215303696E+04  0.12225838418E+04  0.22283755067E+04  0.94969862374E+02 0.  0.
         11    1    3    3    0    0 -0.11312610951E+04  0.11828966347E+04  0.10864602532E+04  0.19645335312E+04  0.00000000000E+00 0.  1.
        -11    1    3    3    0    0 -0.17850390513E+03  0.13863373489E+03  0.13612358867E+03  0.26384197541E+03  0.00000000000E+00 0. -1.
         22    1    1    2    0    0  0.13097650002E+04 -0.13215303696E+04  0.11256812818E+03  0.18640274829E+04  0.00000000000E+00 0.  1.
<mgrwt>
<rscale>  0 0.38684792E+04</rscale>
<asrwt>0</asrwt>
<pdfrwt beam="1">  1        1 0.41750423E+00 0.38684792E+04</pdfrwt>
<pdfrwt beam="2">  1       -1 0.21209623E+00 0.38684792E+04</pdfrwt>
<totfact> 0.94437706E-02</totfact>
</mgrwt>
</event>
<event>
 6    1  0.1603085E-006  0.7009676E+04  0.7818608E-02  0.7576438E-01
          2   -1    0    0  501    0  0.00000000000E+00  0.00000000000E+00  0.43413946757E+04  0.43413946757E+04  0.00000000000E+00 0. -1.
         -2   -1    0    0    0  501 -0.00000000000E+00 -0.00000000000E+00 -0.28294799339E+04  0.28294799339E+04  0.00000000000E+00 0.  1.
         23    2    1    2    0    0 -0.45335257443E+03  0.15605490474E+04  0.39321646049E+04  0.42556642765E+04  0.88983529940E+02 0.  0.
         13    1    3    3    0    0 -0.15905465125E+03  0.47112610832E+03  0.11127606499E+04  0.12188086216E+04  0.00000000000E+00 0. -1.
        -13    1    3    3    0    0 -0.29429792318E+03  0.10894229391E+04  0.28194039549E+04  0.30368556549E+04  0.00000000000E+00 0.  1.
         22    1    1    2    0    0  0.45335257443E+03 -0.15605490474E+04 -0.24202498631E+04  0.29152103331E+04  0.00000000000E+00 0.  1.
<mgrwt>
<rscale>  0 0.70096759E+04</rscale>
<asrwt>0</asrwt>
<pdfrwt beam="1">  1        2 0.66790687E+00 0.70096759E+04</pdfrwt>
<pdfrwt beam="2">  1       -2 0.43530461E+00 0.70096759E+04</pdfrwt>
<totfact> 0.46788403E-04</totfact>
</mgrwt>
</event>
<event>
 6    1  0.1603085E-006  0.4583700E+04  0.7818608E-02  0.7896145E-01
         -2   -1    0    0    0  501 -0.00000000000E+00  0.00000000000E+00  0.24238737976E+04  0.24238737976E+04  0.00000000000E+00 0.  1.
          2   -1    0    0  501    0  0.00000000000E+00 -0.00000000000E+00 -0.21670174744E+04  0.21670174744E+04  0.00000000000E+00 0. -1.
         23    2    1    2    0    0 -0.10758879693E+04 -0.20179113843E+04  0.26622285088E+03  0.23040618055E+04  0.91240999156E+02 0.  0.
         11    1    3    3    0    0 -0.42865730956E+03 -0.79517818221E+03  0.14992142379E+03  0.91571385476E+03  0.00000000000E+00 0. -1.
        -11    1    3    3    0    0 -0.64723065976E+03 -0.12227332021E+04  0.11630142710E+03  0.13883479507E+04  0.00000000000E+00 0.  1.
         22    1    1    2    0    0  0.10758879693E+04  0.20179113843E+04 -0.93665276421E+01  0.22868294666E+04  0.00000000000E+00 0.  1.
<mgrwt>
<rscale>  0 0.45837002E+04</rscale>
<asrwt>0</asrwt>
<pdfrwt beam="1">  1        2 0.33338730E+00 0.45837002E+04</pdfrwt>
<pdfrwt beam="2">  1       -2 0.37290366E+00 0.45837002E+04</pdfrwt>
<totfact> 0.45114460E-02</totfact>
</mgrwt>
</event>
<event>
 6    1  0.1603085E-006  0.2106285E+04  0.7818608E-02  0.8558480E-01
          2   -1    0    0  501    0  0.00000000000E+00  0.00000000000E+00  0.13056340046E+04  0.13056340046E+04  0.00000000000E+00 0. -1.
         -2   -1    0    0    0  501 -0.00000000000E+00 -0.00000000000E+00 -0.84947942452E+03  0.84947942452E+03  0.00000000000E+00 0.  1.
         23    2    1    2    0    0  0.89770208416E+03  0.32037308069E+03 -0.22496231450E+03  0.98360663580E+03  0.91465995348E+02 0.  0.
         13    1    3    3    0    0  0.33280875520E+03  0.15124359005E+03 -0.11936556958E+03  0.38455744729E+03  0.00000000000E+00 0. -1.
        -13    1    3    3    0    0  0.56489332897E+03  0.16912949064E+03 -0.10559674492E+03  0.59904918851E+03  0.00000000000E+00 0.  1.
         22    1    1    2    0    0 -0.89770208416E+03 -0.32037308069E+03  0.68111689460E+03  0.11715067933E+04  0.00000000000E+00 0.  1.
<mgrwt>
<rscale>  0 0.21062851E+04</rscale>
<asrwt>0</asrwt>
<pdfrwt beam="1">  1        2 0.20086677E+00 0.21062851E+04</pdfrwt>
<pdfrwt beam="2">  1       -2 0.13068914E+00 0.21062851E+04</pdfrwt>
<totfact> 0.64767948E+00</totfact>
</mgrwt>
</event>
<event>
 6    1  0.1603085E-006  0.3033985E+04  0.7818608E-02  0.8234092E-01
          2   -1    0    0  501    0  0.00000000000E+00  0.00000000000E+00  0.23811695198E+04  0.23811695198E+04  0.00000000000E+00 0. -1.
         -2   -1    0    0    0  501 -0.00000000000E+00 -0.00000000000E+00 -0.96644360905E+03  0.96644360905E+03  0.00000000000E+00 0.  1.
         23    2    1    2    0    0  0.13884673346E+04 -0.96700141389E+02  0.46090160113E+02  0.13955997389E+04  0.91552563306E+02 0.  0.
         13    1    3    3    0    0  0.78784795219E+03 -0.98229738844E+02  0.39812483233E+02  0.79494560266E+03  0.00000000000E+00 0. -1.
        -13    1    3    3    0    0  0.60061938239E+03  0.15295974551E+01  0.62776768798E+01  0.60065413626E+03  0.00000000000E+00 0.  1.
         22    1    1    2    0    0 -0.13884673346E+04  0.96700141389E+02  0.13686357506E+04  0.19520133899E+04  0.00000000000E+00 0. -1.
<mgrwt>
<rscale>  0 0.30339849E+04</rscale>
<asrwt>0</asrwt>
<pdfrwt beam="1">  1        2 0.36633377E+00 0.30339849E+04</pdfrwt>
<pdfrwt beam="2">  1       -2 0.14868363E+00 0.30339849E+04</pdfrwt>
<totfact> 0.10668635E+00</totfact>
</mgrwt>
</event>
<event>
 6    1  0.1603085E-006  0.2480530E+04  0.7818608E-02  0.8409955E-01
         -1   -1    0    0    0  501 -0.00000000000E+00  0.00000000000E+00  0.12862662207E+04  0.12862662207E+04  0.00000000000E+00 0.  1.
          1   -1    0    0  501    0  0.00000000000E+00 -0.00000000000E+00 -0.11959093383E+04  0.11959093383E+04  0.00000000000E+00 0. -1.
         23    2    1    2    0    0 -0.51914327879E+03  0.99746044397E+02 -0.10756046597E+04  0.12019703665E+04  0.91369363755E+02 0.  0.
         13    1    3    3    0    0 -0.34117464034E+03  0.43932235563E+02 -0.77937937254E+03  0.85191688730E+03  0.00000000000E+00 0.  1.
        -13    1    3    3    0    0 -0.17796863845E+03  0.55813808834E+02 -0.29622528718E+03  0.35005347919E+03  0.00000000000E+00 0. -1.
         22    1    1    2    0    0  0.51914327879E+03 -0.99746044397E+02  0.11659615421E+04  0.12802051925E+04  0.00000000000E+00 0.  1.
<mgrwt>
<rscale>  0 0.24805304E+04</rscale>
<asrwt>0</asrwt>
<pdfrwt beam="1">  1        1 0.18398605E+00 0.24805304E+04</pdfrwt>
<pdfrwt beam="2">  1       -1 0.19788711E+00 0.24805304E+04</pdfrwt>
<totfact> 0.14904526E+00</totfact>
</mgrwt>
</event>
<event>
 6    1  0.1603085E-006  0.3300771E+04  0.7818608E-02  0.8162699E-01
         -2   -1    0    0    0  501 -0.00000000000E+00  0.00000000000E+00  0.18995191861E+04  0.18995191861E+04  0.00000000000E+00 0.  1.
          2   -1    0    0  501    0  0.00000000000E+00 -0.00000000000E+00 -0.14339271684E+04  0.14339271684E+04  0.00000000000E+00 0. -1.
         23    2    1    2    0    0 -0.39743113585E+03 -0.22356931419E+03 -0.13671634052E+04  0.14448153196E+04  0.10208224746E+03 0.  0.
         13    1    3    3    0    0 -0.13061928143E+03 -0.39696007245E+02 -0.52514597012E+03  0.54260064468E+03  0.00000000000E+00 0.  1.
        -13    1    3    3    0    0 -0.26681185443E+03 -0.18387330695E+03 -0.84201743507E+03  0.90221467492E+03  0.00000000000E+00 0. -1.
         22    1    1    2    0    0  0.39743113585E+03  0.22356931419E+03  0.18327554228E+04  0.18886310349E+04  0.00000000000E+00 0.  1.
<mgrwt>
<rscale>  0 0.33007709E+04</rscale>
<asrwt>0</asrwt>
<pdfrwt beam="1">  1        2 0.22060418E+00 0.33007709E+04</pdfrwt>
<pdfrwt beam="2">  1       -2 0.29223372E+00 0.33007709E+04</pdfrwt>
<totfact> 0.40976678E-01</totfact>
</mgrwt>
</event>
<event>
 6    1  0.1765200E-006  0.4209727E+04  0.7818608E-02  0.7963525E-01
         -2   -1    0    0    0  501 -0.00000000000E+00  0.00000000000E+00  0.14508229884E+04  0.14508229884E+04  0.00000000000E+00 0.  1.
          2   -1    0    0  501    0  0.00000000000E+00 -0.00000000000E+00 -0.30537499891E+04  0.30537499891E+04  0.00000000000E+00 0. -1.
         23    2    1    2    0    0  0.16828388484E+04  0.11479178729E+04 -0.23896948221E+03  0.20530342475E+04  0.90449850235E+02 0.  0.
         11    1    3    3    0    0  0.67208950571E+03  0.48754093681E+03 -0.59761056709E+02  0.83244930935E+03  0.00000000000E+00 0.  1.
        -11    1    3    3    0    0  0.10107493427E+04  0.66037693605E+03 -0.17920842550E+03  0.12205849382E+04  0.00000000000E+00 0. -1.
         22    1    1    2    0    0 -0.16828388484E+04 -0.11479178729E+04 -0.13639575185E+04  0.24515387300E+04  0.00000000000E+00 0. -1.
<mgrwt>
<rscale>  0 0.42097272E+04</rscale>
<asrwt>0</asrwt>
<pdfrwt beam="1">  1        2 0.46980769E+00 0.42097272E+04</pdfrwt>
<pdfrwt beam="2">  1       -2 0.22320353E+00 0.42097272E+04</pdfrwt>
<totfact> 0.11775371E-01</totfact>
</mgrwt>
</event>
<event>
 6    1  0.1603085E-006  0.1557931E+04  0.7818608E-02  0.8846818E-01
          2   -1    0    0  501    0  0.00000000000E+00  0.00000000000E+00  0.31582293734E+04  0.31582293734E+04  0.00000000000E+00 0. -1.
         -2   -1    0    0    0  501 -0.00000000000E+00 -0.00000000000E+00 -0.19212894581E+03  0.19212894581E+03  0.00000000000E+00 0.  1.
         23    2    1    2    0    0  0.64525486796E+03 -0.98370699577E+02  0.58474473463E+03  0.88117108945E+03  0.92224969738E+02 0.  0.
         13    1    3    3    0    0  0.25315958776E+03 -0.58334301037E+02  0.17885181285E+03  0.31540551440E+03  0.00000000000E+00 0. -1.
        -13    1    3    3    0    0  0.39209528020E+03 -0.40036398541E+02  0.40589292178E+03  0.56576557505E+03  0.00000000000E+00 0.  1.
         22    1    1    2    0    0 -0.64525486796E+03  0.98370699577E+02  0.23813556929E+04  0.24691872297E+04  0.00000000000E+00 0. -1.
<mgrwt>
<rscale>  0 0.15579310E+04</rscale>
<asrwt>0</asrwt>
<pdfrwt beam="1">  1        2 0.48588141E+00 0.15579310E+04</pdfrwt>
<pdfrwt beam="2">  1       -2 0.29558302E-01 0.15579310E+04</pdfrwt>
<totfact> 0.14115934E+01</totfact>
</mgrwt>
</event>
<event>
 6    1  0.2421735E-006  0.3534320E+04  0.7818608E-02  0.8105704E-01
         -1   -1    0    0    0  501 -0.00000000000E+00  0.00000000000E+00  0.17470436095E+04  0.17470436095E+04  0.00000000000E+00 0.  1.
          1   -1    0    0  501    0  0.00000000000E+00 -0.00000000000E+00 -0.17875076762E+04  0.17875076762E+04  0.00000000000E+00 0. -1.
         23    2    1    2    0    0 -0.47659593893E+03  0.14826288019E+03  0.16738718036E+04  0.17490337006E+04  0.90257965422E+02 0.  0.
         13    1    3    3    0    0 -0.35798169924E+03  0.13947305903E+03  0.13655372067E+04  0.14185540152E+04  0.00000000000E+00 0.  1.
        -13    1    3    3    0    0 -0.11861423970E+03  0.87898211597E+01  0.30833459687E+03  0.33047968537E+03  0.00000000000E+00 0. -1.
         22    1    1    2    0    0  0.47659593893E+03 -0.14826288019E+03 -0.17143358703E+04  0.17855175851E+04  0.00000000000E+00 0. -1.
<mgrwt>
<rscale>  0 0.35343197E+04</rscale>
<asrwt>0</asrwt>
<pdfrwt beam="1">  1        1 0.27500118E+00 0.35343197E+04</pdfrwt>
<pdfrwt beam="2">  1       -1 0.26877594E+00 0.35343197E+04</pdfrwt>
<totfact> 0.17785141E-01</totfact>
</mgrwt>
</event>
<event>
 6    1  0.1603085E-006  0.6636212E+03  0.7818608E-02  0.9781550E-01
          1   -1    0    0  501    0  0.00000000000E+00  0.00000000000E+00  0.34930392905E+03  0.34930392905E+03  0.00000000000E+00 0. -1.
         -1   -1    0    0    0  501 -0.00000000000E+00 -0.00000000000E+00 -0.31519330204E+03  0.31519330204E+03  0.00000000000E+00 0.  1.
         23    2    1    2    0    0  0.16450053944E+02  0.29541434486E+03 -0.11885322704E+03  0.33142339533E+03  0.90416469576E+02 0.  0.
         13    1    3    3    0    0  0.12433712057E+02  0.19400819496E+03 -0.12265731367E+03  0.22986646886E+03  0.00000000000E+00 0.  1.
        -13    1    3    3    0    0  0.40163418873E+01  0.10140614990E+03  0.38040866336E+01  0.10155692647E+03  0.00000000000E+00 0. -1.
         22    1    1    2    0    0 -0.16450053944E+02 -0.29541434486E+03  0.15296385405E+03  0.33307383576E+03  0.00000000000E+00 0.  1.
<mgrwt>
<rscale>  0 0.66362115E+03</rscale>
<asrwt>0</asrwt>
<pdfrwt beam="1">  1        1 0.53739066E-01 0.66362115E+03</pdfrwt>
<pdfrwt beam="2">  1       -1 0.48491277E-01 0.66362115E+03</pdfrwt>
<totfact> 0.30968954E+02</totfact>
</mgrwt>
</event>
<event>
 6    1  0.1603085E-006  0.3729442E+04  0.7818608E-02  0.8061468E-01
         -1   -1    0    0    0  501 -0.00000000000E+00  0.00000000000E+00  0.17518080646E+04  0.17518080646E+04  0.00000000000E+00 0.  1.
          1   -1    0    0  501    0  0.00000000000E+00 -0.00000000000E+00 -0.19849115558E+04  0.19849115558E+04  0.00000000000E+00 0. -1.
         23    2    1    2    0    0  0.61965878173E+03  0.17570187694E+04 -0.71484201426E+02  0.18666359975E+04  0.90155388790E+02 0.  0.
         11    1    3    3    0    0  0.40665384002E+03  0.10209064612E+04 -0.48081040782E+02  0.10999677880E+04  0.00000000000E+00 0. -1.
        -11    1    3    3    0    0  0.21300494170E+03  0.73611230821E+03 -0.23403160644E+02  0.76666820947E+03  0.00000000000E+00 0.  1.
         22    1    1    2    0    0 -0.61965878173E+03 -0.17570187694E+04 -0.16161928977E+03  0.18700836229E+04  0.00000000000E+00 0.  1.
<mgrwt>
<rscale>  0 0.37294418E+04</rscale>
<asrwt>0</asrwt>
<pdfrwt beam="1">  1        1 0.30537101E+00 0.37294418E+04</pdfrwt>
<pdfrwt beam="2">  1       -1 0.26950893E+00 0.37294418E+04</pdfrwt>
<totfact> 0.12711031E-01</totfact>
</mgrwt>
</event>
<event>
 6    1  0.1603085E-006  0.1262102E+04  0.7818608E-02  0.9060170E-01
          1   -1    0    0  501    0  0.00000000000E+00  0.00000000000E+00  0.91246672186E+03  0.91246672186E+03  0.00000000000E+00 0. -1.
         -1   -1    0    0    0  501 -0.00000000000E+00 -0.00000000000E+00 -0.43642749542E+03  0.43642749542E+03  0.00000000000E+00 0.  1.
         23    2    1    2    0    0 -0.44037021408E+03  0.39189140124E+02 -0.23624951648E+03  0.51055242096E+03  0.96892860221E+02 0.  0.
         13    1    3    3    0    0 -0.77606862508E+02 -0.25415780698E+02 -0.23077555260E+02  0.84860830620E+02  0.00000000000E+00 0. -1.
        -13    1    3    3    0    0 -0.36276335157E+03  0.64604920821E+02 -0.21317196122E+03  0.42569159034E+03  0.00000000000E+00 0.  1.
         22    1    1    2    0    0  0.44037021408E+03 -0.39189140124E+02  0.71228874293E+03  0.83834179632E+03  0.00000000000E+00 0. -1.
<mgrwt>
<rscale>  0 0.12621023E+04</rscale>
<asrwt>0</asrwt>
<pdfrwt beam="1">  1        1 0.14037950E+00 0.12621023E+04</pdfrwt>
<pdfrwt beam="2">  1       -1 0.67142692E-01 0.12621023E+04</pdfrwt>
<totfact> 0.39356388E+01</totfact>
</mgrwt>
</event>
<event>
 6    1  0.1603085E-006  0.2641206E+04  0.7818608E-02  0.8354338E-01
          2   -1    0    0  501    0  0.00000000000E+00  0.00000000000E+00  0.37955864947E+04  0.37955864947E+04  0.00000000000E+00 0. -1.
         -2   -1    0    0    0  501 -0.00000000000E+00 -0.00000000000E+00 -0.45947899945E+03  0.45947899945E+03  0.00000000000E+00 0.  1.
         23    2    1    2    0    0 -0.45463741564E+03 -0.37271464537E+03  0.35723232365E+04  0.36214968214E+04  0.90191656334E+02 0.  0.
         13    1    3    3    0    0 -0.35247063979E+02 -0.11814823610E+02  0.35531074529E+03  0.35725015226E+03  0.00000000000E+00 0. -1.
        -13    1    3    3    0    0 -0.41939035167E+03 -0.36089982176E+03  0.32170124912E+04  0.32642466692E+04  0.00000000000E+00 0.  1.
         22    1    1    2    0    0  0.45463741564E+03  0.37271464537E+03 -0.23621574131E+03  0.63356867269E+03  0.00000000000E+00 0.  1.
<mgrwt>
<rscale>  0 0.26412060E+04</rscale>
<asrwt>0</asrwt>
<pdfrwt beam="1">  1        2 0.58393636E+00 0.26412060E+04</pdfrwt>
<pdfrwt beam="2">  1       -2 0.70689079E-01 0.26412060E+04</pdfrwt>
<totfact> 0.79487842E-01</totfact>
</mgrwt>
</event>
<event>
 6    1  0.1603085E-006  0.4238604E+04  0.7818608E-02  0.7958069E-01
         -1   -1    0    0    0  501 -0.00000000000E+00  0.00000000000E+00  0.11499277950E+04  0.11499277950E+04  0.00000000000E+00 0.  1.
          1   -1    0    0  501    0  0.00000000000E+00 -0.00000000000E+00 -0.39058455339E+04  0.39058455339E+04  0.00000000000E+00 0. -1.
         23    2    1    2    0    0  0.18781414677E+04  0.78008418915E+03 -0.67143933895E+03  0.21435582073E+04  0.89801377654E+02 0.  0.
         13    1    3    3    0    0  0.50330865181E+03  0.20161720253E+03 -0.22049168641E+03  0.58530819157E+03  0.00000000000E+00 0.  1.
        -13    1    3    3    0    0  0.13748328159E+04  0.57846698662E+03 -0.45094765254E+03  0.15582500158E+04  0.00000000000E+00 0. -1.
         22    1    1    2    0    0 -0.18781414677E+04 -0.78008418915E+03 -0.20844784000E+04  0.29122151216E+04  0.00000000000E+00 0. -1.
<mgrwt>
<rscale>  0 0.42386037E+04</rscale>
<asrwt>0</asrwt>
<pdfrwt beam="1">  1        1 0.60089932E+00 0.42386037E+04</pdfrwt>
<pdfrwt beam="2">  1       -1 0.17691197E+00 0.42386037E+04</pdfrwt>
<totfact> 0.19426763E-02</totfact>
</mgrwt>
</event>
<event>
 6    1  0.1603085E-006  0.1987604E+04  0.7818608E-02  0.8612438E-01
          2   -1    0    0  501    0  0.00000000000E+00  0.00000000000E+00  0.13055064572E+04  0.13055064572E+04  0.00000000000E+00 0. -1.
         -2   -1    0    0    0  501 -0.00000000000E+00 -0.00000000000E+00 -0.75652031125E+03  0.75652031125E+03  0.00000000000E+00 0.  1.
         23    2    1    2    0    0 -0.83156592662E+03  0.31984008747E+03  0.72697042102E+03  0.11534685843E+04  0.90577094610E+02 0.  0.
         11    1    3    3    0    0 -0.39704273753E+03  0.12876364556E+03  0.28973213573E+03  0.50810207864E+03  0.00000000000E+00 0. -1.
        -11    1    3    3    0    0 -0.43452318909E+03  0.19107644191E+03  0.43723828529E+03  0.64536650567E+03  0.00000000000E+00 0.  1.
         22    1    1    2    0    0  0.83156592662E+03 -0.31984008747E+03 -0.17798427504E+03  0.90855818417E+03  0.00000000000E+00 0. -1.
<mgrwt>
<rscale>  0 0.19876037E+04</rscale>
<asrwt>0</asrwt>
<pdfrwt beam="1">  1        2 0.20084715E+00 0.19876037E+04</pdfrwt>
<pdfrwt beam="2">  1       -2 0.11638774E+00 0.19876037E+04</pdfrwt>
<totfact> 0.87397838E+00</totfact>
</mgrwt>
</event>
<event>
 6    1  0.1603085E-006  0.2275710E+04  0.7818608E-02  0.8487560E-01
         -2   -1    0    0    0  501 -0.00000000000E+00  0.00000000000E+00  0.11240608408E+04  0.11240608408E+04  0.00000000000E+00 0.  1.
          2   -1    0    0  501    0  0.00000000000E+00 -0.00000000000E+00 -0.11518182746E+04  0.11518182746E+04  0.00000000000E+00 0. -1.
         23    2    1    2    0    0  0.82285757799E+03 -0.69541206079E+03 -0.37422920578E+03  0.11441833892E+04  0.91736589130E+02 0.  0.
         13    1    3    3    0    0  0.58470306586E+03 -0.54323577984E+03 -0.29185912090E+03  0.84980264425E+03  0.00000000000E+00 0.  1.
        -13    1    3    3    0    0  0.23815451213E+03 -0.15217628095E+03 -0.82370084878E+02  0.29438074498E+03  0.00000000000E+00 0. -1.
         22    1    1    2    0    0 -0.82285757799E+03  0.69541206079E+03  0.34647177193E+03  0.11316957262E+04  0.00000000000E+00 0.  1.
<mgrwt>
<rscale>  0 0.22757098E+04</rscale>
<asrwt>0</asrwt>
<pdfrwt beam="1">  1        2 0.17720281E+00 0.22757098E+04</pdfrwt>
<pdfrwt beam="2">  1       -2 0.17293244E+00 0.22757098E+04</pdfrwt>
<totfact> 0.37376069E+00</totfact>
</mgrwt>
</event>
<event>
 6    1  0.1603085E-006  0.1503866E+04  0.7818608E-02  0.8881886E-01
         -3   -1    0    0    0  501 -0.00000000000E+00  0.00000000000E+00  0.10283285695E+04  0.10283285695E+04  0.00000000000E+00 0.  1.
          3   -1    0    0  501    0  0.00000000000E+00 -0.00000000000E+00 -0.54982740729E+03  0.54982740729E+03  0.00000000000E+00 0. -1.
         23    2    1    2    0    0 -0.11468504985E+03  0.72091879359E+03  0.41680035178E+03  0.84556908259E+03  0.91585875462E+02 0.  0.
         13    1    3    3    0    0 -0.92518944585E+02  0.69314555996E+03  0.38728080117E+03  0.79937284252E+03  0.00000000000E+00 0.  1.
        -13    1    3    3    0    0 -0.22166105266E+02  0.27773233625E+02  0.29519550607E+02  0.46196240071E+02  0.00000000000E+00 0. -1.
         22    1    1    2    0    0  0.11468504985E+03 -0.72091879359E+03  0.61700810480E+02  0.73258689425E+03  0.00000000000E+00 0. -1.
<mgrwt>
<rscale>  0 0.15038660E+04</rscale>
<asrwt>0</asrwt>
<pdfrwt beam="1">  1        3 0.84588832E-01 0.15038660E+04</pdfrwt>
<pdfrwt beam="2">  1       -3 0.15820440E+00 0.15038660E+04</pdfrwt>
<totfact> 0.91119840E-01</totfact>
</mgrwt>
</event>
<event>
 6    1  0.1603085E-006  0.9618965E+03  0.7818608E-02  0.9351352E-01
          1   -1    0    0  501    0  0.00000000000E+00  0.00000000000E+00  0.29124401141E+03  0.29124401141E+03  0.00000000000E+00 0. -1.
         -1   -1    0    0    0  501 -0.00000000000E+00 -0.00000000000E+00 -0.79421798642E+03  0.79421798642E+03  0.00000000000E+00 0.  1.
         23    2    1    2    0    0 -0.41683552325E+03  0.88285933142E+02 -0.49482488230E+03  0.65930162058E+03  0.90998369910E+02 0.  0.
         13    1    3    3    0    0 -0.23049169139E+02  0.26930888753E+02 -0.25925746143E+02  0.43916753979E+02  0.00000000000E+00 0. -1.
        -13    1    3    3    0    0 -0.39378635411E+03  0.61355044389E+02 -0.46889913615E+03  0.61538486660E+03  0.00000000000E+00 0.  1.
         22    1    1    2    0    0  0.41683552325E+03 -0.88285933142E+02 -0.81490927117E+01  0.42616037726E+03  0.00000000000E+00 0. -1.
<mgrwt>
<rscale>  0 0.96189653E+03</rscale>
<asrwt>0</asrwt>
<pdfrwt beam="1">  1        1 0.44806772E-01 0.96189653E+03</pdfrwt>
<pdfrwt beam="2">  1       -1 0.12218738E+00 0.96189653E+03</pdfrwt>
<totfact> 0.54243296E+01</totfact>
</mgrwt>
</event>
<event>
 6    1  0.1603085E-006  0.2698471E+04  0.7818608E-02  0.8335501E-01
         -1   -1    0    0    0  501 -0.00000000000E+00  0.00000000000E+00  0.59172470802E+03  0.59172470802E+03  0.00000000000E+00 0.  1.
          1   -1    0    0  501    0  0.00000000000E+00 -0.00000000000E+00 -0.30764932755E+04  0.30764932755E+04  0.00000000000E+00 0. -1.
         23    2    1    2    0    0  0.88193295737E+02 -0.11107940340E+04 -0.22742759931E+04  0.25342212608E+04  0.91129920613E+02 0.  0.
         13    1    3    3    0    0 -0.60250853170E+01 -0.49478888791E+03 -0.99998463411E+03  0.11157157405E+04  0.00000000000E+00 0. -1.
        -13    1    3    3    0    0  0.94218381054E+02 -0.61600514605E+03 -0.12742913590E+04  0.14185055203E+04  0.00000000000E+00 0.  1.
         22    1    1    2    0    0 -0.88193295737E+02  0.11107940340E+04 -0.21049257435E+03  0.11339967227E+04  0.00000000000E+00 0.  1.
<mgrwt>
<rscale>  0 0.26984715E+04</rscale>
<asrwt>0</asrwt>
<pdfrwt beam="1">  1        1 0.47330665E+00 0.26984715E+04</pdfrwt>
<pdfrwt beam="2">  1       -1 0.91034573E-01 0.26984715E+04</pdfrwt>
<totfact> 0.53999085E-01</totfact>
</mgrwt>
</event>
<event>
 6    1  0.1603085E-006  0.2362576E+04  0.7818608E-02  0.8453649E-01
          2   -1    0    0  501    0  0.00000000000E+00  0.00000000000E+00  0.10827388647E+04  0.10827388647E+04  0.00000000000E+00 0. -1.
         -2   -1    0    0    0  501 -0.00000000000E+00 -0.00000000000E+00 -0.12888068685E+04  0.12888068685E+04  0.00000000000E+00 0.  1.
         23    2    1    2    0    0  0.26054430018E+03 -0.97472035979E+03 -0.71651551252E+03  0.12408292474E+04  0.91102301959E+02 0.  0.
         11    1    3    3    0    0  0.32338081944E+01 -0.19155684092E+02 -0.32409135019E+02  0.37785576364E+02  0.00000000000E+00 0. -1.
        -11    1    3    3    0    0  0.25731049199E+03 -0.95556467570E+03 -0.68410637750E+03  0.12030436711E+04  0.00000000000E+00 0.  1.
         22    1    1    2    0    0 -0.26054430018E+03  0.97472035979E+03  0.51044750870E+03  0.11307164858E+04  0.00000000000E+00 0. -1.
<mgrwt>
<rscale>  0 0.23625760E+04</rscale>
<asrwt>0</asrwt>
<pdfrwt beam="1">  1        2 0.16657521E+00 0.23625760E+04</pdfrwt>
<pdfrwt beam="2">  1       -2 0.19827798E+00 0.23625760E+04</pdfrwt>
<totfact> 0.27492635E+00</totfact>
</mgrwt>
</event>
<event>
 6    1  0.1603085E-006  0.4824615E+04  0.7818608E-02  0.7856146E-01
         -1   -1    0    0    0  501 -0.00000000000E+00  0.00000000000E+00  0.18468155091E+04  0.18468155091E+04  0.00000000000E+00 0.  1.
          1   -1    0    0  501    0  0.00000000000E+00 -0.00000000000E+00 -0.31509528246E+04  0.31509528246E+04  0.00000000000E+00 0. -1.
         23    2    1    2    0    0 -0.53057187063E+03  0.21551693525E+04  0.32427381869E+03  0.22449544516E+04  0.91681691350E+02 0.  0.
         13    1    3    3    0    0 -0.21836928154E+03  0.74387726148E+03  0.85763468396E+02  0.77999608702E+03  0.00000000000E+00 0.  1.
        -13    1    3    3    0    0 -0.31220258909E+03  0.14112920910E+04  0.23851035029E+03  0.14649583646E+04  0.00000000000E+00 0. -1.
         22    1    1    2    0    0  0.53057187063E+03 -0.21551693525E+04 -0.16284111341E+04  0.27528138821E+04  0.00000000000E+00 0. -1.
<mgrwt>
<rscale>  0 0.48246154E+04</rscale>
<asrwt>0</asrwt>
<pdfrwt beam="1">  1        1 0.48476197E+00 0.48246154E+04</pdfrwt>
<pdfrwt beam="2">  1       -1 0.28412547E+00 0.48246154E+04</pdfrwt>
<totfact> 0.14166513E-02</totfact>
</mgrwt>
</event>
<event>
 6    1  0.1603085E-006  0.3243847E+04  0.7818608E-02  0.8177332E-01
         -2   -1    0    0    0  501 -0.00000000000E+00  0.00000000000E+00  0.16093365768E+04  0.16093365768E+04  0.00000000000E+00 0.  1.
          2   -1    0    0  501    0  0.00000000000E+00 -0.00000000000E+00 -0.16346088570E+04  0.16346088570E+04  0.00000000000E+00 0. -1.
         23    2    1    2    0    0  0.15556480215E+04 -0.44105348462E+03 -0.12222212308E+03  0.16240787063E+04  0.90135750614E+02 0.  0.
         11    1    3    3    0    0  0.82699128820E+03 -0.21119651026E+03 -0.25338082074E+02  0.85390899697E+03  0.00000000000E+00 0.  1.
        -11    1    3    3    0    0  0.72865673333E+03 -0.22985697436E+03 -0.96884041010E+02  0.77016970928E+03  0.00000000000E+00 0. -1.
         22    1    1    2    0    0 -0.15556480215E+04  0.44105348462E+03  0.96949842904E+02  0.16198667276E+04  0.00000000000E+00 0.  1.
<mgrwt>
<rscale>  0 0.32438470E+04</rscale>
<asrwt>0</asrwt>
<pdfrwt beam="1">  1        2 0.25147829E+00 0.32438470E+04</pdfrwt>
<pdfrwt beam="2">  1       -2 0.24759024E+00 0.32438470E+04</pdfrwt>
<totfact> 0.59509760E-01</totfact>
</mgrwt>
</event>
<event>
 6    1  0.1603085E-006  0.2724381E+04  0.7818608E-02  0.8327137E-01
         -2   -1    0    0    0  501 -0.00000000000E+00  0.00000000000E+00  0.54937606997E+03  0.54937606997E+03  0.00000000000E+00 0.  1.
          2   -1    0    0  501    0  0.00000000000E+00 -0.00000000000E+00 -0.33775820642E+04  0.33775820642E+04  0.00000000000E+00 0. -1.
         23    2    1    2    0    0 -0.21280001180E+03 -0.13359206053E+04 -0.16270821694E+04  0.21179069599E+04  0.90364794420E+02 0.  0.
         13    1    3    3    0    0 -0.12940078341E+03 -0.10189526866E+04 -0.12001551078E+04  0.15796776327E+04  0.00000000000E+00 0.  1.
        -13    1    3    3    0    0 -0.83399228391E+02 -0.31696791864E+03 -0.42692706161E+03  0.53822932722E+03  0.00000000000E+00 0. -1.
         22    1    1    2    0    0  0.21280001180E+03  0.13359206053E+04 -0.12011238248E+04  0.18090511743E+04  0.00000000000E+00 0.  1.
<mgrwt>
<rscale>  0 0.27243809E+04</rscale>
<asrwt>0</asrwt>
<pdfrwt beam="1">  1        2 0.51962801E+00 0.27243809E+04</pdfrwt>
<pdfrwt beam="2">  1       -2 0.84519395E-01 0.27243809E+04</pdfrwt>
<totfact> 0.10553148E+00</totfact>
</mgrwt>
</event>
<event>
 6    1  0.1603085E-006  0.3819843E+04  0.7818608E-02  0.8041910E-01
         -2   -1    0    0    0  501 -0.00000000000E+00  0.00000000000E+00  0.18006728638E+04  0.18006728638E+04  0.00000000000E+00 0.  1.
          2   -1    0    0  501    0  0.00000000000E+00 -0.00000000000E+00 -0.20257987192E+04  0.20257987192E+04  0.00000000000E+00 0. -1.
         23    2    1    2    0    0 -0.10740212728E+03 -0.18215000131E+04 -0.67293987484E+03  0.19476594820E+04  0.10550766817E+03 0.  0.
         11    1    3    3    0    0  0.19736782996E+02 -0.27137983866E+03 -0.11261717056E+03  0.29448121254E+03  0.00000000000E+00 0. -1.
        -11    1    3    3    0    0 -0.12713891027E+03 -0.15501201745E+04 -0.56032270428E+03  0.16531782695E+04  0.00000000000E+00 0.  1.
         22    1    1    2    0    0  0.10740212728E+03  0.18215000131E+04  0.44781401940E+03  0.18788121010E+04  0.00000000000E+00 0.  1.
<mgrwt>
<rscale>  0 0.38198433E+04</rscale>
<asrwt>0</asrwt>
<pdfrwt beam="1">  1        2 0.31166134E+00 0.38198433E+04</pdfrwt>
<pdfrwt beam="2">  1       -2 0.27702659E+00 0.38198433E+04</pdfrwt>
<totfact> 0.22721271E-01</totfact>
</mgrwt>
</event>
<event>
 6    1  0.1603085E-006  0.6458494E+04  0.7818608E-02  0.7636015E-01
          2   -1    0    0  501    0  0.00000000000E+00  0.00000000000E+00  0.39102960800E+04  0.39102960800E+04  0.00000000000E+00 0. -1.
         -2   -1    0    0    0  501 -0.00000000000E+00 -0.00000000000E+00 -0.26668146513E+04  0.26668146513E+04  0.00000000000E+00 0.  1.
         23    2    1    2    0    0 -0.53611634216E+03  0.37688920527E+03 -0.25975075345E+04  0.26806171254E+04  0.95898779563E+02 0.  0.
         11    1    3    3    0    0 -0.10594338162E+03  0.51783421883E+02 -0.34991225944E+03  0.36924803614E+03  0.00000000000E+00 0.  1.
        -11    1    3    3    0    0 -0.43017296054E+03  0.32510578339E+03 -0.22475952751E+04  0.23113690893E+04  0.00000000000E+00 0. -1.
         22    1    1    2    0    0  0.53611634216E+03 -0.37688920527E+03  0.38409889632E+04  0.38964936059E+04  0.00000000000E+00 0. -1.
<mgrwt>
<rscale>  0 0.64584936E+04</rscale>
<asrwt>0</asrwt>
<pdfrwt beam="1">  1        2 0.60158401E+00 0.64584936E+04</pdfrwt>
<pdfrwt beam="2">  1       -2 0.41027918E+00 0.64584936E+04</pdfrwt>
<totfact> 0.16614254E-03</totfact>
</mgrwt>
</event>
<event>
 6    1  0.1603085E-006  0.3688655E+04  0.7818608E-02  0.8070481E-01
          2   -1    0    0  501    0  0.00000000000E+00  0.00000000000E+00  0.10879722850E+04  0.10879722850E+04  0.00000000000E+00 0. -1.
         -2   -1    0    0    0  501 -0.00000000000E+00 -0.00000000000E+00 -0.31264989309E+04  0.31264989309E+04  0.00000000000E+00 0.  1.
         23    2    1    2    0    0 -0.15801326097E+04 -0.72963694473E+02 -0.21008722365E+04  0.26314267637E+04  0.92735609873E+02 0.  0.
         13    1    3    3    0    0 -0.27697003587E+03 -0.47887051168E+02 -0.36480509002E+03  0.46053048123E+03  0.00000000000E+00 0.  1.
        -13    1    3    3    0    0 -0.13031625738E+04 -0.25076643305E+02 -0.17360671465E+04  0.21708962824E+04  0.00000000000E+00 0. -1.
         22    1    1    2    0    0  0.15801326097E+04  0.72963694473E+02  0.62345590695E+02  0.15830444522E+04  0.00000000000E+00 0. -1.
<mgrwt>
<rscale>  0 0.36886551E+04</rscale>
<asrwt>0</asrwt>
<pdfrwt beam="1">  1        2 0.16738035E+00 0.36886551E+04</pdfrwt>
<pdfrwt beam="2">  1       -2 0.48099983E+00 0.36886551E+04</pdfrwt>
<totfact> 0.38998741E-02</totfact>
</mgrwt>
</event>
<event>
 6    1  0.1603085E-006  0.2074171E+04  0.7818608E-02  0.8572707E-01
          1   -1    0    0  501    0  0.00000000000E+00  0.00000000000E+00  0.12643394706E+04  0.12643394706E+04  0.00000000000E+00 0. -1.
         -1   -1    0    0    0  501 -0.00000000000E+00 -0.00000000000E+00 -0.85067844912E+03  0.85067844912E+03  0.00000000000E+00 0.  1.
         23    2    1    2    0    0 -0.88045152368E+03 -0.48348558613E+03  0.46201119121E+03  0.11093882979E+04  0.91295438400E+02 0.  0.
         11    1    3    3    0    0 -0.40659151949E+03 -0.20957326239E+03  0.25872574782E+03  0.52552509799E+03  0.00000000000E+00 0.  1.
        -11    1    3    3    0    0 -0.47386000419E+03 -0.27391232374E+03  0.20328544339E+03  0.58386319987E+03  0.00000000000E+00 0. -1.
         22    1    1    2    0    0  0.88045152368E+03  0.48348558613E+03 -0.48350169684E+02  0.10056296219E+04  0.00000000000E+00 0.  1.
<mgrwt>
<rscale>  0 0.20741710E+04</rscale>
<asrwt>0</asrwt>
<pdfrwt beam="1">  1        1 0.19451376E+00 0.20741710E+04</pdfrwt>
<pdfrwt beam="2">  1       -1 0.13087361E+00 0.20741710E+04</pdfrwt>
<totfact> 0.44102184E+00</totfact>
</mgrwt>
</event>
<event>
 6    1  0.1603085E-006  0.1800935E+04  0.7818608E-02  0.8705802E-01
         -1   -1    0    0    0  501 -0.00000000000E+00  0.00000000000E+00  0.13052191165E+04  0.13052191165E+04  0.00000000000E+00 0.  1.
          1   -1    0    0  501    0  0.00000000000E+00 -0.00000000000E+00 -0.62123046160E+03  0.62123046160E+03  0.00000000000E+00 0. -1.
         23    2    1    2    0    0 -0.25629366410E+03  0.59538471609E+03  0.10078423353E+04  0.12018458182E+04  0.92291903598E+02 0.  0.
         13    1    3    3    0    0 -0.24393279774E+02  0.14043636205E+03  0.25557586035E+03  0.29263701795E+03  0.00000000000E+00 0.  1.
        -13    1    3    3    0    0 -0.23190038432E+03  0.45494835405E+03  0.75226647499E+03  0.90920880027E+03  0.00000000000E+00 0. -1.
         22    1    1    2    0    0  0.25629366410E+03 -0.59538471609E+03 -0.32385368047E+03  0.72460375984E+03  0.00000000000E+00 0. -1.
<mgrwt>
<rscale>  0 0.18009352E+04</rscale>
<asrwt>0</asrwt>
<pdfrwt beam="1">  1        1 0.95573917E-01 0.18009352E+04</pdfrwt>
<pdfrwt beam="2">  1       -1 0.20080294E+00 0.18009352E+04</pdfrwt>
<totfact> 0.45639949E+00</totfact>
</mgrwt>
</event>
<event>
 6    1  0.1603085E-006  0.2161904E+04  0.7818608E-02  0.8534454E-01
         -1   -1    0    0    0  501 -0.00000000000E+00  0.00000000000E+00  0.85199272487E+03  0.85199272487E+03  0.00000000000E+00 0.  1.
          1   -1    0    0  501    0  0.00000000000E+00 -0.00000000000E+00 -0.13714400230E+04  0.13714400230E+04  0.00000000000E+00 0. -1.
         23    2    1    2    0    0 -0.10615790018E+04  0.14000547892E+03 -0.39693936940E+03  0.11456759554E+04  0.91983806710E+02 0.  0.
         11    1    3    3    0    0 -0.59215276596E+03  0.53328907957E+02 -0.26116438189E+03  0.64938101684E+03  0.00000000000E+00 0. -1.
        -11    1    3    3    0    0 -0.46942623579E+03  0.86676570964E+02 -0.13577498750E+03  0.49629493856E+03  0.00000000000E+00 0.  1.
         22    1    1    2    0    0  0.10615790018E+04 -0.14000547892E+03 -0.12250792874E+03  0.10777567925E+04  0.00000000000E+00 0.  1.
<mgrwt>
<rscale>  0 0.21619037E+04</rscale>
<asrwt>0</asrwt>
<pdfrwt beam="1">  1        1 0.21099077E+00 0.21619037E+04</pdfrwt>
<pdfrwt beam="2">  1       -1 0.13107580E+00 0.21619037E+04</pdfrwt>
<totfact> 0.36562755E+00</totfact>
</mgrwt>
</event>
<event>
 6    1  0.1603085E-006  0.2101744E+04  0.7818608E-02  0.8560476E-01
         -1   -1    0    0    0  501 -0.00000000000E+00  0.00000000000E+00  0.54437889713E+03  0.54437889713E+03  0.00000000000E+00 0.  1.
          1   -1    0    0  501    0  0.00000000000E+00 -0.00000000000E+00 -0.20286082203E+04  0.20286082203E+04  0.00000000000E+00 0. -1.
         23    2    1    2    0    0  0.96361288073E+03 -0.38659539674E+03 -0.92567905921E+03  0.13940112135E+04  0.91541017739E+02 0.  0.
         11    1    3    3    0    0  0.14796571915E+03 -0.94976552632E+02 -0.14463643251E+03  0.22767102847E+03  0.00000000000E+00 0.  1.
        -11    1    3    3    0    0  0.81564716158E+03 -0.29161884411E+03 -0.78104262670E+03  0.11663401850E+04  0.00000000000E+00 0. -1.
         22    1    1    2    0    0 -0.96361288073E+03  0.38659539674E+03 -0.55855026394E+03  0.11789759039E+04  0.00000000000E+00 0. -1.
<mgrwt>
<rscale>  0 0.21017436E+04</rscale>
<asrwt>0</asrwt>
<pdfrwt beam="1">  1        1 0.31209357E+00 0.21017436E+04</pdfrwt>
<pdfrwt beam="2">  1       -1 0.83750601E-01 0.21017436E+04</pdfrwt>
<totfact> 0.37040443E+00</totfact>
</mgrwt>
</event>
<event>
 6    1  0.1603085E-006  0.3815962E+03  0.7818608E-02  0.1050345E+00
         -1   -1    0    0    0  501 -0.00000000000E+00  0.00000000000E+00  0.13268302325E+04  0.13268302325E+04  0.00000000000E+00 0.  1.
          1   -1    0    0  501    0  0.00000000000E+00 -0.00000000000E+00 -0.27436760429E+02  0.27436760429E+02  0.00000000000E+00 0. -1.
         23    2    1    2    0    0 -0.16060005566E+03 -0.78367036805E+02  0.74132418581E+03  0.76828482716E+03  0.93628290783E+02 0.  0.
         13    1    3    3    0    0 -0.15055682134E+03 -0.74512122462E+02  0.51499955062E+03  0.54170467045E+03  0.00000000000E+00 0. -1.
        -13    1    3    3    0    0 -0.10043234323E+02 -0.38549143428E+01  0.22632463519E+03  0.22658015671E+03  0.00000000000E+00 0.  1.
         22    1    1    2    0    0  0.16060005566E+03  0.78367036805E+02  0.55806928625E+03  0.58598216576E+03  0.00000000000E+00 0.  1.
<mgrwt>
<rscale>  0 0.38159624E+03</rscale>
<asrwt>0</asrwt>
<pdfrwt beam="1">  1        1 0.42210411E-02 0.38159624E+03</pdfrwt>
<pdfrwt beam="2">  1       -1 0.20412768E+00 0.38159624E+03</pdfrwt>
<totfact> 0.32954657E+02</totfact>
</mgrwt>
</event>
<event>
 6    1  0.1603085E-006  0.1940952E+04  0.7818608E-02  0.8634736E-01
         -2   -1    0    0    0  501 -0.00000000000E+00  0.00000000000E+00  0.72848814557E+03  0.72848814557E+03  0.00000000000E+00 0.  1.
          2   -1    0    0  501    0  0.00000000000E+00 -0.00000000000E+00 -0.12928465617E+04  0.12928465617E+04  0.00000000000E+00 0. -1.
         23    2    1    2    0    0 -0.35091318333E+03 -0.18065868990E+03 -0.12036565847E+04  0.12700160180E+04  0.91508947402E+02 0.  0.
         13    1    3    3    0    0 -0.12836667920E+02  0.10581303753E+02 -0.44033942365E+02  0.47071563737E+02  0.00000000000E+00 0. -1.
        -13    1    3    3    0    0 -0.33807651541E+03 -0.19123999366E+03 -0.11596226423E+04  0.12229444542E+04  0.00000000000E+00 0.  1.
         22    1    1    2    0    0  0.35091318333E+03  0.18065868990E+03  0.63929816862E+03  0.75131868929E+03  0.00000000000E+00 0.  1.
<mgrwt>
<rscale>  0 0.19409517E+04</rscale>
<asrwt>0</asrwt>
<pdfrwt beam="1">  1        2 0.19889947E+00 0.19409517E+04</pdfrwt>
<pdfrwt beam="2">  1       -2 0.11207510E+00 0.19409517E+04</pdfrwt>
<totfact> 0.97847550E+00</totfact>
</mgrwt>
</event>
<event>
 6    1  0.1603085E-006  0.2131777E+04  0.7818608E-02  0.8547373E-01
          2   -1    0    0  501    0  0.00000000000E+00  0.00000000000E+00  0.34569064533E+04  0.34569064533E+04  0.00000000000E+00 0. -1.
         -2   -1    0    0    0  501 -0.00000000000E+00 -0.00000000000E+00 -0.32865159704E+03  0.32865159704E+03  0.00000000000E+00 0.  1.
         23    2    1    2    0    0  0.88655086373E+03  0.32008671766E+03  0.24440276648E+04  0.26208285580E+04  0.83923555910E+02 0.  0.
         13    1    3    3    0    0  0.20070458538E+03  0.51167795103E+02  0.61861616517E+03  0.65236985956E+03  0.00000000000E+00 0. -1.
        -13    1    3    3    0    0  0.68584627835E+03  0.26891892256E+03  0.18254114997E+04  0.19684586985E+04  0.00000000000E+00 0.  1.
         22    1    1    2    0    0 -0.88655086373E+03 -0.32008671766E+03  0.68422719141E+03  0.11647294923E+04  0.00000000000E+00 0.  1.
<mgrwt>
<rscale>  0 0.21317766E+04</rscale>
<asrwt>0</asrwt>
<pdfrwt beam="1">  1        2 0.53183174E+00 0.21317766E+04</pdfrwt>
<pdfrwt beam="2">  1       -2 0.50561787E-01 0.21317766E+04</pdfrwt>
<totfact> 0.29734573E+00</totfact>
</mgrwt>
</event>
<event>
 6    1  0.1603085E-006  0.2958220E+04  0.7818608E-02  0.8255763E-01
          2   -1    0    0  501    0  0.00000000000E+00  0.00000000000E+00  0.12917787898E+04  0.12917787898E+04  0.00000000000E+00 0. -1.
         -2   -1    0    0    0  501 -0.00000000000E+00 -0.00000000000E+00 -0.16936075945E+04  0.16936075945E+04  0.00000000000E+00 0.  1.
         23    2    1    2    0    0  0.19925873393E+03 -0.14544290123E+04 -0.32945898712E+02  0.14717343789E+04  0.99241397622E+02 0.  0.
         11    1    3    3    0    0  0.26414082879E+02 -0.29057777801E+03  0.30774685988E+02  0.29339432535E+03  0.00000000000E+00 0. -1.
        -11    1    3    3    0    0  0.17284465105E+03 -0.11638512343E+04 -0.63720584700E+02  0.11783400536E+04  0.00000000000E+00 0.  1.
         22    1    1    2    0    0 -0.19925873393E+03  0.14544290123E+04 -0.36888290597E+03  0.15136520053E+04  0.00000000000E+00 0.  1.
<mgrwt>
<rscale>  0 0.29582200E+04</rscale>
<asrwt>0</asrwt>
<pdfrwt beam="1">  1        2 0.19873520E+00 0.29582200E+04</pdfrwt>
<pdfrwt beam="2">  1       -2 0.26055501E+00 0.29582200E+04</pdfrwt>
<totfact> 0.79481110E-01</totfact>
</mgrwt>
</event>
<event>
 6    1  0.1603085E-006  0.2324739E+04  0.7818608E-02  0.8468230E-01
         -1   -1    0    0    0  501 -0.00000000000E+00  0.00000000000E+00  0.75776093237E+03  0.75776093237E+03  0.00000000000E+00 0.  1.
          1   -1    0    0  501    0  0.00000000000E+00 -0.00000000000E+00 -0.17830199113E+04  0.17830199113E+04  0.00000000000E+00 0. -1.
         23    2    1    2    0    0 -0.44588729739E+03  0.28541383164E+03  0.61544276628E+03  0.81678004495E+03  0.89907207764E+02 0.  0.
         11    1    3    3    0    0 -0.28581366320E+03  0.22507501380E+03  0.45161455053E+03  0.57991716146E+03  0.00000000000E+00 0. -1.
        -11    1    3    3    0    0 -0.16007363419E+03  0.60338817838E+02  0.16382821575E+03  0.23686288349E+03  0.00000000000E+00 0.  1.
         22    1    1    2    0    0  0.44588729739E+03 -0.28541383164E+03 -0.16407017452E+04  0.17240007988E+04  0.00000000000E+00 0. -1.
<mgrwt>
<rscale>  0 0.23247390E+04</rscale>
<asrwt>0</asrwt>
<pdfrwt beam="1">  1        1 0.27431075E+00 0.23247390E+04</pdfrwt>
<pdfrwt beam="2">  1       -1 0.11657861E+00 0.23247390E+04</pdfrwt>
<totfact> 0.25063154E+00</totfact>
</mgrwt>
</event>
<event>
 6    1  0.1603085E-006  0.2874904E+04  0.7818608E-02  0.8280384E-01
         -1   -1    0    0    0  501 -0.00000000000E+00  0.00000000000E+00  0.98402232496E+03  0.98402232496E+03  0.00000000000E+00 0.  1.
          1   -1    0    0  501    0  0.00000000000E+00 -0.00000000000E+00 -0.20998179518E+04  0.20998179518E+04  0.00000000000E+00 0. -1.
         23    2    1    2    0    0 -0.80172282430E+03 -0.11760959078E+04 -0.35450118104E+03  0.14696747634E+04  0.91168806403E+02 0.  0.
         13    1    3    3    0    0 -0.17697999945E+03 -0.23154017568E+03 -0.10715257723E+03  0.31050675993E+03  0.00000000000E+00 0.  1.
        -13    1    3    3    0    0 -0.62474282485E+03 -0.94455573215E+03 -0.24734860382E+03  0.11591680034E+04  0.00000000000E+00 0. -1.
         22    1    1    2    0    0  0.80172282430E+03  0.11760959078E+04 -0.76129444577E+03  0.16141655134E+04  0.00000000000E+00 0. -1.
<mgrwt>
<rscale>  0 0.28749036E+04</rscale>
<asrwt>0</asrwt>
<pdfrwt beam="1">  1        1 0.32304891E+00 0.28749036E+04</pdfrwt>
<pdfrwt beam="2">  1       -1 0.15138805E+00 0.28749036E+04</pdfrwt>
<totfact> 0.74614479E-01</totfact>
</mgrwt>
</event>
<event>
 6    1  0.1603085E-006  0.2791553E+04  0.7818608E-02  0.8305896E-01
          2   -1    0    0  501    0  0.00000000000E+00  0.00000000000E+00  0.21844577229E+04  0.21844577229E+04  0.00000000000E+00 0.  1.
         -2   -1    0    0    0  501 -0.00000000000E+00 -0.00000000000E+00 -0.89184236374E+03  0.89184236374E+03  0.00000000000E+00 0. -1.
         23    2    1    2    0    0 -0.83058408803E+03 -0.98639291044E+03  0.62785806594E+02  0.12943568694E+04  0.92610727533E+02 0.  0.
         13    1    3    3    0    0 -0.39094405954E+03 -0.39415763703E+03  0.34797222369E+02  0.55624486263E+03  0.00000000000E+00 0.  1.
        -13    1    3    3    0    0 -0.43964002849E+03 -0.59223527341E+03  0.27988584225E+02  0.73811200679E+03  0.00000000000E+00 0. -1.
         22    1    1    2    0    0  0.83058408803E+03  0.98639291044E+03  0.12298295526E+04  0.17819432172E+04  0.00000000000E+00 0. -1.
<mgrwt>
<rscale>  0 0.27915529E+04</rscale>
<asrwt>0</asrwt>
<pdfrwt beam="1">  1        2 0.33607042E+00 0.27915529E+04</pdfrwt>
<pdfrwt beam="2">  1       -2 0.13720652E+00 0.27915529E+04</pdfrwt>
<totfact> 0.17361455E+00</totfact>
</mgrwt>
</event>
<event>
 6    1  0.1603085E-006  0.9422327E+03  0.7818608E-02  0.9374276E-01
         -2   -1    0    0    0  501 -0.00000000000E+00  0.00000000000E+00  0.30091334779E+03  0.30091334779E+03  0.00000000000E+00 0.  1.
          2   -1    0    0  501    0  0.00000000000E+00 -0.00000000000E+00 -0.73758977052E+03  0.73758977052E+03  0.00000000000E+00 0. -1.
         23    2    1    2    0    0 -0.28694828605E+03  0.12859617092E+03 -0.60052976434E+03  0.68392701703E+03  0.90795774784E+02 0.  0.
         11    1    3    3    0    0 -0.17541945387E+03  0.12020663129E+03 -0.34953703626E+03  0.40914271192E+03  0.00000000000E+00 0.  1.
        -11    1    3    3    0    0 -0.11152883217E+03  0.83895396313E+01 -0.25099272808E+03  0.27478430511E+03  0.00000000000E+00 0. -1.
         22    1    1    2    0    0  0.28694828605E+03 -0.12859617092E+03  0.16385334162E+03  0.35457610128E+03  0.00000000000E+00 0.  1.
<mgrwt>
<rscale>  0 0.94223268E+03</rscale>
<asrwt>0</asrwt>
<pdfrwt beam="1">  1        2 0.11347535E+00 0.94223268E+03</pdfrwt>
<pdfrwt beam="2">  1       -2 0.46294361E-01 0.94223268E+03</pdfrwt>
<totfact> 0.16969926E+02</totfact>
</mgrwt>
</event>
<event>
 6    1  0.1603085E-006  0.4167706E+03  0.7818608E-02  0.1038123E+00
          2   -1    0    0  501    0  0.00000000000E+00  0.00000000000E+00  0.87344949313E+03  0.87344949313E+03  0.00000000000E+00 0. -1.
         -2   -1    0    0    0  501 -0.00000000000E+00 -0.00000000000E+00 -0.49716011403E+02  0.49716011403E+02  0.00000000000E+00 0.  1.
         23    2    1    2    0    0 -0.12633093069E+03  0.15239532429E+03  0.51657276352E+03  0.55774582016E+03  0.71057307748E+02 0.  0.
         13    1    3    3    0    0 -0.58119609241E+02  0.43425370085E+02  0.11385342068E+03  0.13500464120E+03  0.00000000000E+00 0.  1.
        -13    1    3    3    0    0 -0.68211321451E+02  0.10896995421E+03  0.40271934283E+03  0.42274117896E+03  0.00000000000E+00 0. -1.
         22    1    1    2    0    0  0.12633093069E+03 -0.15239532429E+03  0.30716071821E+03  0.36541968438E+03  0.00000000000E+00 0.  1.
<mgrwt>
<rscale>  0 0.41677056E+03</rscale>
<asrwt>0</asrwt>
<pdfrwt beam="1">  1        2 0.13437683E+00 0.41677056E+03</pdfrwt>
<pdfrwt beam="2">  1       -2 0.76486178E-02 0.41677056E+03</pdfrwt>
<totfact> 0.32233531E+03</totfact>
</mgrwt>
</event>
<event>
 6    1  0.1603085E-006  0.1576585E+04  0.7818608E-02  0.8835063E-01
         -2   -1    0    0    0  501 -0.00000000000E+00  0.00000000000E+00  0.54181855566E+03  0.54181855566E+03  0.00000000000E+00 0.  1.
          2   -1    0    0  501    0  0.00000000000E+00 -0.00000000000E+00 -0.11468879742E+04  0.11468879742E+04  0.00000000000E+00 0. -1.
         23    2    1    2    0    0 -0.77179065327E+03 -0.13831821934E+03 -0.35638978315E+03  0.86612868956E+03  0.91501295403E+02 0.  0.
         11    1    3    3    0    0 -0.98137572048E+02 -0.16228535044E+02 -0.80655324303E+02  0.12806103910E+03  0.00000000000E+00 0. -1.
        -11    1    3    3    0    0 -0.67365308122E+03 -0.12208968430E+03 -0.27573445885E+03  0.73806765046E+03  0.00000000000E+00 0.  1.
         22    1    1    2    0    0  0.77179065327E+03  0.13831821934E+03 -0.24867963537E+03  0.82257784028E+03  0.00000000000E+00 0. -1.
<mgrwt>
<rscale>  0 0.15765852E+04</rscale>
<asrwt>0</asrwt>
<pdfrwt beam="1">  1        2 0.17644430E+00 0.15765852E+04</pdfrwt>
<pdfrwt beam="2">  1       -2 0.83356702E-01 0.15765852E+04</pdfrwt>
<totfact> 0.24678166E+01</totfact>
</mgrwt>
</event>
<event>
 6    1  0.1603085E-006  0.9597372E+03  0.7818608E-02  0.9353841E-01
          4   -1    0    0  501    0  0.00000000000E+00  0.00000000000E+00  0.69837414398E+03  0.69837414398E+03  0.00000000000E+00 0. -1.
         -4   -1    0    0    0  501 -0.00000000000E+00 -0.00000000000E+00 -0.32972853345E+03  0.32972853345E+03  0.00000000000E+00 0.  1.
         23    2    1    2    0    0 -0.28602719137E+03 -0.50673705556E+02  0.58947801017E+03  0.66321046407E+03  0.89355562395E+02 0.  0.
         11    1    3    3    0    0 -0.83527027465E+02  0.82497891813E+01  0.24838862402E+03  0.26218644489E+03  0.00000000000E+00 0.  1.
        -11    1    3    3    0    0 -0.20250016391E+03 -0.58923494737E+02  0.34108938615E+03  0.40102401918E+03  0.00000000000E+00 0. -1.
         22    1    1    2    0    0  0.28602719137E+03  0.50673705556E+02 -0.22083239964E+03  0.36489221336E+03  0.00000000000E+00 0.  1.
<mgrwt>
<rscale>  0 0.95973722E+03</rscale>
<asrwt>0</asrwt>
<pdfrwt beam="1">  1        4 0.10744218E+00 0.95973722E+03</pdfrwt>
<pdfrwt beam="2">  1       -4 0.50727467E-01 0.95973722E+03</pdfrwt>
<totfact> 0.51639738E+00</totfact>
</mgrwt>
</event>
<event>
 6    1  0.1603085E-006  0.1772678E+04  0.7818608E-02  0.8720966E-01
         -2   -1    0    0    0  501 -0.00000000000E+00  0.00000000000E+00  0.16785858157E+04  0.16785858157E+04  0.00000000000E+00 0.  1.
          2   -1    0    0  501    0  0.00000000000E+00 -0.00000000000E+00 -0.46801102460E+03  0.46801102460E+03  0.00000000000E+00 0. -1.
         23    2    1    2    0    0  0.46896600771E+03  0.10340309069E+03 -0.29235888416E+03  0.56880377790E+03  0.86271113644E+02 0.  0.
         11    1    3    3    0    0  0.35854473201E+03  0.44700814736E+02 -0.19697084503E+03  0.41152156868E+03  0.00000000000E+00 0. -1.
        -11    1    3    3    0    0  0.11042127570E+03  0.58702275955E+02 -0.95388039123E+02  0.15728220922E+03  0.00000000000E+00 0.  1.
         22    1    1    2    0    0 -0.46896600771E+03 -0.10340309069E+03  0.15029336752E+04  0.15777930624E+04  0.00000000000E+00 0.  1.
<mgrwt>
<rscale>  0 0.17726778E+04</rscale>
<asrwt>0</asrwt>
<pdfrwt beam="1">  1        2 0.72001697E-01 0.17726778E+04</pdfrwt>
<pdfrwt beam="2">  1       -2 0.25824397E+00 0.17726778E+04</pdfrwt>
<totfact> 0.35981176E+00</totfact>
</mgrwt>
</event>
<event>
 6    1  0.1603085E-006  0.3044046E+04  0.7818608E-02  0.8231264E-01
          3   -1    0    0  501    0  0.00000000000E+00  0.00000000000E+00  0.10540125977E+04  0.10540125977E+04  0.00000000000E+00 0. -1.
         -3   -1    0    0    0  501 -0.00000000000E+00 -0.00000000000E+00 -0.21978433026E+04  0.21978433026E+04  0.00000000000E+00 0.  1.
         23    2    1    2    0    0  0.11453875342E+04  0.34702226545E+03 -0.15745998402E+04  0.19798892718E+04  0.90883528037E+02 0.  0.
         13    1    3    3    0    0  0.59412667813E+03  0.22736121584E+03 -0.83152255954E+03  0.10469524341E+04  0.00000000000E+00 0. -1.
        -13    1    3    3    0    0  0.55126085607E+03  0.11966104960E+03 -0.74307728063E+03  0.93293683774E+03  0.00000000000E+00 0.  1.
         22    1    1    2    0    0 -0.11453875342E+04 -0.34702226545E+03  0.43076913529E+03  0.12719666285E+04  0.00000000000E+00 0. -1.
<mgrwt>
<rscale>  0 0.30440463E+04</rscale>
<asrwt>0</asrwt>
<pdfrwt beam="1">  1        3 0.16215579E+00 0.30440463E+04</pdfrwt>
<pdfrwt beam="2">  1       -3 0.33812973E+00 0.30440463E+04</pdfrwt>
<totfact> 0.13581276E-02</totfact>
</mgrwt>
</event>
<event>
 6    1  0.1603085E-006  0.6640754E+03  0.7818608E-02  0.9780720E-01
         -1   -1    0    0    0  501 -0.00000000000E+00  0.00000000000E+00  0.16722689062E+03  0.16722689062E+03  0.00000000000E+00 0.  1.
          1   -1    0    0  501    0  0.00000000000E+00 -0.00000000000E+00 -0.65927811861E+03  0.65927811861E+03  0.00000000000E+00 0. -1.
         23    2    1    2    0    0 -0.26749090454E+03 -0.70390403625E+02 -0.36645858207E+02  0.29368210830E+03  0.91651889672E+02 0.  0.
         13    1    3    3    0    0 -0.12640864077E+03  0.22888520168E+01  0.13738600126E+02  0.12717363106E+03  0.00000000000E+00 0. -1.
        -13    1    3    3    0    0 -0.14108226377E+03 -0.72679255642E+02 -0.50384458333E+02  0.16650847724E+03  0.00000000000E+00 0.  1.
         22    1    1    2    0    0  0.26749090454E+03  0.70390403625E+02 -0.45540536978E+03  0.53282290093E+03  0.00000000000E+00 0. -1.
<mgrwt>
<rscale>  0 0.66407539E+03</rscale>
<asrwt>0</asrwt>
<pdfrwt beam="1">  1        1 0.10142740E+00 0.66407539E+03</pdfrwt>
<pdfrwt beam="2">  1       -1 0.25727214E-01 0.66407539E+03</pdfrwt>
<totfact> 0.40195524E+02</totfact>
</mgrwt>
</event>
<event>
 6    1  0.1603085E-006  0.3276147E+04  0.7818608E-02  0.8168991E-01
          2   -1    0    0  501    0  0.00000000000E+00  0.00000000000E+00  0.19694918636E+04  0.19694918636E+04  0.00000000000E+00 0. -1.
         -2   -1    0    0    0  501 -0.00000000000E+00 -0.00000000000E+00 -0.13624247198E+04  0.13624247198E+04  0.00000000000E+00 0.  1.
         23    2    1    2    0    0 -0.24119152401E+03 -0.13942358386E+04  0.11406790882E+04  0.18196968136E+04  0.89893193654E+02 0.  0.
         13    1    3    3    0    0 -0.67958747781E+01 -0.16162324357E+03  0.10600166954E+03  0.19340271643E+03  0.00000000000E+00 0. -1.
        -13    1    3    3    0    0 -0.23439564924E+03 -0.12326125951E+04  0.10346774186E+04  0.16262940972E+04  0.00000000000E+00 0.  1.
         22    1    1    2    0    0  0.24119152401E+03  0.13942358386E+04 -0.53361194429E+03  0.15122197698E+04  0.00000000000E+00 0.  1.
<mgrwt>
<rscale>  0 0.32761468E+04</rscale>
<asrwt>0</asrwt>
<pdfrwt beam="1">  1        2 0.30299875E+00 0.32761468E+04</pdfrwt>
<pdfrwt beam="2">  1       -2 0.20960380E+00 0.32761468E+04</pdfrwt>
<totfact> 0.66971755E-01</totfact>
</mgrwt>
</event>
<event>
 6    1  0.2098958E-006  0.4002368E+04  0.7818608E-02  0.8004069E-01
          1   -1    0    0  501    0  0.00000000000E+00  0.00000000000E+00  0.24987059906E+04  0.24987059906E+04  0.00000000000E+00 0. -1.
         -1   -1    0    0    0  501 -0.00000000000E+00 -0.00000000000E+00 -0.16027244228E+04  0.16027244228E+04  0.00000000000E+00 0.  1.
         23    2    1    2    0    0 -0.13843372592E+04  0.13709701776E+04 -0.15417277852E+02  0.19504778963E+04  0.90429289960E+02 0.  0.
         13    1    3    3    0    0 -0.11173052791E+04  0.10558367892E+04 -0.20343146882E+02  0.15373926811E+04  0.00000000000E+00 0.  1.
        -13    1    3    3    0    0 -0.26703198002E+03  0.31513338835E+03  0.49258690303E+01  0.41308521517E+03  0.00000000000E+00 0. -1.
         22    1    1    2    0    0  0.13843372592E+04 -0.13709701776E+04  0.91139884574E+03  0.21509525171E+04  0.00000000000E+00 0. -1.
<mgrwt>
<rscale>  0 0.40023679E+04</rscale>
<asrwt>0</asrwt>
<pdfrwt beam="1">  1        1 0.38441631E+00 0.40023679E+04</pdfrwt>
<pdfrwt beam="2">  1       -1 0.24657299E+00 0.40023679E+04</pdfrwt>
<totfact> 0.77986007E-02</totfact>
</mgrwt>
</event>
<event>
 6    1  0.1603085E-006  0.4217711E+04  0.7818608E-02  0.7962012E-01
          2   -1    0    0  501    0  0.00000000000E+00  0.00000000000E+00  0.35821262311E+04  0.35821262311E+04  0.00000000000E+00 0.  1.
         -2   -1    0    0    0  501 -0.00000000000E+00 -0.00000000000E+00 -0.12415170993E+04  0.12415170993E+04  0.00000000000E+00 0. -1.
         23    2    1    2    0    0 -0.17507300413E+03  0.12804441242E+04 -0.73364859498E+03  0.14887897680E+04  0.89816482784E+02 0.  0.
         13    1    3    3    0    0 -0.46433743298E+01  0.23061442819E+03 -0.10626423732E+03  0.25396193326E+03  0.00000000000E+00 0.  1.
        -13    1    3    3    0    0 -0.17042962980E+03  0.10498296960E+04 -0.62738435766E+03  0.12348278348E+04  0.00000000000E+00 0. -1.
         22    1    1    2    0    0  0.17507300413E+03 -0.12804441242E+04  0.30742577268E+04  0.33348535624E+04  0.00000000000E+00 0.  1.
<mgrwt>
<rscale>  0 0.42177107E+04</rscale>
<asrwt>0</asrwt>
<pdfrwt beam="1">  1        2 0.55109634E+00 0.42177107E+04</pdfrwt>
<pdfrwt beam="2">  1       -2 0.19100263E+00 0.42177107E+04</pdfrwt>
<totfact> 0.83944777E-02</totfact>
</mgrwt>
</event>
<event>
 6    1  0.1603085E-006  0.2128731E+04  0.7818608E-02  0.8548691E-01
          2   -1    0    0  501    0  0.00000000000E+00  0.00000000000E+00  0.11971312249E+04  0.11971312249E+04  0.00000000000E+00 0.  1.
         -2   -1    0    0    0  501 -0.00000000000E+00 -0.00000000000E+00 -0.94632436646E+03  0.94632436646E+03  0.00000000000E+00 0. -1.
         23    2    1    2    0    0  0.30199192073E+03  0.51465113344E+03 -0.75944721406E+03  0.97013628258E+03  0.91320460408E+02 0.  0.
         11    1    3    3    0    0  0.26749805015E+03  0.41403121585E+03 -0.66584276575E+03  0.82844652406E+03  0.00000000000E+00 0.  1.
        -11    1    3    3    0    0  0.34493870577E+02  0.10061991760E+03 -0.93604448314E+02  0.14168975852E+03  0.00000000000E+00 0. -1.
         22    1    1    2    0    0 -0.30199192073E+03 -0.51465113344E+03  0.10102540725E+04  0.11733193088E+04  0.00000000000E+00 0.  1.
<mgrwt>
<rscale>  0 0.21287315E+04</rscale>
<asrwt>0</asrwt>
<pdfrwt beam="1">  1        2 0.18417403E+00 0.21287315E+04</pdfrwt>
<pdfrwt beam="2">  1       -2 0.14558836E+00 0.21287315E+04</pdfrwt>
<totfact> 0.56686571E+00</totfact>
</mgrwt>
</event>
<event>
 6    1  0.1603085E-006  0.1865863E+04  0.7818608E-02  0.8672037E-01
          2   -1    0    0  501    0  0.00000000000E+00  0.00000000000E+00  0.19851737753E+04  0.19851737753E+04  0.00000000000E+00 0.  1.
         -2   -1    0    0    0  501 -0.00000000000E+00 -0.00000000000E+00 -0.43843090002E+03  0.43843090002E+03  0.00000000000E+00 0. -1.
         23    2    1    2    0    0 -0.49254253574E+03 -0.64233755774E+03  0.17813055713E+03  0.83354324096E+03  0.88702601867E+02 0.  0.
         13    1    3    3    0    0 -0.23866825741E+03 -0.38364236968E+03  0.10055310018E+03  0.46287679879E+03  0.00000000000E+00 0.  1.
        -13    1    3    3    0    0 -0.25387427833E+03 -0.25869518807E+03  0.77577456949E+02  0.37066644217E+03  0.00000000000E+00 0. -1.
         22    1    1    2    0    0  0.49254253574E+03  0.64233755774E+03  0.13686123181E+04  0.15900614343E+04  0.00000000000E+00 0.  1.
<mgrwt>
<rscale>  0 0.18658634E+04</rscale>
<asrwt>0</asrwt>
<pdfrwt beam="1">  1        2 0.30541135E+00 0.18658634E+04</pdfrwt>
<pdfrwt beam="2">  1       -2 0.67450909E-01 0.18658634E+04</pdfrwt>
<totfact> 0.12886931E+01</totfact>
</mgrwt>
</event>
<event>
 6    1  0.1736658E-006  0.3405295E+04  0.7818608E-02  0.8136608E-01
          1   -1    0    0  501    0  0.00000000000E+00  0.00000000000E+00  0.22213674168E+04  0.22213674168E+04  0.00000000000E+00 0. -1.
         -1   -1    0    0    0  501 -0.00000000000E+00 -0.00000000000E+00 -0.13050556224E+04  0.13050556224E+04  0.00000000000E+00 0.  1.
         23    2    1    2    0    0  0.14917156508E+03  0.70651144759E+03 -0.11360350392E+04  0.13507534626E+04  0.11202109125E+03 0.  0.
         11    1    3    3    0    0  0.88722104775E+02  0.56262597471E+03 -0.95275738306E+03  0.11100298331E+04  0.00000000000E+00 0. -1.
        -11    1    3    3    0    0  0.60449460308E+02  0.14388547288E+03 -0.18327765618E+03  0.24072362952E+03  0.00000000000E+00 0.  1.
         22    1    1    2    0    0 -0.14917156508E+03 -0.70651144759E+03  0.20523468336E+04  0.21756695766E+04  0.00000000000E+00 0. -1.
<mgrwt>
<rscale>  0 0.34052947E+04</rscale>
<asrwt>0</asrwt>
<pdfrwt beam="1">  1        1 0.34174883E+00 0.34052947E+04</pdfrwt>
<pdfrwt beam="2">  1       -1 0.20077779E+00 0.34052947E+04</pdfrwt>
<totfact> 0.25751832E-01</totfact>
</mgrwt>
</event>
<event>
 6    1  0.1603085E-006  0.2436373E+04  0.7818608E-02  0.8426010E-01
         -2   -1    0    0    0  501 -0.00000000000E+00  0.00000000000E+00  0.14786181843E+04  0.14786181843E+04  0.00000000000E+00 0.  1.
          2   -1    0    0  501    0  0.00000000000E+00 -0.00000000000E+00 -0.10036252067E+04  0.10036252067E+04  0.00000000000E+00 0. -1.
         23    2    1    2    0    0 -0.12365732966E+03  0.79675360129E+03 -0.69009085765E+03  0.10653708564E+04  0.93178503372E+02 0.  0.
         11    1    3    3    0    0 -0.13387378610E+03  0.65464189642E+03 -0.54822103847E+03  0.86430579667E+03  0.00000000000E+00 0. -1.
        -11    1    3    3    0    0  0.10216456436E+02  0.14211170487E+03 -0.14186981918E+03  0.20106505971E+03  0.00000000000E+00 0.  1.
         22    1    1    2    0    0  0.12365732966E+03 -0.79675360129E+03  0.11650838352E+04  0.14168725347E+04  0.00000000000E+00 0.  1.
<mgrwt>
<rscale>  0 0.24363731E+04</rscale>
<asrwt>0</asrwt>
<pdfrwt beam="1">  1        2 0.15440388E+00 0.24363731E+04</pdfrwt>
<pdfrwt beam="2">  1       -2 0.22747972E+00 0.24363731E+04</pdfrwt>
<totfact> 0.19912520E+00</totfact>
</mgrwt>
</event>
<event>
 6    1  0.1603085E-006  0.2331464E+04  0.7818608E-02  0.8465618E-01
          2   -1    0    0  501    0  0.00000000000E+00  0.00000000000E+00  0.29870742200E+04  0.29870742200E+04  0.00000000000E+00 0. -1.
         -2   -1    0    0    0  501 -0.00000000000E+00 -0.00000000000E+00 -0.45493705290E+03  0.45493705290E+03  0.00000000000E+00 0.  1.
         23    2    1    2    0    0 -0.78121945114E+02 -0.65632797070E+03  0.26824410474E+04  0.27641759686E+04  0.91155741289E+02 0.  0.
         11    1    3    3    0    0 -0.77363459066E+02 -0.33097819741E+03  0.12643565597E+04  0.13092475634E+04  0.00000000000E+00 0. -1.
        -11    1    3    3    0    0 -0.75848604868E+00 -0.32534977329E+03  0.14180844876E+04  0.14549284052E+04  0.00000000000E+00 0.  1.
         22    1    1    2    0    0  0.78121945114E+02  0.65632797070E+03 -0.15030388024E+03  0.67783530437E+03  0.00000000000E+00 0.  1.
<mgrwt>
<rscale>  0 0.23314637E+04</rscale>
<asrwt>0</asrwt>
<pdfrwt beam="1">  1        2 0.45954987E+00 0.23314637E+04</pdfrwt>
<pdfrwt beam="2">  1       -2 0.69990318E-01 0.23314637E+04</pdfrwt>
<totfact> 0.29848541E+00</totfact>
</mgrwt>
</event>
<event>
 6    1  0.1603085E-006  0.1169625E+04  0.7818608E-02  0.9139867E-01
          2   -1    0    0  501    0  0.00000000000E+00  0.00000000000E+00  0.13483126300E+03  0.13483126300E+03  0.00000000000E+00 0. -1.
         -2   -1    0    0    0  501 -0.00000000000E+00 -0.00000000000E+00 -0.25365463993E+04  0.25365463993E+04  0.00000000000E+00 0.  1.
         23    2    1    2    0    0  0.25960744069E+03 -0.24762948655E+02 -0.23946395339E+04  0.24104959054E+04  0.90458752987E+02 0.  0.
         11    1    3    3    0    0  0.12842012872E+03 -0.37529213248E+02 -0.87742206192E+03  0.88756388280E+03  0.00000000000E+00 0. -1.
        -11    1    3    3    0    0  0.13118731197E+03  0.12766264593E+02 -0.15172174720E+04  0.15229320226E+04  0.00000000000E+00 0.  1.
         22    1    1    2    0    0 -0.25960744069E+03  0.24762948655E+02 -0.70756023722E+01  0.26088175681E+03  0.00000000000E+00 0. -1.
<mgrwt>
<rscale>  0 0.11696252E+04</rscale>
<asrwt>0</asrwt>
<pdfrwt beam="1">  1        2 0.20743271E-01 0.11696252E+04</pdfrwt>
<pdfrwt beam="2">  1       -2 0.39023790E+00 0.11696252E+04</pdfrwt>
<totfact> 0.23626765E+00</totfact>
</mgrwt>
</event>
<event>
 6    1  0.1603085E-006  0.6523044E+03  0.7818608E-02  0.9802465E-01
          1   -1    0    0  501    0  0.00000000000E+00  0.00000000000E+00  0.47647867805E+03  0.47647867805E+03  0.00000000000E+00 0. -1.
         -1   -1    0    0    0  501 -0.00000000000E+00 -0.00000000000E+00 -0.22325293627E+03  0.22325293627E+03  0.00000000000E+00 0.  1.
         23    2    1    2    0    0  0.96863039080E+02  0.29422445452E+03  0.44487381462E+02  0.32620493382E+03  0.92087207390E+02 0.  0.
         11    1    3    3    0    0  0.10146880299E+03  0.20096506923E+03  0.56370766649E+02  0.23207873743E+03  0.00000000000E+00 0. -1.
        -11    1    3    3    0    0 -0.46057639106E+01  0.93259385282E+02 -0.11883385187E+02  0.94126196395E+02  0.00000000000E+00 0.  1.
         22    1    1    2    0    0 -0.96863039080E+02 -0.29422445452E+03  0.20873836031E+03  0.37352668050E+03  0.00000000000E+00 0. -1.
<mgrwt>
<rscale>  0 0.65230442E+03</rscale>
<asrwt>0</asrwt>
<pdfrwt beam="1">  1        1 0.73304412E-01 0.65230442E+03</pdfrwt>
<pdfrwt beam="2">  1       -1 0.34346606E-01 0.65230442E+03</pdfrwt>
<totfact> 0.38469856E+02</totfact>
</mgrwt>
</event>
<event>
 6    1  0.1603085E-006  0.1528338E+04  0.7818608E-02  0.8865824E-01
         -2   -1    0    0    0  501 -0.00000000000E+00  0.00000000000E+00  0.64545400778E+03  0.64545400778E+03  0.00000000000E+00 0. -1.
          2   -1    0    0  501    0  0.00000000000E+00 -0.00000000000E+00 -0.90471836787E+03  0.90471836787E+03  0.00000000000E+00 0.  1.
         23    2    1    2    0    0 -0.67639882290E+02 -0.71626636814E+03 -0.38337943591E+03  0.82009209524E+03  0.89210924219E+02 0.  0.
         13    1    3    3    0    0 -0.28552634343E+02 -0.52653503070E+03 -0.31731360427E+03  0.61542043754E+03  0.00000000000E+00 0. -1.
        -13    1    3    3    0    0 -0.39087247947E+02 -0.18973133744E+03 -0.66065831636E+02  0.20467165771E+03  0.00000000000E+00 0.  1.
         22    1    1    2    0    0  0.67639882290E+02  0.71626636814E+03  0.12411507581E+03  0.73008028041E+03  0.00000000000E+00 0. -1.
<mgrwt>
<rscale>  0 0.15283378E+04</rscale>
<asrwt>0</asrwt>
<pdfrwt beam="1">  1        2 0.13918744E+00 0.15283378E+04</pdfrwt>
<pdfrwt beam="2">  1       -2 0.99300616E-01 0.15283378E+04</pdfrwt>
<totfact> 0.23573741E+01</totfact>
</mgrwt>
</event>
<event>
 6    1  0.1603085E-006  0.2042686E+04  0.7818608E-02  0.8586920E-01
         -1   -1    0    0    0  501 -0.00000000000E+00  0.00000000000E+00  0.65913378114E+03  0.65913378114E+03  0.00000000000E+00 0.  1.
          1   -1    0    0  501    0  0.00000000000E+00 -0.00000000000E+00 -0.15825940173E+04  0.15825940173E+04  0.00000000000E+00 0. -1.
         23    2    1    2    0    0 -0.10098690217E+04 -0.10610660517E+03 -0.55950187451E+03  0.11630435343E+04  0.92378907628E+02 0.  0.
         11    1    3    3    0    0 -0.47237177565E+03 -0.76757079420E+02 -0.30606214901E+03  0.56806758641E+03  0.00000000000E+00 0. -1.
        -11    1    3    3    0    0 -0.53749724604E+03 -0.29349525746E+02 -0.25343972550E+03  0.59497594794E+03  0.00000000000E+00 0.  1.
         22    1    1    2    0    0  0.10098690217E+04  0.10610660517E+03 -0.36395836167E+03  0.10786842641E+04  0.00000000000E+00 0.  1.
<mgrwt>
<rscale>  0 0.20426857E+04</rscale>
<asrwt>0</asrwt>
<pdfrwt beam="1">  1        1 0.24347600E+00 0.20426857E+04</pdfrwt>
<pdfrwt beam="2">  1       -1 0.10140520E+00 0.20426857E+04</pdfrwt>
<totfact> 0.48930944E+00</totfact>
</mgrwt>
</event>
<event>
 6    1  0.1603085E-006  0.1308661E+04  0.7818608E-02  0.9022725E-01
         -1   -1    0    0    0  501 -0.00000000000E+00  0.00000000000E+00  0.23758260428E+04  0.23758260428E+04  0.00000000000E+00 0.  1.
          1   -1    0    0  501    0  0.00000000000E+00 -0.00000000000E+00 -0.18021035059E+03  0.18021035059E+03  0.00000000000E+00 0. -1.
         23    2    1    2    0    0 -0.23647442662E+03  0.50289686794E+03  0.17660068395E+04  0.18536197218E+04  0.91107087965E+02 0.  0.
         11    1    3    3    0    0 -0.15578453289E+03  0.22477495425E+03  0.87198366936E+03  0.91386438840E+03  0.00000000000E+00 0. -1.
        -11    1    3    3    0    0 -0.80689893726E+02  0.27812191369E+03  0.89402317015E+03  0.93975533337E+03  0.00000000000E+00 0.  1.
         22    1    1    2    0    0  0.23647442662E+03 -0.50289686794E+03  0.42960885265E+03  0.70241667157E+03  0.00000000000E+00 0. -1.
<mgrwt>
<rscale>  0 0.13086611E+04</rscale>
<asrwt>0</asrwt>
<pdfrwt beam="1">  1        1 0.27724671E-01 0.13086611E+04</pdfrwt>
<pdfrwt beam="2">  1       -1 0.36551168E+00 0.13086611E+04</pdfrwt>
<totfact> 0.20699642E+00</totfact>
</mgrwt>
</event>
<event>
 6    1  0.1603085E-006  0.1778962E+04  0.7818608E-02  0.8717568E-01
         -2   -1    0    0    0  501 -0.00000000000E+00  0.00000000000E+00  0.39283145057E+03  0.39283145057E+03  0.00000000000E+00 0.  1.
          2   -1    0    0  501    0  0.00000000000E+00 -0.00000000000E+00 -0.20140361899E+04  0.20140361899E+04  0.00000000000E+00 0. -1.
         23    2    1    2    0    0  0.81439311571E+03 -0.21308687627E+03 -0.11914763908E+04  0.14617175903E+04  0.91433912394E+02 0.  0.
         11    1    3    3    0    0  0.95880069813E+02 -0.26882764794E+02 -0.19751770955E+03  0.22119881649E+03  0.00000000000E+00 0.  1.
        -11    1    3    3    0    0  0.71851304590E+03 -0.18620411148E+03 -0.99395868121E+03  0.12405187738E+04  0.00000000000E+00 0. -1.
         22    1    1    2    0    0 -0.81439311571E+03  0.21308687627E+03 -0.42972834857E+03  0.94515005017E+03  0.00000000000E+00 0. -1.
<mgrwt>
<rscale>  0 0.17789623E+04</rscale>
<asrwt>0</asrwt>
<pdfrwt beam="1">  1        2 0.30985173E+00 0.17789623E+04</pdfrwt>
<pdfrwt beam="2">  1       -2 0.60435607E-01 0.17789623E+04</pdfrwt>
<totfact> 0.15827750E+01</totfact>
</mgrwt>
</event>
<event>
 6    1  0.1603085E-006  0.2828384E+04  0.7818608E-02  0.8294510E-01
          2   -1    0    0  501    0  0.00000000000E+00  0.00000000000E+00  0.14664599650E+04  0.14664599650E+04  0.00000000000E+00 0. -1.
         -2   -1    0    0    0  501 -0.00000000000E+00 -0.00000000000E+00 -0.13637866006E+04  0.13637866006E+04  0.00000000000E+00 0.  1.
         23    2    1    2    0    0 -0.10187772672E+03  0.83272660956E+03  0.11886669622E+04  0.14579511266E+04  0.94231963970E+02 0.  0.
         13    1    3    3    0    0 -0.49933591463E+02  0.35002861190E+03  0.58147246165E+03  0.68053186286E+03  0.00000000000E+00 0.  1.
        -13    1    3    3    0    0 -0.51944135257E+02  0.48269799766E+03  0.60719450060E+03  0.77741926377E+03  0.00000000000E+00 0. -1.
         22    1    1    2    0    0  0.10187772672E+03 -0.83272660956E+03 -0.10859935978E+04  0.13722954390E+04  0.00000000000E+00 0.  1.
<mgrwt>
<rscale>  0 0.28283836E+04</rscale>
<asrwt>0</asrwt>
<pdfrwt beam="1">  1        2 0.22560923E+00 0.28283836E+04</pdfrwt>
<pdfrwt beam="2">  1       -2 0.20981332E+00 0.28283836E+04</pdfrwt>
<totfact> 0.13220800E+00</totfact>
</mgrwt>
</event>
<event>
 6    1  0.1603085E-006  0.4251868E+04  0.7818608E-02  0.7955579E-01
         -2   -1    0    0    0  501 -0.00000000000E+00  0.00000000000E+00  0.22403141884E+04  0.22403141884E+04  0.00000000000E+00 0.  1.
          2   -1    0    0  501    0  0.00000000000E+00 -0.00000000000E+00 -0.20173933815E+04  0.20173933815E+04  0.00000000000E+00 0. -1.
         23    2    1    2    0    0 -0.20920309316E+04 -0.24219356750E+03 -0.17314391981E+03  0.21147847038E+04  0.84168780002E+02 0.  0.
         11    1    3    3    0    0 -0.11337042247E+04 -0.92877345620E+02 -0.11103630332E+03  0.11429088026E+04  0.00000000000E+00 0.  1.
        -11    1    3    3    0    0 -0.95832670687E+03 -0.14931622188E+03 -0.62107616489E+02  0.97187590115E+03  0.00000000000E+00 0. -1.
         22    1    1    2    0    0  0.20920309316E+04  0.24219356750E+03  0.39606472668E+03  0.21429228662E+04  0.00000000000E+00 0.  1.
<mgrwt>
<rscale>  0 0.42518678E+04</rscale>
<asrwt>0</asrwt>
<pdfrwt beam="1">  1        2 0.31036821E+00 0.42518678E+04</pdfrwt>
<pdfrwt beam="2">  1       -2 0.34466372E+00 0.42518678E+04</pdfrwt>
<totfact> 0.84893199E-02</totfact>
</mgrwt>
</event>
<event>
 6    1  0.1603085E-006  0.1347562E+04  0.7818608E-02  0.8992676E-01
         -2   -1    0    0    0  501 -0.00000000000E+00  0.00000000000E+00  0.29715812757E+03  0.29715812757E+03  0.00000000000E+00 0.  1.
          2   -1    0    0  501    0  0.00000000000E+00 -0.00000000000E+00 -0.15277420008E+04  0.15277420008E+04  0.00000000000E+00 0. -1.
         23    2    1    2    0    0  0.13894108522E+03 -0.65027323025E+03 -0.50279072491E+03  0.83907926945E+03  0.95370898172E+02 0.  0.
         11    1    3    3    0    0  0.11711378751E+03 -0.56167054369E+03 -0.47143611994E+03  0.74259104092E+03  0.00000000000E+00 0.  1.
        -11    1    3    3    0    0  0.21827297712E+02 -0.88602686564E+02 -0.31354604972E+02  0.96488228529E+02  0.00000000000E+00 0. -1.
         22    1    1    2    0    0 -0.13894108522E+03  0.65027323025E+03 -0.72779314833E+03  0.98582085893E+03  0.00000000000E+00 0. -1.
<mgrwt>
<rscale>  0 0.13475622E+04</rscale>
<asrwt>0</asrwt>
<pdfrwt beam="1">  1        2 0.23503724E+00 0.13475622E+04</pdfrwt>
<pdfrwt beam="2">  1       -2 0.45716634E-01 0.13475622E+04</pdfrwt>
<totfact> 0.54256902E+01</totfact>
</mgrwt>
</event>
<event>
 6    1  0.1603085E-006  0.3457055E+04  0.7818608E-02  0.8124043E-01
          2   -1    0    0  501    0  0.00000000000E+00  0.00000000000E+00  0.21884449566E+04  0.21884449566E+04  0.00000000000E+00 0. -1.
         -2   -1    0    0    0  501 -0.00000000000E+00 -0.00000000000E+00 -0.13652653046E+04  0.13652653046E+04  0.00000000000E+00 0.  1.
         23    2    1    2    0    0 -0.12518842440E+04 -0.77436900594E+03  0.13409081395E+04  0.19932922709E+04  0.91202637683E+02 0.  0.
         13    1    3    3    0    0 -0.10660218049E+04 -0.68331893411E+03  0.11843101132E+04  0.17337582584E+04  0.00000000000E+00 0. -1.
        -13    1    3    3    0    0 -0.18586243905E+03 -0.91050071831E+02  0.15659802630E+03  0.25953401256E+03  0.00000000000E+00 0.  1.
         22    1    1    2    0    0  0.12518842440E+04  0.77436900594E+03 -0.51772848740E+03  0.15604179903E+04  0.00000000000E+00 0. -1.
<mgrwt>
<rscale>  0 0.34570554E+04</rscale>
<asrwt>0</asrwt>
<pdfrwt beam="1">  1        2 0.33668384E+00 0.34570554E+04</pdfrwt>
<pdfrwt beam="2">  1       -2 0.21004082E+00 0.34570554E+04</pdfrwt>
<totfact> 0.49465954E-01</totfact>
</mgrwt>
</event>
<event>
 6    1  0.1603085E-006  0.4404893E+04  0.7818608E-02  0.7927502E-01
         -1   -1    0    0    0  501 -0.00000000000E+00  0.00000000000E+00  0.10338180395E+04  0.10338180395E+04  0.00000000000E+00 0.  1.
          1   -1    0    0  501    0  0.00000000000E+00 -0.00000000000E+00 -0.46920941977E+04  0.46920941977E+04  0.00000000000E+00 0. -1.
         23    2    1    2    0    0 -0.10396891093E+04 -0.13991026082E+04 -0.82310721008E+02  0.17477254190E+04  0.96579154777E+02 0.  0.
         13    1    3    3    0    0 -0.10046239047E+03 -0.18755814615E+03 -0.14369099774E+02  0.21325388886E+03  0.00000000000E+00 0.  1.
        -13    1    3    3    0    0 -0.93922671887E+03 -0.12115444620E+04 -0.67941621234E+02  0.15344715301E+04  0.00000000000E+00 0. -1.
         22    1    1    2    0    0  0.10396891093E+04  0.13991026082E+04 -0.35759654372E+04  0.39781868181E+04  0.00000000000E+00 0. -1.
<mgrwt>
<rscale>  0 0.44048935E+04</rscale>
<asrwt>0</asrwt>
<pdfrwt beam="1">  1        1 0.72186063E+00 0.44048935E+04</pdfrwt>
<pdfrwt beam="2">  1       -1 0.15904893E+00 0.44048935E+04</pdfrwt>
<totfact> 0.44835098E-03</totfact>
</mgrwt>
</event>
<event>
 6    1  0.1603085E-006  0.2475980E+04  0.7818608E-02  0.8411593E-01
          2   -1    0    0  501    0  0.00000000000E+00  0.00000000000E+00  0.10246166442E+04  0.10246166442E+04  0.00000000000E+00 0. -1.
         -2   -1    0    0    0  501 -0.00000000000E+00 -0.00000000000E+00 -0.14957980309E+04  0.14957980309E+04  0.00000000000E+00 0.  1.
         23    2    1    2    0    0  0.63532282764E+03 -0.85336229869E+03 -0.87690019054E+03  0.13817882852E+04  0.92317998517E+02 0.  0.
         13    1    3    3    0    0  0.59037398010E+03 -0.74813159674E+03 -0.77030657335E+03  0.12254038271E+04  0.00000000000E+00 0. -1.
        -13    1    3    3    0    0  0.44948847532E+02 -0.10523070195E+03 -0.10659361720E+03  0.15638445816E+03  0.00000000000E+00 0.  1.
         22    1    1    2    0    0 -0.63532282764E+03  0.85336229869E+03  0.40571880382E+03  0.11386263900E+04  0.00000000000E+00 0. -1.
<mgrwt>
<rscale>  0 0.24759803E+04</rscale>
<asrwt>0</asrwt>
<pdfrwt beam="1">  1        2 0.15763333E+00 0.24759803E+04</pdfrwt>
<pdfrwt beam="2">  1       -2 0.23012277E+00 0.24759803E+04</pdfrwt>
<totfact> 0.18523928E+00</totfact>
</mgrwt>
</event>
<event>
 6    1  0.1603085E-006  0.2631382E+04  0.7818608E-02  0.8357619E-01
          1   -1    0    0  501    0  0.00000000000E+00  0.00000000000E+00  0.17513257950E+04  0.17513257950E+04  0.00000000000E+00 0. -1.
         -1   -1    0    0    0  501 -0.00000000000E+00 -0.00000000000E+00 -0.98841846883E+03  0.98841846883E+03  0.00000000000E+00 0.  1.
         23    2    1    2    0    0  0.10149042790E+04  0.81261301584E+03  0.18421511983E+03  0.13166296238E+04  0.95957004614E+02 0.  0.
         13    1    3    3    0    0  0.47991303180E+03  0.33792728779E+03  0.11453673312E+03  0.59802176645E+03  0.00000000000E+00 0. -1.
        -13    1    3    3    0    0  0.53499124721E+03  0.47468572806E+03  0.69678386707E+02  0.71860785731E+03  0.00000000000E+00 0.  1.
         22    1    1    2    0    0 -0.10149042790E+04 -0.81261301584E+03  0.57869220633E+03  0.14231146400E+04  0.00000000000E+00 0. -1.
<mgrwt>
<rscale>  0 0.26313820E+04</rscale>
<asrwt>0</asrwt>
<pdfrwt beam="1">  1        1 0.26943474E+00 0.26313820E+04</pdfrwt>
<pdfrwt beam="2">  1       -1 0.15206438E+00 0.26313820E+04</pdfrwt>
<totfact> 0.12984803E+00</totfact>
</mgrwt>
</event>
<event>
 6    1  0.1783289E-006  0.4471332E+04  0.7818608E-02  0.7915675E-01
          2   -1    0    0  501    0  0.00000000000E+00  0.00000000000E+00  0.18959690377E+04  0.18959690377E+04  0.00000000000E+00 0. -1.
         -2   -1    0    0    0  501 -0.00000000000E+00 -0.00000000000E+00 -0.26362263324E+04  0.26362263324E+04  0.00000000000E+00 0.  1.
         23    2    1    2    0    0  0.13703963756E+03 -0.21712433856E+04  0.14569001084E+03  0.21831571989E+04  0.10895904700E+03 0.  0.
         11    1    3    3    0    0  0.10146131198E+03 -0.13590301008E+04  0.40761063906E+02  0.13634216799E+04  0.00000000000E+00 0. -1.
        -11    1    3    3    0    0  0.35578325580E+02 -0.81221328476E+03  0.10492894694E+03  0.81973551899E+03  0.00000000000E+00 0.  1.
         22    1    1    2    0    0 -0.13703963756E+03  0.21712433856E+04 -0.88594730552E+03  0.23490381712E+04  0.00000000000E+00 0.  1.
<mgrwt>
<rscale>  0 0.44713325E+04</rscale>
<asrwt>0</asrwt>
<pdfrwt beam="1">  1        2 0.29168755E+00 0.44713325E+04</pdfrwt>
<pdfrwt beam="2">  1       -2 0.40557328E+00 0.44713325E+04</pdfrwt>
<totfact> 0.39561410E-02</totfact>
</mgrwt>
</event>
<event>
 6    1  0.1603085E-006  0.2697109E+04  0.7818608E-02  0.8335943E-01
          2   -1    0    0  501    0  0.00000000000E+00  0.00000000000E+00  0.47091017658E+04  0.47091017658E+04  0.00000000000E+00 0. -1.
         -2   -1    0    0    0  501 -0.00000000000E+00 -0.00000000000E+00 -0.38618822821E+03  0.38618822821E+03  0.00000000000E+00 0.  1.
         23    2    1    2    0    0 -0.90150886704E+03 -0.99719136446E+03  0.20035952399E+04  0.24145538599E+04  0.92561343446E+02 0.  0.
         11    1    3    3    0    0 -0.59823286318E+03 -0.66186048749E+03  0.14065519403E+04  0.16656320795E+04  0.00000000000E+00 0. -1.
        -11    1    3    3    0    0 -0.30327600385E+03 -0.33533087697E+03  0.59704329965E+03  0.74892178044E+03  0.00000000000E+00 0.  1.
         22    1    1    2    0    0  0.90150886704E+03  0.99719136446E+03  0.23193182976E+04  0.26807361341E+04  0.00000000000E+00 0.  1.
<mgrwt>
<rscale>  0 0.26971093E+04</rscale>
<asrwt>0</asrwt>
<pdfrwt beam="1">  1        2 0.72447715E+00 0.26971093E+04</pdfrwt>
<pdfrwt beam="2">  1       -2 0.59413577E-01 0.26971093E+04</pdfrwt>
<totfact> 0.17471259E-01</totfact>
</mgrwt>
</event>
<event>
 6    1  0.1603085E-006  0.5224520E+03  0.7818608E-02  0.1008079E+00
         -1   -1    0    0    0  501 -0.00000000000E+00  0.00000000000E+00  0.89851939440E+02  0.89851939440E+02  0.00000000000E+00 0.  1.
          1   -1    0    0  501    0  0.00000000000E+00 -0.00000000000E+00 -0.75946084692E+03  0.75946084692E+03  0.00000000000E+00 0. -1.
         23    2    1    2    0    0  0.97793740697E+02  0.14734107204E+03 -0.63987431213E+03  0.66998862906E+03  0.90402547077E+02 0.  0.
         11    1    3    3    0    0  0.20070764507E+02  0.91039015801E+01 -0.22102934391E+03  0.22212538685E+03  0.00000000000E+00 0.  1.
        -11    1    3    3    0    0  0.77722976190E+02  0.13823717046E+03 -0.41884496821E+03  0.44786324221E+03  0.00000000000E+00 0. -1.
         22    1    1    2    0    0 -0.97793740697E+02 -0.14734107204E+03 -0.29734595347E+02  0.17932415730E+03  0.00000000000E+00 0.  1.
<mgrwt>
<rscale>  0 0.52245203E+03</rscale>
<asrwt>0</asrwt>
<pdfrwt beam="1">  1        1 0.11684013E+00 0.52245203E+03</pdfrwt>
<pdfrwt beam="2">  1       -1 0.13823375E-01 0.52245203E+03</pdfrwt>
<totfact> 0.91040970E+02</totfact>
</mgrwt>
</event>
<event>
 6    1  0.1603085E-006  0.2390087E+04  0.7818608E-02  0.8443224E-01
          1   -1    0    0  501    0  0.00000000000E+00  0.00000000000E+00  0.28593989635E+04  0.28593989635E+04  0.00000000000E+00 0. -1.
         -1   -1    0    0    0  501 -0.00000000000E+00 -0.00000000000E+00 -0.49945068712E+03  0.49945068712E+03  0.00000000000E+00 0.  1.
         23    2    1    2    0    0  0.57590128328E+03 -0.95547931779E+03  0.17767592781E+04  0.20999960362E+04  0.92232342465E+02 0.  0.
         11    1    3    3    0    0  0.11143620136E+03 -0.21397905469E+03  0.45240815899E+03  0.51271649587E+03  0.00000000000E+00 0. -1.
        -11    1    3    3    0    0  0.46446508192E+03 -0.74150026310E+03  0.13243511191E+04  0.15872795403E+04  0.00000000000E+00 0.  1.
         22    1    1    2    0    0 -0.57590128328E+03  0.95547931779E+03  0.58318899830E+03  0.12588536144E+04  0.00000000000E+00 0.  1.
<mgrwt>
<rscale>  0 0.23900868E+04</rscale>
<asrwt>0</asrwt>
<pdfrwt beam="1">  1        1 0.43990752E+00 0.23900868E+04</pdfrwt>
<pdfrwt beam="2">  1       -1 0.76838569E-01 0.23900868E+04</pdfrwt>
<totfact> 0.11516900E+00</totfact>
</mgrwt>
</event>
<event>
 6    1  0.1603085E-006  0.3399834E+03  0.7818608E-02  0.1066803E+00
         -2   -1    0    0    0  501 -0.00000000000E+00  0.00000000000E+00  0.12819748348E+02  0.12819748348E+02  0.00000000000E+00 0.  1.
          2   -1    0    0  501    0  0.00000000000E+00 -0.00000000000E+00 -0.22541144517E+04  0.22541144517E+04  0.00000000000E+00 0. -1.
         23    2    1    2    0    0 -0.94981150007E+02 -0.36774939163E+02 -0.20041337144E+04  0.20088273430E+04  0.91986594223E+02 0.  0.
         11    1    3    3    0    0 -0.28570613640E+02 -0.53780651830E+01 -0.13917376874E+04  0.13920413047E+04  0.00000000000E+00 0. -1.
        -11    1    3    3    0    0 -0.66410536368E+02 -0.31396873980E+02 -0.61239602704E+03  0.61678603825E+03  0.00000000000E+00 0.  1.
         22    1    1    2    0    0  0.94981150007E+02  0.36774939163E+02 -0.23716098892E+03  0.25810685709E+03  0.00000000000E+00 0.  1.
<mgrwt>
<rscale>  0 0.33998341E+03</rscale>
<asrwt>0</asrwt>
<pdfrwt beam="1">  1        2 0.34678664E+00 0.33998341E+03</pdfrwt>
<pdfrwt beam="2">  1       -2 0.19722701E-02 0.33998341E+03</pdfrwt>
<totfact> 0.42907965E+03</totfact>
</mgrwt>
</event>
<event>
 6    1  0.1603085E-006  0.2488110E+04  0.7818608E-02  0.8407234E-01
          1   -1    0    0  501    0  0.00000000000E+00  0.00000000000E+00  0.89901970984E+03  0.89901970984E+03  0.00000000000E+00 0. -1.
         -1   -1    0    0    0  501 -0.00000000000E+00 -0.00000000000E+00 -0.17215109286E+04  0.17215109286E+04  0.00000000000E+00 0.  1.
         23    2    1    2    0    0 -0.79965843130E+03 -0.73754001999E+03 -0.10437979519E+04  0.15103975122E+04  0.91474546641E+02 0.  0.
         11    1    3    3    0    0 -0.20684948501E+03 -0.14486898365E+03 -0.26790170082E+03  0.36816443769E+03  0.00000000000E+00 0. -1.
        -11    1    3    3    0    0 -0.59280894628E+03 -0.59267103634E+03 -0.77589625111E+03  0.11422330746E+04  0.00000000000E+00 0.  1.
         22    1    1    2    0    0  0.79965843130E+03  0.73754001999E+03  0.22130673314E+03  0.11101331262E+04  0.00000000000E+00 0.  1.
<mgrwt>
<rscale>  0 0.24881095E+04</rscale>
<asrwt>0</asrwt>
<pdfrwt beam="1">  1        1 0.13831072E+00 0.24881095E+04</pdfrwt>
<pdfrwt beam="2">  1       -1 0.26484784E+00 0.24881095E+04</pdfrwt>
<totfact> 0.90472301E-01</totfact>
</mgrwt>
</event>
<event>
 6    1  0.1603085E-006  0.2281443E+04  0.7818608E-02  0.8485274E-01
         -1   -1    0    0    0  501 -0.00000000000E+00  0.00000000000E+00  0.13857654772E+04  0.13857654772E+04  0.00000000000E+00 0.  1.
          1   -1    0    0  501    0  0.00000000000E+00 -0.00000000000E+00 -0.93900844203E+03  0.93900844203E+03  0.00000000000E+00 0. -1.
         23    2    1    2    0    0 -0.53618515146E+03  0.38687406715E+02  0.12468650509E+04  0.13608423507E+04  0.90709514835E+02 0.  0.
         13    1    3    3    0    0 -0.21251429847E+03 -0.11277329394E+02  0.40482204613E+03  0.45735149966E+03  0.00000000000E+00 0.  1.
        -13    1    3    3    0    0 -0.32367085299E+03  0.49964736110E+02  0.84204300482E+03  0.90349085103E+03  0.00000000000E+00 0. -1.
         22    1    1    2    0    0  0.53618515146E+03 -0.38687406715E+02 -0.80010801573E+03  0.96393156859E+03  0.00000000000E+00 0. -1.
<mgrwt>
<rscale>  0 0.22814429E+04</rscale>
<asrwt>0</asrwt>
<pdfrwt beam="1">  1        1 0.14446284E+00 0.22814429E+04</pdfrwt>
<pdfrwt beam="2">  1       -1 0.21319469E+00 0.22814429E+04</pdfrwt>
<totfact> 0.18727919E+00</totfact>
</mgrwt>
</event>
<event>
 6    1  0.1603085E-006  0.5752240E+03  0.7818608E-02  0.9958185E-01
          1   -1    0    0  501    0  0.00000000000E+00  0.00000000000E+00  0.51226570800E+03  0.51226570800E+03  0.00000000000E+00 0. -1.
         -1   -1    0    0    0  501 -0.00000000000E+00 -0.00000000000E+00 -0.16148001357E+03  0.16148001357E+03  0.00000000000E+00 0.  1.
         23    2    1    2    0    0 -0.21494932409E+03 -0.14025586914E+03  0.31161765355E+03  0.41411318088E+03  0.92245562600E+02 0.  0.
         11    1    3    3    0    0 -0.18284026169E+03 -0.91723353490E+02  0.18952271504E+03  0.27885945275E+03  0.00000000000E+00 0.  1.
        -11    1    3    3    0    0 -0.32109062395E+02 -0.48532515654E+02  0.12209493851E+03  0.13525372813E+03  0.00000000000E+00 0. -1.
         22    1    1    2    0    0  0.21494932409E+03  0.14025586914E+03  0.39168040888E+02  0.25963254069E+03  0.00000000000E+00 0.  1.
<mgrwt>
<rscale>  0 0.57522404E+03</rscale>
<asrwt>0</asrwt>
<pdfrwt beam="1">  1        1 0.78810108E-01 0.57522404E+03</pdfrwt>
<pdfrwt beam="2">  1       -1 0.24843079E-01 0.57522404E+03</pdfrwt>
<totfact> 0.61219441E+02</totfact>
</mgrwt>
</event>
<event>
 6    1  0.1603085E-006  0.2842940E+04  0.7818608E-02  0.8290060E-01
         -1   -1    0    0    0  501 -0.00000000000E+00  0.00000000000E+00  0.84252790788E+03  0.84252790788E+03  0.00000000000E+00 0.  1.
          1   -1    0    0  501    0  0.00000000000E+00 -0.00000000000E+00 -0.23982321767E+04  0.23982321767E+04  0.00000000000E+00 0. -1.
         23    2    1    2    0    0 -0.11700534429E+04  0.79618844812E+03 -0.91068826620E+03  0.16854508717E+04  0.91926157173E+02 0.  0.
         11    1    3    3    0    0 -0.10352655335E+04  0.73800591390E+03 -0.82015447601E+03  0.15129708584E+04  0.00000000000E+00 0.  1.
        -11    1    3    3    0    0 -0.13478790939E+03  0.58182534229E+02 -0.90533790186E+02  0.17248001325E+03  0.00000000000E+00 0. -1.
         22    1    1    2    0    0  0.11700534429E+04 -0.79618844812E+03 -0.64501600267E+03  0.15553092130E+04  0.00000000000E+00 0. -1.
<mgrwt>
<rscale>  0 0.28429404E+04</rscale>
<asrwt>0</asrwt>
<pdfrwt beam="1">  1        1 0.36895879E+00 0.28429404E+04</pdfrwt>
<pdfrwt beam="2">  1       -1 0.12961968E+00 0.28429404E+04</pdfrwt>
<totfact> 0.70183931E-01</totfact>
</mgrwt>
</event>
<event>
 6    1  0.1603085E-006  0.3081457E+04  0.7818608E-02  0.8220845E-01
         -2   -1    0    0    0  501 -0.00000000000E+00  0.00000000000E+00  0.19510997539E+04  0.19510997539E+04  0.00000000000E+00 0.  1.
          2   -1    0    0  501    0  0.00000000000E+00 -0.00000000000E+00 -0.12166695371E+04  0.12166695371E+04  0.00000000000E+00 0. -1.
         23    2    1    2    0    0 -0.15235852373E+04  0.10441740581E+03  0.56617044227E+03  0.16313688479E+04  0.92738223507E+02 0.  0.
         11    1    3    3    0    0 -0.42450755477E+03 -0.69777376694E+01  0.13521370435E+03  0.44557614245E+03  0.00000000000E+00 0. -1.
        -11    1    3    3    0    0 -0.10990776826E+04  0.11139514348E+03  0.43095673793E+03  0.11857927054E+04  0.00000000000E+00 0.  1.
         22    1    1    2    0    0  0.15235852373E+04 -0.10441740581E+03  0.16825977451E+03  0.15364004432E+04  0.00000000000E+00 0. -1.
<mgrwt>
<rscale>  0 0.30814566E+04</rscale>
<asrwt>0</asrwt>
<pdfrwt beam="1">  1        2 0.18717993E+00 0.30814566E+04</pdfrwt>
<pdfrwt beam="2">  1       -2 0.30016919E+00 0.30814566E+04</pdfrwt>
<totfact> 0.49905845E-01</totfact>
</mgrwt>
</event>
<event>
 6    1  0.1603085E-006  0.2502154E+04  0.7818608E-02  0.8402219E-01
          1   -1    0    0  501    0  0.00000000000E+00  0.00000000000E+00  0.88844806096E+03  0.88844806096E+03  0.00000000000E+00 0. -1.
         -1   -1    0    0    0  501 -0.00000000000E+00 -0.00000000000E+00 -0.17617161076E+04  0.17617161076E+04  0.00000000000E+00 0.  1.
         23    2    1    2    0    0 -0.71514554678E+03  0.16370761552E+03 -0.15085518302E+04  0.16796906644E+04  0.86016087191E+02 0.  0.
         11    1    3    3    0    0 -0.65375770880E+03  0.15415144465E+03 -0.13183171837E+04  0.14795681824E+04  0.00000000000E+00 0. -1.
        -11    1    3    3    0    0 -0.61387837971E+02  0.95561708701E+01 -0.19023464653E+03  0.20012248198E+03  0.00000000000E+00 0.  1.
         22    1    1    2    0    0  0.71514554678E+03 -0.16370761552E+03  0.63528378361E+03  0.97047350411E+03  0.00000000000E+00 0. -1.
<mgrwt>
<rscale>  0 0.25021537E+04</rscale>
<asrwt>0</asrwt>
<pdfrwt beam="1">  1        1 0.13668432E+00 0.25021537E+04</pdfrwt>
<pdfrwt beam="2">  1       -1 0.27103325E+00 0.25021537E+04</pdfrwt>
<totfact> 0.84054238E-01</totfact>
</mgrwt>
</event>
<event>
 6    1  0.1603085E-006  0.7355769E+03  0.7818608E-02  0.9658254E-01
          2   -1    0    0  501    0  0.00000000000E+00  0.00000000000E+00  0.94833703227E+03  0.94833703227E+03  0.00000000000E+00 0. -1.
         -2   -1    0    0    0  501 -0.00000000000E+00 -0.00000000000E+00 -0.14263743389E+03  0.14263743389E+03  0.00000000000E+00 0.  1.
         23    2    1    2    0    0  0.10302561557E+03 -0.38466021249E+02  0.92100787951E+03  0.93163234382E+03  0.87117149088E+02 0.  0.
         11    1    3    3    0    0  0.31531147857E+02  0.13513224022E+02  0.51366372719E+03  0.51480796919E+03  0.00000000000E+00 0.  1.
        -11    1    3    3    0    0  0.71494467713E+02 -0.51979245271E+02  0.40734415232E+03  0.41682437463E+03  0.00000000000E+00 0. -1.
         22    1    1    2    0    0 -0.10302561557E+03  0.38466021249E+02 -0.11530828114E+03  0.15934212234E+03  0.00000000000E+00 0.  1.
<mgrwt>
<rscale>  0 0.73557695E+03</rscale>
<asrwt>0</asrwt>
<pdfrwt beam="1">  1        2 0.14589800E+00 0.73557695E+03</pdfrwt>
<pdfrwt beam="2">  1       -2 0.21944221E-01 0.73557695E+03</pdfrwt>
<totfact> 0.49597494E+02</totfact>
</mgrwt>
</event>
<event>
 6    1  0.1603085E-006  0.6692681E+04  0.7818608E-02  0.7609987E-01
         -2   -1    0    0    0  501 -0.00000000000E+00  0.00000000000E+00  0.36666949932E+04  0.36666949932E+04  0.00000000000E+00 0.  1.
          2   -1    0    0  501    0  0.00000000000E+00 -0.00000000000E+00 -0.30539749064E+04  0.30539749064E+04  0.00000000000E+00 0. -1.
         23    2    1    2    0    0 -0.19053101487E+04 -0.10759028416E+04  0.28479926317E+04  0.35926965881E+04  0.92914243348E+02 0.  0.
         13    1    3    3    0    0 -0.60189557266E+03 -0.37719114280E+03  0.97192505394E+03  0.12038229725E+04  0.00000000000E+00 0.  1.
        -13    1    3    3    0    0 -0.13034145761E+04 -0.69871169881E+03  0.18760675777E+04  0.23888736156E+04  0.00000000000E+00 0. -1.
         22    1    1    2    0    0  0.19053101487E+04  0.10759028416E+04 -0.22352725449E+04  0.31279733115E+04  0.00000000000E+00 0. -1.
<mgrwt>
<rscale>  0 0.66926809E+04</rscale>
<asrwt>0</asrwt>
<pdfrwt beam="1">  1        2 0.46984229E+00 0.66926809E+04</pdfrwt>
<pdfrwt beam="2">  1       -2 0.56410692E+00 0.66926809E+04</pdfrwt>
<totfact> 0.76460327E-04</totfact>
</mgrwt>
</event>
<event>
 6    1  0.1603085E-006  0.1035069E+04  0.7818608E-02  0.9270896E-01
         -2   -1    0    0    0  501 -0.00000000000E+00  0.00000000000E+00  0.13841624937E+03  0.13841624937E+03  0.00000000000E+00 0.  1.
          2   -1    0    0  501    0  0.00000000000E+00 -0.00000000000E+00 -0.19350478344E+04  0.19350478344E+04  0.00000000000E+00 0. -1.
         23    2    1    2    0    0  0.38402434604E+03  0.34054679768E+03 -0.92758873107E+03  0.10641661586E+04  0.92638757029E+02 0.  0.
         13    1    3    3    0    0  0.22224465233E+03  0.16677330616E+03 -0.41724199297E+03  0.50129522423E+03  0.00000000000E+00 0. -1.
        -13    1    3    3    0    0  0.16177969371E+03  0.17377349152E+03 -0.51034673810E+03  0.56287093435E+03  0.00000000000E+00 0.  1.
         22    1    1    2    0    0 -0.38402434604E+03 -0.34054679768E+03 -0.86904285396E+03  0.10092979252E+04  0.00000000000E+00 0.  1.
<mgrwt>
<rscale>  0 0.10350692E+04</rscale>
<asrwt>0</asrwt>
<pdfrwt beam="1">  1        2 0.29769965E+00 0.10350692E+04</pdfrwt>
<pdfrwt beam="2">  1       -2 0.21294809E-01 0.10350692E+04</pdfrwt>
<totfact> 0.13875145E+02</totfact>
</mgrwt>
</event>
<event>
 6    1  0.1603085E-006  0.5177749E+03  0.7818608E-02  0.1009241E+00
          1   -1    0    0  501    0  0.00000000000E+00  0.00000000000E+00  0.38768029409E+03  0.38768029409E+03  0.00000000000E+00 0. -1.
         -1   -1    0    0    0  501 -0.00000000000E+00 -0.00000000000E+00 -0.17288139919E+03  0.17288139919E+03  0.00000000000E+00 0.  1.
         23    2    1    2    0    0  0.15528734167E+03  0.34828630931E+02  0.32130356786E+03  0.36906642603E+03  0.87446281134E+02 0.  0.
         11    1    3    3    0    0  0.53001528675E+02 -0.26494030466E+02  0.14037177468E+03  0.15236577969E+03  0.00000000000E+00 0. -1.
        -11    1    3    3    0    0  0.10228581300E+03  0.61322661397E+02  0.18093179318E+03  0.21670064634E+03  0.00000000000E+00 0.  1.
         22    1    1    2    0    0 -0.15528734167E+03 -0.34828630931E+02 -0.10650467296E+03  0.19149526725E+03  0.00000000000E+00 0.  1.
<mgrwt>
<rscale>  0 0.51777490E+03</rscale>
<asrwt>0</asrwt>
<pdfrwt beam="1">  1        1 0.59643122E-01 0.51777490E+03</pdfrwt>
<pdfrwt beam="2">  1       -1 0.26597139E-01 0.51777490E+03</pdfrwt>
<totfact> 0.79202572E+02</totfact>
</mgrwt>
</event>
<event>
 6    1  0.1603085E-006  0.2352222E+04  0.7818608E-02  0.8457611E-01
          1   -1    0    0  501    0  0.00000000000E+00  0.00000000000E+00  0.20444871623E+04  0.20444871623E+04  0.00000000000E+00 0. -1.
         -1   -1    0    0    0  501 -0.00000000000E+00 -0.00000000000E+00 -0.67656897396E+03  0.67656897396E+03  0.00000000000E+00 0.  1.
         23    2    1    2    0    0 -0.17006829808E+03 -0.10528532266E+04  0.11593551063E+03  0.10764030518E+04  0.88200592397E+02 0.  0.
         11    1    3    3    0    0 -0.71038850593E+02 -0.21482241490E+03  0.26929437187E+02  0.22786044594E+03  0.00000000000E+00 0. -1.
        -11    1    3    3    0    0 -0.99029447491E+02 -0.83803081173E+03  0.89006073443E+02  0.84854260588E+03  0.00000000000E+00 0.  1.
         22    1    1    2    0    0  0.17006829808E+03  0.10528532266E+04  0.12519826777E+04  0.16446530844E+04  0.00000000000E+00 0. -1.
<mgrwt>
<rscale>  0 0.23522216E+04</rscale>
<asrwt>0</asrwt>
<pdfrwt beam="1">  1        1 0.31453648E+00 0.23522216E+04</pdfrwt>
<pdfrwt beam="2">  1       -1 0.10408754E+00 0.23522216E+04</pdfrwt>
<totfact> 0.21727996E+00</totfact>
</mgrwt>
</event>
<event>
 6    1  0.1603085E-006  0.2224590E+04  0.7818608E-02  0.8508262E-01
          1   -1    0    0  501    0  0.00000000000E+00  0.00000000000E+00  0.23302862690E+04  0.23302862690E+04  0.00000000000E+00 0. -1.
         -1   -1    0    0    0  501 -0.00000000000E+00 -0.00000000000E+00 -0.53092208497E+03  0.53092208497E+03  0.00000000000E+00 0.  1.
         23    2    1    2    0    0 -0.72026416634E+03  0.84527451444E+03  0.90706403434E+03  0.14366140148E+04  0.88460109570E+02 0.  0.
         11    1    3    3    0    0 -0.55232050759E+03  0.59185040222E+03  0.67820957466E+03  0.10560838361E+04  0.00000000000E+00 0. -1.
        -11    1    3    3    0    0 -0.16794365876E+03  0.25342411221E+03  0.22885445969E+03  0.38053017868E+03  0.00000000000E+00 0.  1.
         22    1    1    2    0    0  0.72026416634E+03 -0.84527451444E+03  0.89230014966E+03  0.14245943392E+04  0.00000000000E+00 0. -1.
<mgrwt>
<rscale>  0 0.22245902E+04</rscale>
<asrwt>0</asrwt>
<pdfrwt beam="1">  1        1 0.35850558E+00 0.22245902E+04</pdfrwt>
<pdfrwt beam="2">  1       -1 0.81680322E-01 0.22245902E+04</pdfrwt>
<totfact> 0.24080386E+00</totfact>
</mgrwt>
</event>
<event>
 6    1  0.1603085E-006  0.4077555E+04  0.7818608E-02  0.7989081E-01
          2   -1    0    0  501    0  0.00000000000E+00  0.00000000000E+00  0.35454860344E+04  0.35454860344E+04  0.00000000000E+00 0.  1.
         -2   -1    0    0    0  501 -0.00000000000E+00 -0.00000000000E+00 -0.11723679846E+04  0.11723679846E+04  0.00000000000E+00 0. -1.
         23    2    1    2    0    0  0.13519862914E+04  0.12153753500E+04  0.12234904812E+03  0.18245919720E+04  0.95720432559E+02 0.  0.
         13    1    3    3    0    0  0.66905337085E+03  0.58391834597E+03  0.13620831965E+02  0.88813207062E+03  0.00000000000E+00 0. -1.
        -13    1    3    3    0    0  0.68293292057E+03  0.63145700398E+03  0.10872821616E+03  0.93645990136E+03  0.00000000000E+00 0.  1.
         22    1    1    2    0    0 -0.13519862914E+04 -0.12153753500E+04  0.22507690017E+04  0.28932620470E+04  0.00000000000E+00 0.  1.
<mgrwt>
<rscale>  0 0.40775553E+04</rscale>
<asrwt>0</asrwt>
<pdfrwt beam="1">  1        2 0.54545938E+00 0.40775553E+04</pdfrwt>
<pdfrwt beam="2">  1       -2 0.18036431E+00 0.40775553E+04</pdfrwt>
<totfact> 0.10651360E-01</totfact>
</mgrwt>
</event>
<event>
 6    1  0.1603085E-006  0.7023541E+03  0.7818608E-02  0.9713215E-01
          1   -1    0    0  501    0  0.00000000000E+00  0.00000000000E+00  0.11591808402E+04  0.11591808402E+04  0.00000000000E+00 0. -1.
         -1   -1    0    0    0  501 -0.00000000000E+00 -0.00000000000E+00 -0.10639007388E+03  0.10639007388E+03  0.00000000000E+00 0.  1.
         23    2    1    2    0    0 -0.30927274310E+03  0.10640687123E+03  0.73476852030E+03  0.80937994441E+03  0.90769290597E+02 0.  0.
         13    1    3    3    0    0 -0.94041951697E+02  0.11582198519E+02  0.30609411250E+03  0.32042415906E+03  0.00000000000E+00 0.  1.
        -13    1    3    3    0    0 -0.21523079140E+03  0.94824672712E+02  0.42867440780E+03  0.48895578534E+03  0.00000000000E+00 0. -1.
         22    1    1    2    0    0  0.30927274310E+03 -0.10640687123E+03  0.31802224606E+03  0.45619096972E+03  0.00000000000E+00 0.  1.
<mgrwt>
<rscale>  0 0.70235414E+03</rscale>
<asrwt>0</asrwt>
<pdfrwt beam="1">  1        1 0.17833551E+00 0.70235414E+03</pdfrwt>
<pdfrwt beam="2">  1       -1 0.16367704E-01 0.70235414E+03</pdfrwt>
<totfact> 0.33137662E+02</totfact>
</mgrwt>
</event>
<event>
 6    1  0.1603085E-006  0.3147095E+04  0.7818608E-02  0.8202931E-01
         -1   -1    0    0    0  501 -0.00000000000E+00  0.00000000000E+00  0.13215953022E+04  0.13215953022E+04  0.00000000000E+00 0.  1.
          1   -1    0    0  501    0  0.00000000000E+00 -0.00000000000E+00 -0.18735321817E+04  0.18735321817E+04  0.00000000000E+00 0. -1.
         23    2    1    2    0    0  0.55898956855E+03 -0.12815329853E+04  0.45356089212E+03  0.14729713066E+04  0.95555518409E+02 0.  0.
         11    1    3    3    0    0  0.23118199545E+03 -0.64730490674E+03  0.21293119861E+03  0.71957518901E+03  0.00000000000E+00 0.  1.
        -11    1    3    3    0    0  0.32780757310E+03 -0.63422807859E+03  0.24062969352E+03  0.75339611763E+03  0.00000000000E+00 0. -1.
         22    1    1    2    0    0 -0.55898956855E+03  0.12815329853E+04 -0.10054977716E+04  0.17221561773E+04  0.00000000000E+00 0. -1.
<mgrwt>
<rscale>  0 0.31470947E+04</rscale>
<asrwt>0</asrwt>
<pdfrwt beam="1">  1        1 0.28823572E+00 0.31470947E+04</pdfrwt>
<pdfrwt beam="2">  1       -1 0.20332236E+00 0.31470947E+04</pdfrwt>
<totfact> 0.43578139E-01</totfact>
</mgrwt>
</event>
<event>
 6    1  0.1603085E-006  0.1364144E+04  0.7818608E-02  0.8980190E-01
          1   -1    0    0  501    0  0.00000000000E+00  0.00000000000E+00  0.32394843265E+03  0.32394843265E+03  0.00000000000E+00 0. -1.
         -1   -1    0    0    0  501 -0.00000000000E+00 -0.00000000000E+00 -0.14360998021E+04  0.14360998021E+04  0.00000000000E+00 0.  1.
         23    2    1    2    0    0  0.13590404068E+03  0.58725245504E+03 -0.15514450380E+03  0.62903210086E+03  0.90973691948E+02 0.  0.
         11    1    3    3    0    0  0.11775106308E+03  0.51907970761E+03 -0.10512232748E+03  0.54254931521E+03  0.00000000000E+00 0.  1.
        -11    1    3    3    0    0  0.18152977599E+02  0.68172747432E+02 -0.50022176326E+02  0.86482785643E+02  0.00000000000E+00 0. -1.
         22    1    1    2    0    0 -0.13590404068E+03 -0.58725245504E+03 -0.95700686568E+03  0.11310161339E+04  0.00000000000E+00 0.  1.
<mgrwt>
<rscale>  0 0.13641441E+04</rscale>
<asrwt>0</asrwt>
<pdfrwt beam="1">  1        1 0.49838221E-01 0.13641441E+04</pdfrwt>
<pdfrwt beam="2">  1       -1 0.22093843E+00 0.13641441E+04</pdfrwt>
<totfact> 0.84114039E+00</totfact>
</mgrwt>
</event>
<event>
 6    1  0.1603085E-006  0.4687830E+04  0.7818608E-02  0.7878554E-01
          2   -1    0    0  501    0  0.00000000000E+00  0.00000000000E+00  0.22381358200E+04  0.22381358200E+04  0.00000000000E+00 0. -1.
         -2   -1    0    0    0  501 -0.00000000000E+00 -0.00000000000E+00 -0.24546938671E+04  0.24546938671E+04  0.00000000000E+00 0.  1.
         23    2    1    2    0    0  0.92560960366E+03  0.12197853716E+04  0.16669564819E+04  0.22654326301E+04  0.93870112671E+02 0.  0.
         11    1    3    3    0    0  0.18791918838E+03  0.19645729122E+03  0.26938725810E+03  0.38272520620E+03  0.00000000000E+00 0.  1.
        -11    1    3    3    0    0  0.73769041528E+03  0.10233280803E+04  0.13975692238E+04  0.18827074239E+04  0.00000000000E+00 0. -1.
         22    1    1    2    0    0 -0.92560960366E+03 -0.12197853716E+04 -0.18835145290E+04  0.24273970569E+04  0.00000000000E+00 0.  1.
<mgrwt>
<rscale>  0 0.46878303E+04</rscale>
<asrwt>0</asrwt>
<pdfrwt beam="1">  1        2 0.34432859E+00 0.46878303E+04</pdfrwt>
<pdfrwt beam="2">  1       -2 0.37764521E+00 0.46878303E+04</pdfrwt>
<totfact> 0.38033638E-02</totfact>
</mgrwt>
</event>
<event>
 6    1  0.1603085E-006  0.1207562E+04  0.7818608E-02  0.9106263E-01
         -1   -1    0    0    0  501 -0.00000000000E+00  0.00000000000E+00  0.11691514680E+03  0.11691514680E+03  0.00000000000E+00 0.  1.
          1   -1    0    0  501    0  0.00000000000E+00 -0.00000000000E+00 -0.31180868176E+04  0.31180868176E+04  0.00000000000E+00 0. -1.
         23    2    1    2    0    0 -0.23683165675E+03  0.43309383395E+03 -0.24244653573E+04  0.24758908561E+04  0.91344185326E+02 0.  0.
         11    1    3    3    0    0 -0.93991790176E+02  0.10774669137E+03 -0.56739260004E+03  0.58513089878E+03  0.00000000000E+00 0. -1.
        -11    1    3    3    0    0 -0.14283986658E+03  0.32534714258E+03 -0.18570727572E+04  0.18907599573E+04  0.00000000000E+00 0.  1.
         22    1    1    2    0    0  0.23683165675E+03 -0.43309383395E+03 -0.57670631358E+03  0.75911110832E+03  0.00000000000E+00 0.  1.
<mgrwt>
<rscale>  0 0.12075621E+04</rscale>
<asrwt>0</asrwt>
<pdfrwt beam="1">  1        1 0.47970557E+00 0.12075621E+04</pdfrwt>
<pdfrwt beam="2">  1       -1 0.17986949E-01 0.12075621E+04</pdfrwt>
<totfact> 0.11992852E+01</totfact>
</mgrwt>
</event>
<event>
 6    1  0.1603085E-006  0.2446744E+04  0.7818608E-02  0.8422208E-01
          2   -1    0    0  501    0  0.00000000000E+00  0.00000000000E+00  0.81487626029E+03  0.81487626029E+03  0.00000000000E+00 0. -1.
         -2   -1    0    0    0  501 -0.00000000000E+00 -0.00000000000E+00 -0.18366455648E+04  0.18366455648E+04  0.00000000000E+00 0.  1.
         23    2    1    2    0    0 -0.24975793282E+03 -0.11748716134E+04 -0.75326267128E+03  0.14207504633E+04  0.91787222449E+02 0.  0.
         11    1    3    3    0    0 -0.12271150218E+03 -0.40689768777E+03 -0.29676720087E+03  0.51835761072E+03  0.00000000000E+00 0.  1.
        -11    1    3    3    0    0 -0.12704643064E+03 -0.76797392558E+03 -0.45649547041E+03  0.90239285259E+03  0.00000000000E+00 0. -1.
         22    1    1    2    0    0  0.24975793282E+03  0.11748716134E+04 -0.26850663322E+03  0.12307713618E+04  0.00000000000E+00 0. -1.
<mgrwt>
<rscale>  0 0.24467439E+04</rscale>
<asrwt>0</asrwt>
<pdfrwt beam="1">  1        2 0.12536558E+00 0.24467439E+04</pdfrwt>
<pdfrwt beam="2">  1       -2 0.28256086E+00 0.24467439E+04</pdfrwt>
<totfact> 0.12230902E+00</totfact>
</mgrwt>
</event>
<event>
 6    1  0.2428399E-006  0.5094495E+04  0.7818608E-02  0.7814093E-01
         -2   -1    0    0    0  501 -0.00000000000E+00  0.00000000000E+00  0.25339662203E+04  0.25339662203E+04  0.00000000000E+00 0. -1.
          2   -1    0    0  501    0  0.00000000000E+00 -0.00000000000E+00 -0.25605987762E+04  0.25605987762E+04  0.00000000000E+00 0.  1.
         23    2    1    2    0    0 -0.84955985632E+03 -0.12895404137E+04 -0.20376309103E+04  0.25590609422E+04  0.11039361874E+03 0.  0.
         11    1    3    3    0    0 -0.45200979773E+03 -0.77751643510E+03 -0.12185603824E+04  0.15145078639E+04  0.00000000000E+00 0. -1.
        -11    1    3    3    0    0 -0.39755005859E+03 -0.51202397857E+03 -0.81907052787E+03  0.10445530783E+04  0.00000000000E+00 0.  1.
         22    1    1    2    0    0  0.84955985632E+03  0.12895404137E+04  0.20109983545E+04  0.25355040544E+04  0.00000000000E+00 0. -1.
<mgrwt>
<rscale>  0 0.50944954E+04</rscale>
<asrwt>0</asrwt>
<pdfrwt beam="1">  1        2 0.39393827E+00 0.50944954E+04</pdfrwt>
<pdfrwt beam="2">  1       -2 0.38984096E+00 0.50944954E+04</pdfrwt>
<totfact> 0.20061052E-02</totfact>
</mgrwt>
</event>
<event>
 6    1  0.1603085E-006  0.3279630E+04  0.7818608E-02  0.8168098E-01
          2   -1    0    0  501    0  0.00000000000E+00  0.00000000000E+00  0.20573604312E+04  0.20573604312E+04  0.00000000000E+00 0. -1.
         -2   -1    0    0    0  501 -0.00000000000E+00 -0.00000000000E+00 -0.13070114798E+04  0.13070114798E+04  0.00000000000E+00 0.  1.
         23    2    1    2    0    0  0.15015593889E+04  0.45789726795E+03  0.85751282517E+03  0.17908934070E+04  0.87295151703E+02 0.  0.
         13    1    3    3    0    0  0.95240157831E+03  0.32464330067E+03  0.51918591889E+03  0.11322614793E+04  0.00000000000E+00 0. -1.
        -13    1    3    3    0    0  0.54915781064E+03  0.13325396729E+03  0.33832690628E+03  0.65863192778E+03  0.00000000000E+00 0.  1.
         22    1    1    2    0    0 -0.15015593889E+04 -0.45789726795E+03 -0.10716387375E+03  0.15734785039E+04  0.00000000000E+00 0.  1.
<mgrwt>
<rscale>  0 0.32796303E+04</rscale>
<asrwt>0</asrwt>
<pdfrwt beam="1">  1        2 0.31651699E+00 0.32796303E+04</pdfrwt>
<pdfrwt beam="2">  1       -2 0.20107869E+00 0.32796303E+04</pdfrwt>
<totfact> 0.67951893E-01</totfact>
</mgrwt>
</event>
<event>
 6    1  0.1603085E-006  0.7460830E+03  0.7818608E-02  0.9641516E-01
         -1   -1    0    0    0  501 -0.00000000000E+00  0.00000000000E+00  0.16736474212E+03  0.16736474212E+03  0.00000000000E+00 0.  1.
          1   -1    0    0  501    0  0.00000000000E+00 -0.00000000000E+00 -0.83147720180E+03  0.83147720180E+03  0.00000000000E+00 0. -1.
         23    2    1    2    0    0 -0.15980510999E+03  0.17609968227E+03 -0.71212281227E+03  0.75624399416E+03  0.90759614765E+02 0.  0.
         11    1    3    3    0    0 -0.65707248621E+02  0.21519691538E+02 -0.26538498931E+03  0.27424392827E+03  0.00000000000E+00 0. -1.
        -11    1    3    3    0    0 -0.94097861369E+02  0.15457999073E+03 -0.44673782296E+03  0.48200006589E+03  0.00000000000E+00 0.  1.
         22    1    1    2    0    0  0.15980510999E+03 -0.17609968227E+03  0.48010352588E+02  0.24259794976E+03  0.00000000000E+00 0.  1.
<mgrwt>
<rscale>  0 0.74608302E+03</rscale>
<asrwt>0</asrwt>
<pdfrwt beam="1">  1        1 0.12791957E+00 0.74608302E+03</pdfrwt>
<pdfrwt beam="2">  1       -1 0.25748423E-01 0.74608302E+03</pdfrwt>
<totfact> 0.27944284E+02</totfact>
</mgrwt>
</event>
<event>
 6    1  0.1603085E-006  0.3003884E+04  0.7818608E-02  0.8242623E-01
         -2   -1    0    0    0  501 -0.00000000000E+00  0.00000000000E+00  0.59148736848E+03  0.59148736848E+03  0.00000000000E+00 0.  1.
          2   -1    0    0  501    0  0.00000000000E+00 -0.00000000000E+00 -0.38138248425E+04  0.38138248425E+04  0.00000000000E+00 0. -1.
         23    2    1    2    0    0 -0.14424819334E+04  0.23034610234E+03 -0.11139145033E+04  0.18403052171E+04  0.11001961787E+03 0.  0.
         13    1    3    3    0    0 -0.51520747005E+03  0.10570159624E+03 -0.46119402907E+03  0.69950803933E+03  0.00000000000E+00 0.  1.
        -13    1    3    3    0    0 -0.92727446339E+03  0.12464450610E+03 -0.65272047425E+03  0.11407971778E+04  0.00000000000E+00 0. -1.
         22    1    1    2    0    0  0.14424819334E+04 -0.23034610234E+03 -0.21084229708E+04  0.25650069939E+04  0.00000000000E+00 0. -1.
<mgrwt>
<rscale>  0 0.30038836E+04</rscale>
<asrwt>0</asrwt>
<pdfrwt beam="1">  1        2 0.58674227E+00 0.30038836E+04</pdfrwt>
<pdfrwt beam="2">  1       -2 0.90998058E-01 0.30038836E+04</pdfrwt>
<totfact> 0.42227352E-01</totfact>
</mgrwt>
</event>
<event>
 6    1  0.1603085E-006  0.2004605E+04  0.7818608E-02  0.8604471E-01
          2   -1    0    0  501    0  0.00000000000E+00  0.00000000000E+00  0.95669814156E+03  0.95669814156E+03  0.00000000000E+00 0. -1.
         -2   -1    0    0    0  501 -0.00000000000E+00 -0.00000000000E+00 -0.10500803470E+04  0.10500803470E+04  0.00000000000E+00 0.  1.
         23    2    1    2    0    0 -0.54514549671E+03 -0.24441814499E+03 -0.84973429358E+03  0.10429360100E+04  0.93505663822E+02 0.  0.
         11    1    3    3    0    0 -0.32640856775E+03 -0.15887072743E+03 -0.59018532295E+03  0.69289333707E+03  0.00000000000E+00 0.  1.
        -11    1    3    3    0    0 -0.21873692896E+03 -0.85547417558E+02 -0.25954897063E+03  0.35004267297E+03  0.00000000000E+00 0. -1.
         22    1    1    2    0    0  0.54514549671E+03  0.24441814499E+03  0.75635208814E+03  0.96384247853E+03  0.00000000000E+00 0. -1.
<mgrwt>
<rscale>  0 0.20046046E+04</rscale>
<asrwt>0</asrwt>
<pdfrwt beam="1">  1        2 0.14718433E+00 0.20046046E+04</pdfrwt>
<pdfrwt beam="2">  1       -2 0.16155082E+00 0.20046046E+04</pdfrwt>
<totfact> 0.61224296E+00</totfact>
</mgrwt>
</event>
<event>
 6    1  0.1799346E-006  0.4008705E+04  0.7818608E-02  0.8002793E-01
         -1   -1    0    0    0  501 -0.00000000000E+00  0.00000000000E+00  0.13781804202E+04  0.13781804202E+04  0.00000000000E+00 0.  1.
          1   -1    0    0  501    0  0.00000000000E+00 -0.00000000000E+00 -0.29150234711E+04  0.29150234711E+04  0.00000000000E+00 0. -1.
         23    2    1    2    0    0  0.16607437161E+03  0.73848975010E+03 -0.27555242323E+04  0.28585849071E+04  0.75140324350E+02 0.  0.
         11    1    3    3    0    0  0.85192258334E+02  0.28235111621E+03 -0.11862315320E+04  0.12223441091E+04  0.00000000000E+00 0. -1.
        -11    1    3    3    0    0  0.80882113276E+02  0.45613863389E+03 -0.15692927004E+04  0.16362407980E+04  0.00000000000E+00 0.  1.
         22    1    1    2    0    0 -0.16607437161E+03 -0.73848975010E+03  0.12186811814E+04  0.14346189842E+04  0.00000000000E+00 0.  1.
<mgrwt>
<rscale>  0 0.40087047E+04</rscale>
<asrwt>0</asrwt>
<pdfrwt beam="1">  1        1 0.44846515E+00 0.40087047E+04</pdfrwt>
<pdfrwt beam="2">  1       -1 0.21202776E+00 0.40087047E+04</pdfrwt>
<totfact> 0.67094118E-02</totfact>
</mgrwt>
</event>
<event>
 6    1  0.1603085E-006  0.2000170E+04  0.7818608E-02  0.8606541E-01
         -2   -1    0    0    0  501 -0.00000000000E+00  0.00000000000E+00  0.21508521899E+04  0.21508521899E+04  0.00000000000E+00 0.  1.
          2   -1    0    0  501    0  0.00000000000E+00 -0.00000000000E+00 -0.46501099519E+03  0.46501099519E+03  0.00000000000E+00 0. -1.
         23    2    1    2    0    0 -0.25667002503E+03 -0.33837940814E+03  0.20257852726E+04  0.20718575769E+04  0.91693634030E+02 0.  0.
         11    1    3    3    0    0 -0.14491601124E+03 -0.23130640442E+03  0.14594560279E+04  0.14847609910E+04  0.00000000000E+00 0.  1.
        -11    1    3    3    0    0 -0.11175401379E+03 -0.10707300373E+03  0.56632924474E+03  0.58709658590E+03  0.00000000000E+00 0. -1.
         22    1    1    2    0    0  0.25667002503E+03  0.33837940814E+03 -0.33994407793E+03  0.54400560818E+03  0.00000000000E+00 0. -1.
<mgrwt>
<rscale>  0 0.20001699E+04</rscale>
<asrwt>0</asrwt>
<pdfrwt beam="1">  1        2 0.71540154E-01 0.20001699E+04</pdfrwt>
<pdfrwt beam="2">  1       -2 0.33090033E+00 0.20001699E+04</pdfrwt>
<totfact> 0.12775709E+00</totfact>
</mgrwt>
</event>
<event>
 6    1  0.1603085E-006  0.1104147E+04  0.7818608E-02  0.9201159E-01
          1   -1    0    0  501    0  0.00000000000E+00  0.00000000000E+00  0.63838829455E+03  0.63838829455E+03  0.00000000000E+00 0. -1.
         -1   -1    0    0    0  501 -0.00000000000E+00 -0.00000000000E+00 -0.47742940436E+03  0.47742940436E+03  0.00000000000E+00 0.  1.
         23    2    1    2    0    0  0.45055120193E+02 -0.47645993726E+03  0.35140255585E+03  0.60073243853E+03  0.91387475986E+02 0.  0.
         13    1    3    3    0    0  0.28524370493E+02 -0.35686189025E+02  0.40908495525E+02  0.61324129062E+02  0.00000000000E+00 0. -1.
        -13    1    3    3    0    0  0.16530749700E+02 -0.44077374823E+03  0.31049406033E+03  0.53940830946E+03  0.00000000000E+00 0.  1.
         22    1    1    2    0    0 -0.45055120193E+02  0.47645993726E+03 -0.19044366567E+03  0.51508526038E+03  0.00000000000E+00 0.  1.
<mgrwt>
<rscale>  0 0.11041474E+04</rscale>
<asrwt>0</asrwt>
<pdfrwt beam="1">  1        1 0.98213584E-01 0.11041474E+04</pdfrwt>
<pdfrwt beam="2">  1       -1 0.73450677E-01 0.11041474E+04</pdfrwt>
<totfact> 0.58224210E+01</totfact>
</mgrwt>
</event>
<event>
 6    1  0.1603085E-006  0.1844353E+04  0.7818608E-02  0.8683062E-01
          2   -1    0    0  501    0  0.00000000000E+00  0.00000000000E+00  0.25970227696E+04  0.25970227696E+04  0.00000000000E+00 0. -1.
         -2   -1    0    0    0  501 -0.00000000000E+00 -0.00000000000E+00 -0.32745566790E+03  0.32745566790E+03  0.00000000000E+00 0.  1.
         23    2    1    2    0    0  0.35828168198E+02  0.57289531640E+03 -0.26381693512E+01  0.58088941743E+03  0.89066571445E+02 0.  0.
         11    1    3    3    0    0  0.61647332853E+02  0.28885704886E+03  0.81739285234E+01  0.29547521288E+03  0.00000000000E+00 0. -1.
        -11    1    3    3    0    0 -0.25819164655E+02  0.28403826755E+03 -0.10812097875E+02  0.28541420455E+03  0.00000000000E+00 0.  1.
         22    1    1    2    0    0 -0.35828168198E+02 -0.57289531640E+03  0.22722052710E+04  0.23435890201E+04  0.00000000000E+00 0. -1.
<mgrwt>
<rscale>  0 0.18443534E+04</rscale>
<asrwt>0</asrwt>
<pdfrwt beam="1">  1        2 0.39954195E+00 0.18443534E+04</pdfrwt>
<pdfrwt beam="2">  1       -2 0.50377797E-01 0.18443534E+04</pdfrwt>
<totfact> 0.10725964E+01</totfact>
</mgrwt>
</event>
<event>
 6    1  0.1603085E-006  0.1908140E+04  0.7818608E-02  0.8650815E-01
          2   -1    0    0  501    0  0.00000000000E+00  0.00000000000E+00  0.71181211284E+03  0.71181211284E+03  0.00000000000E+00 0. -1.
         -2   -1    0    0    0  501 -0.00000000000E+00 -0.00000000000E+00 -0.12787776933E+04  0.12787776933E+04  0.00000000000E+00 0.  1.
         23    2    1    2    0    0  0.22600411122E+03  0.88115556397E+03 -0.57674577939E+03  0.10808598250E+04  0.90051546912E+02 0.  0.
         13    1    3    3    0    0  0.86198831405E+02  0.46996296637E+03 -0.26627236416E+03  0.54698848270E+03  0.00000000000E+00 0.  1.
        -13    1    3    3    0    0  0.13980527982E+03  0.41119259760E+03 -0.31047341523E+03  0.53387134232E+03  0.00000000000E+00 0. -1.
         22    1    1    2    0    0 -0.22600411122E+03 -0.88115556397E+03  0.97801989533E+01  0.90972998109E+03  0.00000000000E+00 0. -1.
<mgrwt>
<rscale>  0 0.19081399E+04</rscale>
<asrwt>0</asrwt>
<pdfrwt beam="1">  1        2 0.10950956E+00 0.19081399E+04</pdfrwt>
<pdfrwt beam="2">  1       -2 0.19673503E+00 0.19081399E+04</pdfrwt>
<totfact> 0.52433285E+00</totfact>
</mgrwt>
</event>
<event>
 6    1  0.1603085E-006  0.4083954E+04  0.7818608E-02  0.7987821E-01
         -2   -1    0    0    0  501 -0.00000000000E+00  0.00000000000E+00  0.15954958260E+04  0.15954958260E+04  0.00000000000E+00 0.  1.
          2   -1    0    0  501    0  0.00000000000E+00 -0.00000000000E+00 -0.26134013481E+04  0.26134013481E+04  0.00000000000E+00 0. -1.
         23    2    1    2    0    0 -0.52067998005E+03  0.92518023042E+03  0.12874430034E+04  0.16708471501E+04  0.84584938032E+02 0.  0.
         13    1    3    3    0    0 -0.22282091137E+03  0.35383448889E+03  0.56350355100E+03  0.70170097339E+03  0.00000000000E+00 0.  1.
        -13    1    3    3    0    0 -0.29785906869E+03  0.57134574154E+03  0.72393945238E+03  0.96914617674E+03  0.00000000000E+00 0. -1.
         22    1    1    2    0    0  0.52067998005E+03 -0.92518023042E+03 -0.23053485255E+04  0.25380500240E+04  0.00000000000E+00 0. -1.
<mgrwt>
<rscale>  0 0.40839544E+04</rscale>
<asrwt>0</asrwt>
<pdfrwt beam="1">  1        2 0.40206174E+00 0.40839544E+04</pdfrwt>
<pdfrwt beam="2">  1       -2 0.24546090E+00 0.40839544E+04</pdfrwt>
<totfact> 0.16047937E-01</totfact>
</mgrwt>
</event>
<event>
 6    1  0.1603085E-006  0.1410307E+04  0.7818608E-02  0.8946392E-01
         -2   -1    0    0    0  501 -0.00000000000E+00  0.00000000000E+00  0.56484673370E+03  0.56484673370E+03  0.00000000000E+00 0.  1.
          2   -1    0    0  501    0  0.00000000000E+00 -0.00000000000E+00 -0.88031202952E+03  0.88031202952E+03  0.00000000000E+00 0. -1.
         23    2    1    2    0    0  0.38470542232E+03 -0.28821125208E+03  0.36608086118E+03  0.61115087842E+03  0.91794397910E+02 0.  0.
         13    1    3    3    0    0  0.30040763847E+03 -0.24793044481E+03  0.25296653732E+03  0.46444194871E+03  0.00000000000E+00 0.  1.
        -13    1    3    3    0    0  0.84297783845E+02 -0.40280807269E+02  0.11311432386E+03  0.14670892971E+03  0.00000000000E+00 0. -1.
         22    1    1    2    0    0 -0.38470542232E+03  0.28821125208E+03 -0.68154615700E+03  0.83400788480E+03  0.00000000000E+00 0. -1.
<mgrwt>
<rscale>  0 0.14103069E+04</rscale>
<asrwt>0</asrwt>
<pdfrwt beam="1">  1        2 0.13543262E+00 0.14103069E+04</pdfrwt>
<pdfrwt beam="2">  1       -2 0.86899498E-01 0.14103069E+04</pdfrwt>
<totfact> 0.33704754E+01</totfact>
</mgrwt>
</event>
<event>
 6    1  0.1603085E-006  0.2358741E+04  0.7818608E-02  0.8455114E-01
         -1   -1    0    0    0  501 -0.00000000000E+00  0.00000000000E+00  0.16169480864E+04  0.16169480864E+04  0.00000000000E+00 0.  1.
          1   -1    0    0  501    0  0.00000000000E+00 -0.00000000000E+00 -0.86020996378E+03  0.86020996378E+03  0.00000000000E+00 0. -1.
         23    2    1    2    0    0 -0.65931864788E+03 -0.65996871270E+03  0.11337247911E+04  0.14709877219E+04  0.90626677713E+02 0.  0.
         11    1    3    3    0    0 -0.41027711579E+03 -0.35369445362E+03  0.68625921909E+03  0.87428759230E+03  0.00000000000E+00 0.  1.
        -11    1    3    3    0    0 -0.24904153209E+03 -0.30627425908E+03  0.44746557204E+03  0.59670012958E+03  0.00000000000E+00 0. -1.
         22    1    1    2    0    0  0.65931864788E+03  0.65996871270E+03 -0.37698666856E+03  0.10061703283E+04  0.00000000000E+00 0.  1.
<mgrwt>
<rscale>  0 0.23587411E+04</rscale>
<asrwt>0</asrwt>
<pdfrwt beam="1">  1        1 0.13234000E+00 0.23587411E+04</pdfrwt>
<pdfrwt beam="2">  1       -1 0.24876124E+00 0.23587411E+04</pdfrwt>
<totfact> 0.12542249E+00</totfact>
</mgrwt>
</event>
<event>
 6    1  0.1603085E-006  0.2609981E+04  0.7818608E-02  0.8364819E-01
         -2   -1    0    0    0  501 -0.00000000000E+00  0.00000000000E+00  0.69004031760E+03  0.69004031760E+03  0.00000000000E+00 0.  1.
          2   -1    0    0  501    0  0.00000000000E+00 -0.00000000000E+00 -0.24679715973E+04  0.24679715973E+04  0.00000000000E+00 0. -1.
         23    2    1    2    0    0  0.44230784446E+03  0.11880763150E+04 -0.12588531771E+04  0.17881200812E+04  0.74165650867E+02 0.  0.
         11    1    3    3    0    0  0.32381692658E+03  0.78756130806E+03 -0.87219241850E+03  0.12189461968E+04  0.00000000000E+00 0. -1.
        -11    1    3    3    0    0  0.11849091788E+03  0.40051500693E+03 -0.38666075863E+03  0.56917388438E+03  0.00000000000E+00 0.  1.
         22    1    1    2    0    0 -0.44230784446E+03 -0.11880763150E+04 -0.51907810261E+03  0.13698918337E+04  0.00000000000E+00 0. -1.
<mgrwt>
<rscale>  0 0.26099808E+04</rscale>
<asrwt>0</asrwt>
<pdfrwt beam="1">  1        2 0.37968794E+00 0.26099808E+04</pdfrwt>
<pdfrwt beam="2">  1       -2 0.10616005E+00 0.26099808E+04</pdfrwt>
<totfact> 0.22982582E+00</totfact>
</mgrwt>
</event>
<event>
 6    1  0.1603085E-006  0.1667104E+04  0.7818608E-02  0.8780352E-01
         -1   -1    0    0    0  501 -0.00000000000E+00  0.00000000000E+00  0.11588576778E+04  0.11588576778E+04  0.00000000000E+00 0.  1.
          1   -1    0    0  501    0  0.00000000000E+00 -0.00000000000E+00 -0.59956393127E+03  0.59956393127E+03  0.00000000000E+00 0. -1.
         23    2    1    2    0    0 -0.82532788242E+03  0.77678808594E+02  0.34260119481E+03  0.90159270391E+03  0.91069831710E+02 0.  0.
         13    1    3    3    0    0 -0.39102981998E+03  0.53049255798E+02  0.20900415792E+03  0.44654370635E+03  0.00000000000E+00 0. -1.
        -13    1    3    3    0    0 -0.43429806244E+03  0.24629552796E+02  0.13359703689E+03  0.45504899756E+03  0.00000000000E+00 0.  1.
         22    1    1    2    0    0  0.82532788242E+03 -0.77678808594E+02  0.21669255176E+03  0.85682890521E+03  0.00000000000E+00 0.  1.
<mgrwt>
<rscale>  0 0.16671044E+04</rscale>
<asrwt>0</asrwt>
<pdfrwt beam="1">  1        1 0.92240605E-01 0.16671044E+04</pdfrwt>
<pdfrwt beam="2">  1       -1 0.17828580E+00 0.16671044E+04</pdfrwt>
<totfact> 0.70039573E+00</totfact>
</mgrwt>
</event>
<event>
 6    1  0.1603085E-006  0.2032127E+04  0.7818608E-02  0.8591746E-01
         -2   -1    0    0    0  501 -0.00000000000E+00  0.00000000000E+00  0.30620618303E+03  0.30620618303E+03  0.00000000000E+00 0.  1.
          2   -1    0    0  501    0  0.00000000000E+00 -0.00000000000E+00 -0.33715371579E+04  0.33715371579E+04  0.00000000000E+00 0. -1.
         23    2    1    2    0    0  0.68059657063E+03 -0.66770383452E+03 -0.21590336818E+04  0.23622909906E+04  0.99760625665E+02 0.  0.
         11    1    3    3    0    0  0.39943282978E+03 -0.32457046821E+03 -0.11277073046E+04  0.12396032991E+04  0.00000000000E+00 0. -1.
        -11    1    3    3    0    0  0.28116374085E+03 -0.34313336631E+03 -0.10313263772E+04  0.11226876915E+04  0.00000000000E+00 0.  1.
         22    1    1    2    0    0 -0.68059657063E+03  0.66770383452E+03 -0.90629729304E+03  0.13154523503E+04  0.00000000000E+00 0.  1.
<mgrwt>
<rscale>  0 0.20321275E+04</rscale>
<asrwt>0</asrwt>
<pdfrwt beam="1">  1        2 0.51869801E+00 0.20321275E+04</pdfrwt>
<pdfrwt beam="2">  1       -2 0.47108645E-01 0.20321275E+04</pdfrwt>
<totfact> 0.39628039E+00</totfact>
</mgrwt>
</event>
<event>
 6    1  0.1603085E-006  0.1383466E+04  0.7818608E-02  0.8965874E-01
         -2   -1    0    0    0  501 -0.00000000000E+00  0.00000000000E+00  0.47637418510E+03  0.47637418510E+03  0.00000000000E+00 0. -1.
          2   -1    0    0  501    0  0.00000000000E+00 -0.00000000000E+00 -0.10044509040E+04  0.10044509040E+04  0.00000000000E+00 0.  1.
         23    2    1    2    0    0 -0.74955132759E+02 -0.24441077788E+03 -0.94964806611E+03  0.98779638702E+03  0.92495148318E+02 0.  0.
         13    1    3    3    0    0 -0.56419302321E+02 -0.23335453119E+03 -0.76235323192E+03  0.79926211291E+03  0.00000000000E+00 0.  1.
        -13    1    3    3    0    0 -0.18535830438E+02 -0.11056246687E+02 -0.18729483419E+03  0.18853427411E+03  0.00000000000E+00 0. -1.
         22    1    1    2    0    0  0.74955132759E+02  0.24441077788E+03  0.42157134722E+03  0.49302870207E+03  0.00000000000E+00 0. -1.
<mgrwt>
<rscale>  0 0.13834659E+04</rscale>
<asrwt>0</asrwt>
<pdfrwt beam="1">  1        2 0.15453091E+00 0.13834659E+04</pdfrwt>
<pdfrwt beam="2">  1       -2 0.73288336E-01 0.13834659E+04</pdfrwt>
<totfact> 0.40988505E+01</totfact>
</mgrwt>
</event>
<event>
 6    1  0.1603085E-006  0.1729743E+04  0.7818608E-02  0.8744580E-01
          1   -1    0    0  501    0  0.00000000000E+00  0.00000000000E+00  0.74519177440E+03  0.74519177440E+03  0.00000000000E+00 0. -1.
         -1   -1    0    0    0  501 -0.00000000000E+00 -0.00000000000E+00 -0.10037721927E+04  0.10037721927E+04  0.00000000000E+00 0.  1.
         23    2    1    2    0    0  0.69103517023E+03 -0.17295633220E+03  0.36136721702E+03  0.80462368420E+03  0.96899475176E+02 0.  0.
         13    1    3    3    0    0  0.31234006378E+03 -0.12557899210E+03  0.15265722848E+03  0.36963580468E+03  0.00000000000E+00 0. -1.
        -13    1    3    3    0    0  0.37869510646E+03 -0.47377340101E+02  0.20870998853E+03  0.43498787951E+03  0.00000000000E+00 0.  1.
         22    1    1    2    0    0 -0.69103517023E+03  0.17295633220E+03 -0.61994763527E+03  0.94434028286E+03  0.00000000000E+00 0. -1.
<mgrwt>
<rscale>  0 0.17297431E+04</rscale>
<asrwt>0</asrwt>
<pdfrwt beam="1">  1        1 0.11464489E+00 0.17297431E+04</pdfrwt>
<pdfrwt beam="2">  1       -1 0.15442649E+00 0.17297431E+04</pdfrwt>
<totfact> 0.75712037E+00</totfact>
</mgrwt>
</event>
<event>
 6    1  0.1603085E-006  0.2381592E+04  0.7818608E-02  0.8446428E-01
         -1   -1    0    0    0  501 -0.00000000000E+00  0.00000000000E+00  0.17920277435E+04  0.17920277435E+04  0.00000000000E+00 0.  1.
          1   -1    0    0  501    0  0.00000000000E+00 -0.00000000000E+00 -0.79127949120E+03  0.79127949120E+03  0.00000000000E+00 0. -1.
         23    2    1    2    0    0  0.12154534292E+03  0.57282013436E+03  0.16234609529E+04  0.17285164509E+04  0.96163812350E+02 0.  0.
         11    1    3    3    0    0  0.75410409411E+02  0.39974042249E+03  0.12457324227E+04  0.13104687727E+04  0.00000000000E+00 0. -1.
        -11    1    3    3    0    0  0.46134933513E+02  0.17307971187E+03  0.37772853018E+03  0.41804767821E+03  0.00000000000E+00 0.  1.
         22    1    1    2    0    0 -0.12154534292E+03 -0.57282013436E+03 -0.62271270054E+03  0.85479078383E+03  0.00000000000E+00 0. -1.
<mgrwt>
<rscale>  0 0.23815917E+04</rscale>
<asrwt>0</asrwt>
<pdfrwt beam="1">  1        1 0.12173531E+00 0.23815917E+04</pdfrwt>
<pdfrwt beam="2">  1       -1 0.27569657E+00 0.23815917E+04</pdfrwt>
<totfact> 0.95849792E-01</totfact>
</mgrwt>
</event>
<event>
 6    1  0.1603085E-006  0.1726920E+04  0.7818608E-02  0.8746158E-01
         -1   -1    0    0    0  501 -0.00000000000E+00  0.00000000000E+00  0.11252266268E+04  0.11252266268E+04  0.00000000000E+00 0.  1.
          1   -1    0    0  501    0  0.00000000000E+00 -0.00000000000E+00 -0.66258940248E+03  0.66258940248E+03  0.00000000000E+00 0. -1.
         23    2    1    2    0    0 -0.36339487195E+03 -0.63368739405E+03  0.70473532251E+03  0.10182531433E+04  0.81068135695E+02 0.  0.
         13    1    3    3    0    0 -0.11431289641E+03 -0.21778896914E+03  0.18696847225E+03  0.30896064957E+03  0.00000000000E+00 0.  1.
        -13    1    3    3    0    0 -0.24908197553E+03 -0.41589842491E+03  0.51776685026E+03  0.70929249369E+03  0.00000000000E+00 0. -1.
         22    1    1    2    0    0  0.36339487195E+03  0.63368739405E+03 -0.24209809823E+03  0.76956288599E+03  0.00000000000E+00 0. -1.
<mgrwt>
<rscale>  0 0.17269201E+04</rscale>
<asrwt>0</asrwt>
<pdfrwt beam="1">  1        1 0.10193683E+00 0.17269201E+04</pdfrwt>
<pdfrwt beam="2">  1       -1 0.17311179E+00 0.17269201E+04</pdfrwt>
<totfact> 0.65607702E+00</totfact>
</mgrwt>
</event>
<event>
 6    1  0.1603085E-006  0.3411855E+04  0.7818608E-02  0.8135003E-01
         -2   -1    0    0    0  501 -0.00000000000E+00  0.00000000000E+00  0.12808025083E+04  0.12808025083E+04  0.00000000000E+00 0.  1.
          2   -1    0    0  501    0  0.00000000000E+00 -0.00000000000E+00 -0.22721602521E+04  0.22721602521E+04  0.00000000000E+00 0. -1.
         23    2    1    2    0    0 -0.25354534225E+03  0.53482308680E+03 -0.21608206028E+04  0.22422513684E+04  0.90689287774E+02 0.  0.
         11    1    3    3    0    0 -0.17099359253E+03  0.41443032069E+03 -0.17401273425E+04  0.17969514372E+04  0.00000000000E+00 0. -1.
        -11    1    3    3    0    0 -0.82551749720E+02  0.12039276610E+03 -0.42069326030E+03  0.44529993126E+03  0.00000000000E+00 0.  1.
         22    1    1    2    0    0  0.25354534225E+03 -0.53482308680E+03  0.11694628590E+04  0.13107113921E+04  0.00000000000E+00 0.  1.
<mgrwt>
<rscale>  0 0.34118550E+04</rscale>
<asrwt>0</asrwt>
<pdfrwt beam="1">  1        2 0.34956311E+00 0.34118550E+04</pdfrwt>
<pdfrwt beam="2">  1       -2 0.19704654E+00 0.34118550E+04</pdfrwt>
<totfact> 0.54124882E-01</totfact>
</mgrwt>
</event>
<event>
 6    1  0.1603085E-006  0.5578314E+04  0.7818608E-02  0.7745004E-01
         -1   -1    0    0    0  501 -0.00000000000E+00  0.00000000000E+00  0.23883145498E+04  0.23883145498E+04  0.00000000000E+00 0.  1.
          1   -1    0    0  501    0  0.00000000000E+00 -0.00000000000E+00 -0.32572753014E+04  0.32572753014E+04  0.00000000000E+00 0. -1.
         23    2    1    2    0    0 -0.22859737317E+04 -0.14481069574E+04  0.24623188171E+03  0.27187580706E+04  0.91244970717E+02 0.  0.
         13    1    3    3    0    0 -0.19669256027E+04 -0.12823249054E+04  0.20953915255E+03  0.23573417542E+04  0.00000000000E+00 0.  1.
        -13    1    3    3    0    0 -0.31904812903E+03 -0.16578205201E+03  0.36692729156E+02  0.36141631643E+03  0.00000000000E+00 0. -1.
         22    1    1    2    0    0  0.22859737317E+04  0.14481069574E+04 -0.11151926333E+04  0.29268317806E+04  0.00000000000E+00 0.  1.
<mgrwt>
<rscale>  0 0.55783144E+04</rscale>
<asrwt>0</asrwt>
<pdfrwt beam="1">  1        1 0.50111928E+00 0.55783144E+04</pdfrwt>
<pdfrwt beam="2">  1       -1 0.36743301E+00 0.55783144E+04</pdfrwt>
<totfact> 0.31557645E-03</totfact>
</mgrwt>
</event>
<event>
 6    1  0.1603085E-006  0.4174693E+04  0.7818608E-02  0.7970204E-01
         -2   -1    0    0    0  501 -0.00000000000E+00  0.00000000000E+00  0.10268606331E+04  0.10268606331E+04  0.00000000000E+00 0.  1.
          2   -1    0    0  501    0  0.00000000000E+00 -0.00000000000E+00 -0.42430450629E+04  0.42430450629E+04  0.00000000000E+00 0. -1.
         23    2    1    2    0    0 -0.10527896046E+04 -0.32088357569E+03 -0.38462635740E+04  0.40017054165E+04  0.92577203273E+02 0.  0.
         11    1    3    3    0    0 -0.63854873274E+03 -0.19047006379E+03 -0.24891237107E+04  0.25767732102E+04  0.00000000000E+00 0. -1.
        -11    1    3    3    0    0 -0.41424087191E+03 -0.13041351189E+03 -0.13571398633E+04  0.14249322063E+04  0.00000000000E+00 0.  1.
         22    1    1    2    0    0  0.10527896046E+04  0.32088357569E+03  0.63007914426E+03  0.12682002795E+04  0.00000000000E+00 0.  1.
<mgrwt>
<rscale>  0 0.41746933E+04</rscale>
<asrwt>0</asrwt>
<pdfrwt beam="1">  1        2 0.65277617E+00 0.41746933E+04</pdfrwt>
<pdfrwt beam="2">  1       -2 0.15797856E+00 0.41746933E+04</pdfrwt>
<totfact> 0.43009136E-02</totfact>
</mgrwt>
</event>
<event>
 6    1  0.1603085E-006  0.3722710E+04  0.7818608E-02  0.8062948E-01
          1   -1    0    0  501    0  0.00000000000E+00  0.00000000000E+00  0.22035750091E+04  0.22035750091E+04  0.00000000000E+00 0. -1.
         -1   -1    0    0    0  501 -0.00000000000E+00 -0.00000000000E+00 -0.15722823168E+04  0.15722823168E+04  0.00000000000E+00 0.  1.
         23    2    1    2    0    0 -0.18075535268E+04 -0.32644345945E+03  0.61449816459E+03  0.19389857625E+04  0.90789362913E+02 0.  0.
         11    1    3    3    0    0 -0.17058751314E+03 -0.49455175033E+02  0.80342547988E+02  0.19493803886E+03  0.00000000000E+00 0. -1.
        -11    1    3    3    0    0 -0.16369660136E+04 -0.27698828442E+03  0.53415561660E+03  0.17440477236E+04  0.00000000000E+00 0.  1.
         22    1    1    2    0    0  0.18075535268E+04  0.32644345945E+03  0.16794527789E+02  0.18368715634E+04  0.00000000000E+00 0.  1.
<mgrwt>
<rscale>  0 0.37227098E+04</rscale>
<asrwt>0</asrwt>
<pdfrwt beam="1">  1        1 0.33901154E+00 0.37227098E+04</pdfrwt>
<pdfrwt beam="2">  1       -1 0.24188959E+00 0.37227098E+04</pdfrwt>
<totfact> 0.13669540E-01</totfact>
</mgrwt>
</event>
<event>
 6    1  0.1603085E-006  0.1019364E+04  0.7818608E-02  0.9287558E-01
         -1   -1    0    0    0  501 -0.00000000000E+00  0.00000000000E+00  0.71872319962E+03  0.71872319962E+03  0.00000000000E+00 0.  1.
          1   -1    0    0  501    0  0.00000000000E+00 -0.00000000000E+00 -0.36144060107E+03  0.36144060107E+03  0.00000000000E+00 0. -1.
         23    2    1    2    0    0 -0.19892193334E+03  0.11651953488E+02 -0.31201553173E+03  0.38183315494E+03  0.93472790622E+02 0.  0.
         13    1    3    3    0    0  0.35018570444E+01  0.16938804460E+02 -0.30374359006E+02  0.34954081082E+02  0.00000000000E+00 0. -1.
        -13    1    3    3    0    0 -0.20242379038E+03 -0.52868509725E+01 -0.28164117273E+03  0.34687907386E+03  0.00000000000E+00 0.  1.
         22    1    1    2    0    0  0.19892193334E+03 -0.11651953488E+02  0.66929813029E+03  0.69833064575E+03  0.00000000000E+00 0.  1.
<mgrwt>
<rscale>  0 0.10193640E+04</rscale>
<asrwt>0</asrwt>
<pdfrwt beam="1">  1        1 0.55606247E-01 0.10193640E+04</pdfrwt>
<pdfrwt beam="2">  1       -1 0.11057280E+00 0.10193640E+04</pdfrwt>
<totfact> 0.51847853E+01</totfact>
</mgrwt>
</event>
<event>
 6    1  0.1603085E-006  0.4042787E+04  0.7818608E-02  0.7995970E-01
          2   -1    0    0  501    0  0.00000000000E+00  0.00000000000E+00  0.34705287748E+04  0.34705287748E+04  0.00000000000E+00 0. -1.
         -2   -1    0    0    0  501 -0.00000000000E+00 -0.00000000000E+00 -0.11773514388E+04  0.11773514388E+04  0.00000000000E+00 0.  1.
         23    2    1    2    0    0 -0.14626870410E+04  0.70730361807E+03 -0.23352782321E+03  0.16438877452E+04  0.89999369680E+02 0.  0.
         13    1    3    3    0    0 -0.38373505731E+03  0.15138714767E+03 -0.83771456222E+02  0.42093742952E+03  0.00000000000E+00 0. -1.
        -13    1    3    3    0    0 -0.10789519837E+04  0.55591647040E+03 -0.14975636699E+03  0.12229503157E+04  0.00000000000E+00 0.  1.
         22    1    1    2    0    0  0.14626870410E+04 -0.70730361807E+03  0.25267051592E+04  0.30039924683E+04  0.00000000000E+00 0.  1.
<mgrwt>
<rscale>  0 0.40427872E+04</rscale>
<asrwt>0</asrwt>
<pdfrwt beam="1">  1        2 0.53392750E+00 0.40427872E+04</pdfrwt>
<pdfrwt beam="2">  1       -2 0.18113099E+00 0.40427872E+04</pdfrwt>
<totfact> 0.11914233E-01</totfact>
</mgrwt>
</event>
<event>
 6    1  0.1603085E-006  0.2697861E+04  0.7818608E-02  0.8335699E-01
         -2   -1    0    0    0  501 -0.00000000000E+00  0.00000000000E+00  0.56963177109E+03  0.56963177109E+03  0.00000000000E+00 0.  1.
          2   -1    0    0  501    0  0.00000000000E+00 -0.00000000000E+00 -0.31943689975E+04  0.31943689975E+04  0.00000000000E+00 0. -1.
         23    2    1    2    0    0  0.13966423937E+03 -0.10354101683E+04 -0.12674219470E+03  0.10563155035E+04  0.90324651278E+02 0.  0.
         11    1    3    3    0    0  0.12860704953E+03 -0.90426115512E+03 -0.80860781578E+02  0.91693319050E+03  0.00000000000E+00 0. -1.
        -11    1    3    3    0    0  0.11057189848E+02 -0.13114901318E+03 -0.45881413121E+02  0.13938231299E+03  0.00000000000E+00 0.  1.
         22    1    1    2    0    0 -0.13966423937E+03  0.10354101683E+04 -0.24979950317E+04  0.27076852651E+04  0.00000000000E+00 0. -1.
<mgrwt>
<rscale>  0 0.26978614E+04</rscale>
<asrwt>0</asrwt>
<pdfrwt beam="1">  1        2 0.49144138E+00 0.26978614E+04</pdfrwt>
<pdfrwt beam="2">  1       -2 0.87635657E-01 0.26978614E+04</pdfrwt>
<totfact> 0.12891550E+00</totfact>
</mgrwt>
</event>
<event>
 6    1  0.1603085E-006  0.3062102E+04  0.7818608E-02  0.8226216E-01
          1   -1    0    0  501    0  0.00000000000E+00  0.00000000000E+00  0.13358558642E+04  0.13358558642E+04  0.00000000000E+00 0. -1.
         -1   -1    0    0    0  501 -0.00000000000E+00 -0.00000000000E+00 -0.17547676050E+04  0.17547676050E+04  0.00000000000E+00 0.  1.
         23    2    1    2    0    0 -0.10703543079E+04 -0.10660527554E+04  0.32937843838E+02  0.15138245381E+04  0.91940245967E+02 0.  0.
         13    1    3    3    0    0 -0.31143846299E+03 -0.36081759797E+03 -0.12791814809E+02  0.47680906636E+03  0.00000000000E+00 0. -1.
        -13    1    3    3    0    0 -0.75891584493E+03 -0.70523515743E+03  0.45729658648E+02  0.10370154717E+04  0.00000000000E+00 0.  1.
         22    1    1    2    0    0  0.10703543079E+04  0.10660527554E+04 -0.45184958468E+03  0.15767989310E+04  0.00000000000E+00 0.  1.
<mgrwt>
<rscale>  0 0.30621016E+04</rscale>
<asrwt>0</asrwt>
<pdfrwt beam="1">  1        1 0.20551629E+00 0.30621016E+04</pdfrwt>
<pdfrwt beam="2">  1       -1 0.26996425E+00 0.30621016E+04</pdfrwt>
<totfact> 0.37321395E-01</totfact>
</mgrwt>
</event>
<event>
 6    1  0.1603085E-006  0.2380629E+04  0.7818608E-02  0.8446791E-01
          1   -1    0    0  501    0  0.00000000000E+00  0.00000000000E+00  0.16310154434E+04  0.16310154434E+04  0.00000000000E+00 0. -1.
         -1   -1    0    0    0  501 -0.00000000000E+00 -0.00000000000E+00 -0.86869125184E+03  0.86869125184E+03  0.00000000000E+00 0.  1.
         23    2    1    2    0    0 -0.23723444179E+02 -0.11126873962E+04 -0.56050551860E+02  0.11182678569E+04  0.93516265813E+02 0.  0.
         11    1    3    3    0    0 -0.64680703764E+01 -0.64063703770E+03 -0.77953097202E+02  0.64539471284E+03  0.00000000000E+00 0.  1.
        -11    1    3    3    0    0 -0.17255373802E+02 -0.47205035848E+03  0.21902545342E+02  0.47287314405E+03  0.00000000000E+00 0. -1.
         22    1    1    2    0    0  0.23723444179E+02  0.11126873962E+04  0.81837474341E+03  0.13814388383E+04  0.00000000000E+00 0. -1.
<mgrwt>
<rscale>  0 0.23806292E+04</rscale>
<asrwt>0</asrwt>
<pdfrwt beam="1">  1        1 0.25092545E+00 0.23806292E+04</pdfrwt>
<pdfrwt beam="2">  1       -1 0.13364481E+00 0.23806292E+04</pdfrwt>
<totfact> 0.22543762E+00</totfact>
</mgrwt>
</event>
<event>
 6    1  0.1603085E-006  0.2351007E+04  0.7818608E-02  0.8458077E-01
          2   -1    0    0  501    0  0.00000000000E+00  0.00000000000E+00  0.32440747242E+04  0.32440747242E+04  0.00000000000E+00 0. -1.
         -2   -1    0    0    0  501 -0.00000000000E+00 -0.00000000000E+00 -0.42594835146E+03  0.42594835146E+03  0.00000000000E+00 0.  1.
         23    2    1    2    0    0 -0.17900390216E+03  0.39731337972E+03  0.31124198841E+04  0.31441818548E+04  0.93923812700E+02 0.  0.
         11    1    3    3    0    0 -0.68208464954E+02  0.21793237661E+03  0.13474277846E+04  0.13666413393E+04  0.00000000000E+00 0. -1.
        -11    1    3    3    0    0 -0.11079543721E+03  0.17938100311E+03  0.17649920994E+04  0.17775405155E+04  0.00000000000E+00 0.  1.
         22    1    1    2    0    0  0.17900390216E+03 -0.39731337972E+03 -0.29429351136E+03  0.52584122083E+03  0.00000000000E+00 0.  1.
<mgrwt>
<rscale>  0 0.23510068E+04</rscale>
<asrwt>0</asrwt>
<pdfrwt beam="1">  1        2 0.49908840E+00 0.23510068E+04</pdfrwt>
<pdfrwt beam="2">  1       -2 0.65530518E-01 0.23510068E+04</pdfrwt>
<totfact> 0.23528719E+00</totfact>
</mgrwt>
</event>
<event>
 6    1  0.1603085E-006  0.3037345E+04  0.7818608E-02  0.8233146E-01
          2   -1    0    0  501    0  0.00000000000E+00  0.00000000000E+00  0.23862149689E+04  0.23862149689E+04  0.00000000000E+00 0.  1.
         -2   -1    0    0    0  501 -0.00000000000E+00 -0.00000000000E+00 -0.96653751306E+03  0.96653751306E+03  0.00000000000E+00 0. -1.
         23    2    1    2    0    0 -0.14442280338E+04 -0.17335364862E+03  0.23460743312E+03  0.14765230024E+04  0.96090727158E+02 0.  0.
         11    1    3    3    0    0 -0.11799227707E+04 -0.10400728691E+03  0.19334674045E+03  0.12001742468E+04  0.00000000000E+00 0. -1.
        -11    1    3    3    0    0 -0.26430526310E+03 -0.69346361710E+02  0.41260692669E+02  0.27634875564E+03  0.00000000000E+00 0.  1.
         22    1    1    2    0    0  0.14442280338E+04  0.17335364862E+03  0.11850700227E+04  0.18762294795E+04  0.00000000000E+00 0.  1.
<mgrwt>
<rscale>  0 0.30373451E+04</rscale>
<asrwt>0</asrwt>
<pdfrwt beam="1">  1        2 0.36710999E+00 0.30373451E+04</pdfrwt>
<pdfrwt beam="2">  1       -2 0.14869808E+00 0.30373451E+04</pdfrwt>
<totfact> 0.10592237E+00</totfact>
</mgrwt>
</event>
<event>
 6    1  0.1603085E-006  0.2737434E+04  0.7818608E-02  0.8322960E-01
         -2   -1    0    0    0  501 -0.00000000000E+00  0.00000000000E+00  0.13550573135E+04  0.13550573135E+04  0.00000000000E+00 0. -1.
          2   -1    0    0  501    0  0.00000000000E+00 -0.00000000000E+00 -0.13825143942E+04  0.13825143942E+04  0.00000000000E+00 0.  1.
         23    2    1    2    0    0 -0.65794492771E+03  0.10802190091E+04 -0.53282840963E+03  0.13755273562E+04  0.91677467828E+02 0.  0.
         11    1    3    3    0    0 -0.11163504326E+03  0.12394285779E+03 -0.71319049730E+02  0.18141284887E+03  0.00000000000E+00 0.  1.
        -11    1    3    3    0    0 -0.54630988446E+03  0.95627615131E+03 -0.46150935990E+03  0.11941145074E+04  0.00000000000E+00 0. -1.
         22    1    1    2    0    0  0.65794492771E+03 -0.10802190091E+04  0.50537132893E+03  0.13620443516E+04  0.00000000000E+00 0. -1.
<mgrwt>
<rscale>  0 0.27374340E+04</rscale>
<asrwt>0</asrwt>
<pdfrwt beam="1">  1        2 0.21269452E+00 0.27374340E+04</pdfrwt>
<pdfrwt beam="2">  1       -2 0.20847036E+00 0.27374340E+04</pdfrwt>
<totfact> 0.15172890E+00</totfact>
</mgrwt>
</event>
<event>
 6    1  0.1603085E-006  0.1737147E+04  0.7818608E-02  0.8740457E-01
          1   -1    0    0  501    0  0.00000000000E+00  0.00000000000E+00  0.17480747274E+04  0.17480747274E+04  0.00000000000E+00 0. -1.
         -1   -1    0    0    0  501 -0.00000000000E+00 -0.00000000000E+00 -0.43157205262E+03  0.43157205262E+03  0.00000000000E+00 0.  1.
         23    2    1    2    0    0 -0.58370850772E+03  0.16373262854E+03  0.14361466507E+04  0.15617158157E+04  0.94419760768E+02 0.  0.
         13    1    3    3    0    0 -0.47804573015E+03  0.16820132170E+03  0.11526429134E+04  0.12591287029E+04  0.00000000000E+00 0. -1.
        -13    1    3    3    0    0 -0.10566277757E+03 -0.44686931590E+01  0.28350373729E+03  0.30258711281E+03  0.00000000000E+00 0.  1.
         22    1    1    2    0    0  0.58370850772E+03 -0.16373262854E+03 -0.11964397592E+03  0.61793096427E+03  0.00000000000E+00 0.  1.
<mgrwt>
<rscale>  0 0.17371473E+04</rscale>
<asrwt>0</asrwt>
<pdfrwt beam="1">  1        1 0.26893457E+00 0.17371473E+04</pdfrwt>
<pdfrwt beam="2">  1       -1 0.66395701E-01 0.17371473E+04</pdfrwt>
<totfact> 0.96367495E+00</totfact>
</mgrwt>
</event>
<event>
 6    1  0.1603085E-006  0.1142067E+04  0.7818608E-02  0.9165134E-01
         -2   -1    0    0    0  501 -0.00000000000E+00  0.00000000000E+00  0.16550798103E+03  0.16550798103E+03  0.00000000000E+00 0.  1.
          2   -1    0    0  501    0  0.00000000000E+00 -0.00000000000E+00 -0.19701710309E+04  0.19701710309E+04  0.00000000000E+00 0. -1.
         23    2    1    2    0    0  0.38120969000E+03 -0.34863290800E+03 -0.13466614275E+04  0.14452941784E+04  0.92263370469E+02 0.  0.
         11    1    3    3    0    0  0.31829008712E+03 -0.26512875877E+03 -0.11538696683E+04  0.12259759581E+04  0.00000000000E+00 0. -1.
        -11    1    3    3    0    0  0.62919602877E+02 -0.83504149232E+02 -0.19279175915E+03  0.21931822031E+03  0.00000000000E+00 0.  1.
         22    1    1    2    0    0 -0.38120969000E+03  0.34863290800E+03 -0.45800162243E+03  0.69038483358E+03  0.00000000000E+00 0.  1.
<mgrwt>
<rscale>  0 0.11420666E+04</rscale>
<asrwt>0</asrwt>
<pdfrwt beam="1">  1        2 0.30310326E+00 0.11420666E+04</pdfrwt>
<pdfrwt beam="2">  1       -2 0.25462765E-01 0.11420666E+04</pdfrwt>
<totfact> 0.95534509E+01</totfact>
</mgrwt>
</event>
<event>
 6    1  0.1603085E-006  0.7601900E+03  0.7818608E-02  0.9619498E-01
          2   -1    0    0  501    0  0.00000000000E+00  0.00000000000E+00  0.26620046214E+04  0.26620046214E+04  0.00000000000E+00 0. -1.
         -2   -1    0    0    0  501 -0.00000000000E+00 -0.00000000000E+00 -0.54271958148E+02  0.54271958148E+02  0.00000000000E+00 0.  1.
         23    2    1    2    0    0  0.18571375265E+02  0.22062464341E+03  0.24023485592E+04  0.24142786335E+04  0.91883571114E+02 0.  0.
         13    1    3    3    0    0  0.19694053937E+02  0.94621849846E+02  0.15083669495E+04  0.15114602226E+04  0.00000000000E+00 0. -1.
        -13    1    3    3    0    0 -0.11226786723E+01  0.12600279356E+03  0.89398160977E+03  0.90281841087E+03  0.00000000000E+00 0.  1.
         22    1    1    2    0    0 -0.18571375265E+02 -0.22062464341E+03  0.20538410400E+03  0.30199794607E+03  0.00000000000E+00 0.  1.
<mgrwt>
<rscale>  0 0.76018999E+03</rscale>
<asrwt>0</asrwt>
<pdfrwt beam="1">  1        2 0.40953907E+00 0.76018999E+03</pdfrwt>
<pdfrwt beam="2">  1       -2 0.83495341E-02 0.76018999E+03</pdfrwt>
<totfact> 0.26784743E+02</totfact>
</mgrwt>
</event>
<event>
 6    1  0.1603085E-006  0.2023846E+04  0.7818608E-02  0.8595552E-01
         -2   -1    0    0    0  501 -0.00000000000E+00  0.00000000000E+00  0.15260329633E+04  0.15260329633E+04  0.00000000000E+00 0.  1.
          2   -1    0    0  501    0  0.00000000000E+00 -0.00000000000E+00 -0.67101315469E+03  0.67101315469E+03  0.00000000000E+00 0. -1.
         23    2    1    2    0    0 -0.13012643843E+03  0.25232889981E+03 -0.62518495930E+03  0.68986035686E+03  0.66695689287E+02 0.  0.
         11    1    3    3    0    0 -0.48096672551E+02  0.47332345980E+02 -0.10576834334E+03  0.12546148150E+03  0.00000000000E+00 0. -1.
        -11    1    3    3    0    0 -0.82029765883E+02  0.20499655383E+03 -0.51941661596E+03  0.56439887536E+03  0.00000000000E+00 0.  1.
         22    1    1    2    0    0  0.13012643843E+03 -0.25232889981E+03  0.14802047679E+04  0.15071857612E+04  0.00000000000E+00 0.  1.
<mgrwt>
<rscale>  0 0.20238460E+04</rscale>
<asrwt>0</asrwt>
<pdfrwt beam="1">  1        2 0.10323279E+00 0.20238460E+04</pdfrwt>
<pdfrwt beam="2">  1       -2 0.23477430E+00 0.20238460E+04</pdfrwt>
<totfact> 0.31974994E+00</totfact>
</mgrwt>
</event>
<event>
 6    1  0.1603085E-006  0.2401886E+04  0.7818608E-02  0.8438798E-01
          2   -1    0    0  501    0  0.00000000000E+00  0.00000000000E+00  0.18080192134E+04  0.18080192134E+04  0.00000000000E+00 0. -1.
         -2   -1    0    0    0  501 -0.00000000000E+00 -0.00000000000E+00 -0.79770380089E+03  0.79770380089E+03  0.00000000000E+00 0.  1.
         23    2    1    2    0    0 -0.66553563863E+03 -0.37759462086E+03 -0.49587470863E+03  0.91630771158E+03  0.90624012567E+02 0.  0.
         13    1    3    3    0    0 -0.57217742290E+03 -0.28889540226E+03 -0.42804995587E+03  0.77076216919E+03  0.00000000000E+00 0. -1.
        -13    1    3    3    0    0 -0.93358215730E+02 -0.88699218602E+02 -0.67824752755E+02  0.14554554240E+03  0.00000000000E+00 0.  1.
         22    1    1    2    0    0  0.66553563863E+03  0.37759462086E+03  0.15061901212E+04  0.16894153027E+04  0.00000000000E+00 0. -1.
<mgrwt>
<rscale>  0 0.24018858E+04</rscale>
<asrwt>0</asrwt>
<pdfrwt beam="1">  1        2 0.27815680E+00 0.24018858E+04</pdfrwt>
<pdfrwt beam="2">  1       -2 0.12272366E+00 0.24018858E+04</pdfrwt>
<totfact> 0.38558407E+00</totfact>
</mgrwt>
</event>
<event>
 6    1  0.1603085E-006  0.1984984E+04  0.7818608E-02  0.8613674E-01
          2   -1    0    0  501    0  0.00000000000E+00  0.00000000000E+00  0.14308160008E+04  0.14308160008E+04  0.00000000000E+00 0. -1.
         -2   -1    0    0    0  501 -0.00000000000E+00 -0.00000000000E+00 -0.68844636960E+03  0.68844636960E+03  0.00000000000E+00 0.  1.
         23    2    1    2    0    0 -0.12747142621E+03  0.35286884480E+03  0.13505480959E+04  0.14046670787E+04  0.91345806425E+02 0.  0.
         13    1    3    3    0    0  0.14531956144E+02  0.38520034072E+02  0.15051239381E+03  0.15604150559E+03  0.00000000000E+00 0. -1.
        -13    1    3    3    0    0 -0.14200338235E+03  0.31434881073E+03  0.12000357021E+04  0.12486255731E+04  0.00000000000E+00 0.  1.
         22    1    1    2    0    0  0.12747142621E+03 -0.35286884480E+03 -0.60817846468E+03  0.71459529178E+03  0.00000000000E+00 0.  1.
<mgrwt>
<rscale>  0 0.19849837E+04</rscale>
<asrwt>0</asrwt>
<pdfrwt beam="1">  1        2 0.22012554E+00 0.19849837E+04</pdfrwt>
<pdfrwt beam="2">  1       -2 0.10591483E+00 0.19849837E+04</pdfrwt>
<totfact> 0.93064112E+00</totfact>
</mgrwt>
</event>
<event>
 6    1  0.1603085E-006  0.3806428E+04  0.7818608E-02  0.8044777E-01
          2   -1    0    0  501    0  0.00000000000E+00  0.00000000000E+00  0.28560047776E+04  0.28560047776E+04  0.00000000000E+00 0. -1.
         -2   -1    0    0    0  501 -0.00000000000E+00 -0.00000000000E+00 -0.12682833711E+04  0.12682833711E+04  0.00000000000E+00 0.  1.
         23    2    1    2    0    0  0.10274545978E+04 -0.68566574252E+03 -0.77292869076E+03  0.14599928679E+04  0.91432775882E+02 0.  0.
         13    1    3    3    0    0  0.55438208997E+03 -0.40079220050E+03 -0.47177188682E+03  0.83098893065E+03  0.00000000000E+00 0.  1.
        -13    1    3    3    0    0  0.47307250779E+03 -0.28487354202E+03 -0.30115680394E+03  0.62900393729E+03  0.00000000000E+00 0. -1.
         22    1    1    2    0    0 -0.10274545978E+04  0.68566574252E+03  0.23606500973E+04  0.26642952807E+04  0.00000000000E+00 0. -1.
<mgrwt>
<rscale>  0 0.38064279E+04</rscale>
<asrwt>0</asrwt>
<pdfrwt beam="1">  1        2 0.43938535E+00 0.38064279E+04</pdfrwt>
<pdfrwt beam="2">  1       -2 0.19512052E+00 0.38064279E+04</pdfrwt>
<totfact> 0.24533684E-01</totfact>
</mgrwt>
</event>
<event>
 6    1  0.1603085E-006  0.1137919E+04  0.7818608E-02  0.9169002E-01
          2   -1    0    0  501    0  0.00000000000E+00  0.00000000000E+00  0.47453819325E+03  0.47453819325E+03  0.00000000000E+00 0. -1.
         -2   -1    0    0    0  501 -0.00000000000E+00 -0.00000000000E+00 -0.68216819305E+03  0.68216819305E+03  0.00000000000E+00 0.  1.
         23    2    1    2    0    0 -0.36788290643E+03  0.40454767789E+03  0.41346466811E+02  0.55588533352E+03  0.91117052076E+02 0.  0.
         11    1    3    3    0    0 -0.20792216982E+03  0.27360732285E+03 -0.64742917263E+01  0.34370701517E+03  0.00000000000E+00 0. -1.
        -11    1    3    3    0    0 -0.15996073661E+03  0.13094035504E+03  0.47820758538E+02  0.21217831836E+03  0.00000000000E+00 0.  1.
         22    1    1    2    0    0  0.36788290643E+03 -0.40454767789E+03 -0.24897646661E+03  0.60082105278E+03  0.00000000000E+00 0. -1.
<mgrwt>
<rscale>  0 0.11379189E+04</rscale>
<asrwt>0</asrwt>
<pdfrwt beam="1">  1        2 0.73005877E-01 0.11379189E+04</pdfrwt>
<pdfrwt beam="2">  1       -2 0.10494895E+00 0.11379189E+04</pdfrwt>
<totfact> 0.47704310E+01</totfact>
</mgrwt>
</event>
<event>
 6    1  0.1603085E-006  0.2801777E+04  0.7818608E-02  0.8302717E-01
         -2   -1    0    0    0  501 -0.00000000000E+00  0.00000000000E+00  0.10375777911E+04  0.10375777911E+04  0.00000000000E+00 0.  1.
          2   -1    0    0  501    0  0.00000000000E+00 -0.00000000000E+00 -0.18914127923E+04  0.18914127923E+04  0.00000000000E+00 0. -1.
         23    2    1    2    0    0  0.71556238839E+03  0.49230362275E+03  0.71974813273E+03  0.11316157565E+04  0.90135770802E+02 0.  0.
         13    1    3    3    0    0  0.52701207379E+03  0.38825071027E+03  0.58256754044E+03  0.87627922440E+03  0.00000000000E+00 0. -1.
        -13    1    3    3    0    0  0.18855031460E+03  0.10405291249E+03  0.13718059230E+03  0.25533653212E+03  0.00000000000E+00 0.  1.
         22    1    1    2    0    0 -0.71556238839E+03 -0.49230362275E+03 -0.15735831339E+04  0.17973748268E+04  0.00000000000E+00 0. -1.
<mgrwt>
<rscale>  0 0.28017765E+04</rscale>
<asrwt>0</asrwt>
<pdfrwt beam="1">  1        2 0.29098658E+00 0.28017765E+04</pdfrwt>
<pdfrwt beam="2">  1       -2 0.15962735E+00 0.28017765E+04</pdfrwt>
<totfact> 0.16934252E+00</totfact>
</mgrwt>
</event>
<event>
 6    1  0.1603085E-006  0.2306299E+04  0.7818608E-02  0.8475442E-01
          2   -1    0    0  501    0  0.00000000000E+00  0.00000000000E+00  0.11566059893E+04  0.11566059893E+04  0.00000000000E+00 0. -1.
         -2   -1    0    0    0  501 -0.00000000000E+00 -0.00000000000E+00 -0.11497036525E+04  0.11497036525E+04  0.00000000000E+00 0.  1.
         23    2    1    2    0    0 -0.47453012202E+03  0.10204896908E+04 -0.23979307659E+03  0.11541652616E+04  0.89547113922E+02 0.  0.
         13    1    3    3    0    0 -0.42918551065E+03  0.89824159893E+03 -0.23890991238E+03  0.10237754240E+04  0.00000000000E+00 0.  1.
        -13    1    3    3    0    0 -0.45344611372E+02  0.12224809189E+03 -0.88316421156E+00  0.13038983753E+03  0.00000000000E+00 0. -1.
         22    1    1    2    0    0  0.47453012202E+03 -0.10204896908E+04  0.24669541338E+03  0.11521443802E+04  0.00000000000E+00 0. -1.
<mgrwt>
<rscale>  0 0.23062993E+04</rscale>
<asrwt>0</asrwt>
<pdfrwt beam="1">  1        2 0.17793938E+00 0.23062993E+04</pdfrwt>
<pdfrwt beam="2">  1       -2 0.17687749E+00 0.23062993E+04</pdfrwt>
<totfact> 0.34744726E+00</totfact>
</mgrwt>
</event>
<event>
 6    1  0.1603085E-006  0.3753965E+04  0.7818608E-02  0.8056107E-01
          2   -1    0    0  501    0  0.00000000000E+00  0.00000000000E+00  0.37412232423E+04  0.37412232423E+04  0.00000000000E+00 0. -1.
         -2   -1    0    0    0  501 -0.00000000000E+00 -0.00000000000E+00 -0.94168741350E+03  0.94168741350E+03  0.00000000000E+00 0.  1.
         23    2    1    2    0    0 -0.22900037336E+02  0.30761243768E+03  0.37088459489E+04  0.37227050955E+04  0.88572746593E+02 0.  0.
         13    1    3    3    0    0  0.31832506665E+02  0.16523755033E+03  0.19961120501E+04  0.20031924703E+04  0.00000000000E+00 0. -1.
        -13    1    3    3    0    0 -0.54732544001E+02  0.14237488734E+03  0.17127338988E+04  0.17195126251E+04  0.00000000000E+00 0.  1.
         22    1    1    2    0    0  0.22900037336E+02 -0.30761243768E+03 -0.90931012013E+03  0.96020556033E+03  0.00000000000E+00 0.  1.
<mgrwt>
<rscale>  0 0.37539648E+04</rscale>
<asrwt>0</asrwt>
<pdfrwt beam="1">  1        2 0.57557280E+00 0.37539648E+04</pdfrwt>
<pdfrwt beam="2">  1       -2 0.14487499E+00 0.37539648E+04</pdfrwt>
<totfact> 0.14342375E-01</totfact>
</mgrwt>
</event>
<event>
 6    1  0.1603085E-006  0.1736439E+04  0.7818608E-02  0.8740850E-01
          1   -1    0    0  501    0  0.00000000000E+00  0.00000000000E+00  0.12716614737E+04  0.12716614737E+04  0.00000000000E+00 0. -1.
         -1   -1    0    0    0  501 -0.00000000000E+00 -0.00000000000E+00 -0.59277200151E+03  0.59277200151E+03  0.00000000000E+00 0.  1.
         23    2    1    2    0    0  0.44563292412E+03  0.42589845122E+03  0.99315439135E+03  0.11725226188E+04  0.92062222353E+02 0.  0.
         13    1    3    3    0    0  0.22891394219E+03  0.19083373787E+03  0.55719690202E+03  0.63189199715E+03  0.00000000000E+00 0.  1.
        -13    1    3    3    0    0  0.21671898193E+03  0.23506471335E+03  0.43595748933E+03  0.54063062168E+03  0.00000000000E+00 0. -1.
         22    1    1    2    0    0 -0.44563292412E+03 -0.42589845122E+03 -0.31426491914E+03  0.69191085641E+03  0.00000000000E+00 0.  1.
<mgrwt>
<rscale>  0 0.17364392E+04</rscale>
<asrwt>0</asrwt>
<pdfrwt beam="1">  1        1 0.19564023E+00 0.17364392E+04</pdfrwt>
<pdfrwt beam="2">  1       -1 0.91195693E-01 0.17364392E+04</pdfrwt>
<totfact> 0.10550917E+01</totfact>
</mgrwt>
</event>
<event>
 6    1  0.1603085E-006  0.1637496E+04  0.7818608E-02  0.8797838E-01
          2   -1    0    0  501    0  0.00000000000E+00  0.00000000000E+00  0.31658227140E+04  0.31658227140E+04  0.00000000000E+00 0. -1.
         -2   -1    0    0    0  501 -0.00000000000E+00 -0.00000000000E+00 -0.21174533549E+03  0.21174533549E+03  0.00000000000E+00 0.  1.
         23    2    1    2    0    0 -0.65940805868E+03  0.47913827214E+03  0.15699326020E+04  0.17712526278E+04  0.90857167721E+02 0.  0.
         13    1    3    3    0    0 -0.48903658302E+03  0.36224198990E+03  0.12520299524E+04  0.13921045364E+04  0.00000000000E+00 0. -1.
        -13    1    3    3    0    0 -0.17037147565E+03  0.11689628224E+03  0.31790264966E+03  0.37914809135E+03  0.00000000000E+00 0.  1.
         22    1    1    2    0    0  0.65940805868E+03 -0.47913827214E+03  0.13841447765E+04  0.16063154217E+04  0.00000000000E+00 0.  1.
<mgrwt>
<rscale>  0 0.16374959E+04</rscale>
<asrwt>0</asrwt>
<pdfrwt beam="1">  1        2 0.48704961E+00 0.16374959E+04</pdfrwt>
<pdfrwt beam="2">  1       -2 0.32576208E-01 0.16374959E+04</pdfrwt>
<totfact> 0.11544505E+01</totfact>
</mgrwt>
</event>
<event>
 6    1  0.1603085E-006  0.3057071E+04  0.7818608E-02  0.8227619E-01
         -2   -1    0    0    0  501 -0.00000000000E+00  0.00000000000E+00  0.12277310897E+04  0.12277310897E+04  0.00000000000E+00 0.  1.
          2   -1    0    0  501    0  0.00000000000E+00 -0.00000000000E+00 -0.19030398231E+04  0.19030398231E+04  0.00000000000E+00 0. -1.
         23    2    1    2    0    0 -0.10412883606E+04 -0.18613744801E+03  0.79012955064E+03  0.13234419544E+04  0.90913696728E+02 0.  0.
         11    1    3    3    0    0 -0.26204871291E+03 -0.50149348309E+02  0.24982000460E+03  0.36550584095E+03  0.00000000000E+00 0.  1.
        -11    1    3    3    0    0 -0.77923964772E+03 -0.13598809970E+03  0.54030954604E+03  0.95793611341E+03  0.00000000000E+00 0. -1.
         22    1    1    2    0    0  0.10412883606E+04  0.18613744801E+03 -0.14654382840E+04  0.18073289584E+04  0.00000000000E+00 0. -1.
<mgrwt>
<rscale>  0 0.30570712E+04</rscale>
<asrwt>0</asrwt>
<pdfrwt beam="1">  1        2 0.29277536E+00 0.30570712E+04</pdfrwt>
<pdfrwt beam="2">  1       -2 0.18888171E+00 0.30570712E+04</pdfrwt>
<totfact> 0.10164845E+00</totfact>
</mgrwt>
</event>
<event>
 6    1  0.1603085E-006  0.1268212E+04  0.7818608E-02  0.9055160E-01
         -2   -1    0    0    0  501 -0.00000000000E+00  0.00000000000E+00  0.19553414379E+03  0.19553414379E+03  0.00000000000E+00 0.  1.
          2   -1    0    0  501    0  0.00000000000E+00 -0.00000000000E+00 -0.20563700813E+04  0.20563700813E+04  0.00000000000E+00 0. -1.
         23    2    1    2    0    0 -0.41167727599E+03 -0.47482559822E+03 -0.85070170021E+03  0.10622367482E+04  0.98569762631E+02 0.  0.
         11    1    3    3    0    0 -0.23913842802E+03 -0.34532609665E+03 -0.54524226801E+03  0.68827787383E+03  0.00000000000E+00 0. -1.
        -11    1    3    3    0    0 -0.17253884798E+03 -0.12949950157E+03 -0.30545943219E+03  0.37395887432E+03  0.00000000000E+00 0.  1.
         22    1    1    2    0    0  0.41167727599E+03  0.47482559822E+03 -0.10101342373E+04  0.11896674769E+04  0.00000000000E+00 0. -1.
<mgrwt>
<rscale>  0 0.12682122E+04</rscale>
<asrwt>0</asrwt>
<pdfrwt beam="1">  1        2 0.31636461E+00 0.12682122E+04</pdfrwt>
<pdfrwt beam="2">  1       -2 0.30082177E-01 0.12682122E+04</pdfrwt>
<totfact> 0.62367154E+01</totfact>
</mgrwt>
</event>
<event>
 6    1  0.1603085E-006  0.2371160E+04  0.7818608E-02  0.8450381E-01
         -2   -1    0    0    0  501 -0.00000000000E+00  0.00000000000E+00  0.50281332945E+03  0.50281332945E+03  0.00000000000E+00 0.  1.
          2   -1    0    0  501    0  0.00000000000E+00 -0.00000000000E+00 -0.27954699692E+04  0.27954699692E+04  0.00000000000E+00 0. -1.
         23    2    1    2    0    0 -0.83172946102E+03  0.83310981971E+03 -0.13221082157E+04  0.17725670369E+04  0.90431732391E+02 0.  0.
         11    1    3    3    0    0 -0.33144809343E+03  0.28857229448E+03 -0.54011751659E+03  0.69631798735E+03  0.00000000000E+00 0. -1.
        -11    1    3    3    0    0 -0.50028136759E+03  0.54453752523E+03 -0.78199069909E+03  0.10762490495E+04  0.00000000000E+00 0.  1.
         22    1    1    2    0    0  0.83172946102E+03 -0.83310981971E+03 -0.97054842410E+03  0.15257162618E+04  0.00000000000E+00 0. -1.
<mgrwt>
<rscale>  0 0.23711597E+04</rscale>
<asrwt>0</asrwt>
<pdfrwt beam="1">  1        2 0.43007231E+00 0.23711597E+04</pdfrwt>
<pdfrwt beam="2">  1       -2 0.77355895E-01 0.23711597E+04</pdfrwt>
<totfact> 0.31269971E+00</totfact>
</mgrwt>
</event>
<event>
 6    1  0.1603085E-006  0.1644497E+04  0.7818608E-02  0.8793669E-01
         -2   -1    0    0    0  501 -0.00000000000E+00  0.00000000000E+00  0.27946451304E+03  0.27946451304E+03  0.00000000000E+00 0.  1.
          2   -1    0    0  501    0  0.00000000000E+00 -0.00000000000E+00 -0.24192434077E+04  0.24192434077E+04  0.00000000000E+00 0. -1.
         23    2    1    2    0    0  0.15881344337E+03 -0.57357567140E+03 -0.19981900347E+04  0.20869414899E+04  0.91381654942E+02 0.  0.
         13    1    3    3    0    0  0.10841666104E+01 -0.97113267615E+02 -0.25240983977E+03  0.27044942111E+03  0.00000000000E+00 0.  1.
        -13    1    3    3    0    0  0.15772927675E+03 -0.47646240378E+03 -0.17457801949E+04  0.18164920688E+04  0.00000000000E+00 0. -1.
         22    1    1    2    0    0 -0.15881344337E+03  0.57357567140E+03 -0.14158885994E+03  0.61176643082E+03  0.00000000000E+00 0.  1.
<mgrwt>
<rscale>  0 0.16444971E+04</rscale>
<asrwt>0</asrwt>
<pdfrwt beam="1">  1        2 0.37219131E+00 0.16444971E+04</pdfrwt>
<pdfrwt beam="2">  1       -2 0.42994539E-01 0.16444971E+04</pdfrwt>
<totfact> 0.19025444E+01</totfact>
</mgrwt>
</event>
<event>
 6    1  0.1603085E-006  0.9994600E+03  0.7818608E-02  0.9309137E-01
         -2   -1    0    0    0  501 -0.00000000000E+00  0.00000000000E+00  0.69482613051E+02  0.69482613051E+02  0.00000000000E+00 0.  1.
          2   -1    0    0  501    0  0.00000000000E+00 -0.00000000000E+00 -0.35941374146E+04  0.35941374146E+04  0.00000000000E+00 0. -1.
         23    2    1    2    0    0  0.47017747343E+03  0.37086952788E+02 -0.12189718301E+04  0.13101935335E+04  0.90953141974E+02 0.  0.
         13    1    3    3    0    0  0.25408115917E+03  0.42517904234E+02 -0.55395609991E+03  0.61092746562E+03  0.00000000000E+00 0.  1.
        -13    1    3    3    0    0  0.21609631426E+03 -0.54309514466E+01 -0.66501573020E+03  0.69926606787E+03  0.00000000000E+00 0. -1.
         22    1    1    2    0    0 -0.47017747343E+03 -0.37086952788E+02 -0.23056829715E+04  0.23534264942E+04  0.00000000000E+00 0. -1.
<mgrwt>
<rscale>  0 0.99945997E+03</rscale>
<asrwt>0</asrwt>
<pdfrwt beam="1">  1        2 0.55294439E+00 0.99945997E+03</pdfrwt>
<pdfrwt beam="2">  1       -2 0.10689629E-01 0.99945997E+03</pdfrwt>
<totfact> 0.44809260E+01</totfact>
</mgrwt>
</event>
<event>
 6    1  0.1603085E-006  0.1734764E+04  0.7818608E-02  0.8741782E-01
          1   -1    0    0  501    0  0.00000000000E+00  0.00000000000E+00  0.30381351056E+04  0.30381351056E+04  0.00000000000E+00 0. -1.
         -1   -1    0    0    0  501 -0.00000000000E+00 -0.00000000000E+00 -0.24763607831E+03  0.24763607831E+03  0.00000000000E+00 0.  1.
         23    2    1    2    0    0  0.61834998997E+03 -0.93522091316E+02  0.26725193217E+03  0.68617910155E+03  0.91187019299E+02 0.  0.
         13    1    3    3    0    0  0.49223137711E+02 -0.85088782987E+01 -0.37969445363E+01  0.50097256251E+02  0.00000000000E+00 0.  1.
        -13    1    3    3    0    0  0.56912685226E+03 -0.85013213018E+02  0.27104887670E+03  0.63608184529E+03  0.00000000000E+00 0. -1.
         22    1    1    2    0    0 -0.61834998997E+03  0.93522091316E+02  0.25232470952E+04  0.25995920824E+04  0.00000000000E+00 0. -1.
<mgrwt>
<rscale>  0 0.17347644E+04</rscale>
<asrwt>0</asrwt>
<pdfrwt beam="1">  1        1 0.46740537E+00 0.17347644E+04</pdfrwt>
<pdfrwt beam="2">  1       -1 0.38097860E-01 0.17347644E+04</pdfrwt>
<totfact> 0.35547093E+00</totfact>
</mgrwt>
</event>
<event>
 6    1  0.1603085E-006  0.3077804E+04  0.7818608E-02  0.8221856E-01
          2   -1    0    0  501    0  0.00000000000E+00  0.00000000000E+00  0.14971318486E+04  0.14971318486E+04  0.00000000000E+00 0. -1.
         -2   -1    0    0    0  501 -0.00000000000E+00 -0.00000000000E+00 -0.15818375489E+04  0.15818375489E+04  0.00000000000E+00 0.  1.
         23    2    1    2    0    0 -0.47183057723E+03  0.62370628115E+03 -0.13666637591E+04  0.15772869799E+04  0.91819212920E+02 0.  0.
         13    1    3    3    0    0 -0.17486727342E+03  0.30449256236E+03 -0.63214260665E+03  0.72311725120E+03  0.00000000000E+00 0.  1.
        -13    1    3    3    0    0 -0.29696330381E+03  0.31921371879E+03 -0.73452115241E+03  0.85416972869E+03  0.00000000000E+00 0. -1.
         22    1    1    2    0    0  0.47183057723E+03 -0.62370628115E+03  0.12819580588E+04  0.15016824176E+04  0.00000000000E+00 0. -1.
<mgrwt>
<rscale>  0 0.30778040E+04</rscale>
<asrwt>0</asrwt>
<pdfrwt beam="1">  1        2 0.23032798E+00 0.30778040E+04</pdfrwt>
<pdfrwt beam="2">  1       -2 0.24335962E+00 0.30778040E+04</pdfrwt>
<totfact> 0.76529482E-01</totfact>
</mgrwt>
</event>
<event>
 6    1  0.1603085E-006  0.1627508E+04  0.7818608E-02  0.8803825E-01
         -1   -1    0    0    0  501 -0.00000000000E+00  0.00000000000E+00  0.39377648477E+03  0.39377648477E+03  0.00000000000E+00 0.  1.
          1   -1    0    0  501    0  0.00000000000E+00 -0.00000000000E+00 -0.16816533202E+04  0.16816533202E+04  0.00000000000E+00 0. -1.
         23    2    1    2    0    0  0.39353698234E+02 -0.76529626301E+03 -0.30728425897E+03  0.83092633581E+03  0.93743671732E+02 0.  0.
         13    1    3    3    0    0 -0.25451859577E+02 -0.15809029959E+03 -0.45013772605E+02  0.16633273792E+03  0.00000000000E+00 0. -1.
        -13    1    3    3    0    0  0.64805557811E+02 -0.60720596342E+03 -0.26227048636E+03  0.66459359789E+03  0.00000000000E+00 0.  1.
         22    1    1    2    0    0 -0.39353698234E+02  0.76529626301E+03 -0.98059257644E+03  0.12445034691E+04  0.00000000000E+00 0.  1.
<mgrwt>
<rscale>  0 0.16275080E+04</rscale>
<asrwt>0</asrwt>
<pdfrwt beam="1">  1        1 0.25871590E+00 0.16275080E+04</pdfrwt>
<pdfrwt beam="2">  1       -1 0.60580998E-01 0.16275080E+04</pdfrwt>
<totfact> 0.12976873E+01</totfact>
</mgrwt>
</event>
<event>
 6    1  0.1603085E-006  0.1083555E+04  0.7818608E-02  0.9221370E-01
         -1   -1    0    0    0  501 -0.00000000000E+00  0.00000000000E+00  0.25753329119E+03  0.25753329119E+03  0.00000000000E+00 0.  1.
          1   -1    0    0  501    0  0.00000000000E+00 -0.00000000000E+00 -0.11397481605E+04  0.11397481605E+04  0.00000000000E+00 0. -1.
         23    2    1    2    0    0 -0.41443902592E+03 -0.25357259171E+03 -0.14530055972E+03  0.51461420682E+03  0.87502935602E+02 0.  0.
         11    1    3    3    0    0 -0.27030003265E+03 -0.21027166279E+03 -0.88088119331E+02  0.35360401099E+03  0.00000000000E+00 0. -1.
        -11    1    3    3    0    0 -0.14413899327E+03 -0.43300928917E+02 -0.57212440389E+02  0.16101019583E+03  0.00000000000E+00 0.  1.
         22    1    1    2    0    0  0.41443902592E+03  0.25357259171E+03 -0.73691430957E+03  0.88266724484E+03  0.00000000000E+00 0. -1.
<mgrwt>
<rscale>  0 0.10835554E+04</rscale>
<asrwt>0</asrwt>
<pdfrwt beam="1">  1        1 0.17534587E+00 0.10835554E+04</pdfrwt>
<pdfrwt beam="2">  1       -1 0.39620506E-01 0.10835554E+04</pdfrwt>
<totfact> 0.73139954E+01</totfact>
</mgrwt>
</event>
<event>
 6    1  0.1603085E-006  0.2472990E+04  0.7818608E-02  0.8412672E-01
          4   -1    0    0  501    0  0.00000000000E+00  0.00000000000E+00  0.19477362261E+04  0.19477362261E+04  0.00000000000E+00 0. -1.
         -4   -1    0    0    0  501 -0.00000000000E+00 -0.00000000000E+00 -0.78497278975E+03  0.78497278975E+03  0.00000000000E+00 0.  1.
         23    2    1    2    0    0  0.10805910874E+04 -0.52022013749E+03  0.90897765508E+03  0.15068569398E+04  0.77918995191E+02 0.  0.
         13    1    3    3    0    0  0.52008552769E+03 -0.28936287148E+03  0.47145251823E+03  0.75926761056E+03  0.00000000000E+00 0. -1.
        -13    1    3    3    0    0  0.56050555973E+03 -0.23085726601E+03  0.43752513686E+03  0.74758932920E+03  0.00000000000E+00 0.  1.
         22    1    1    2    0    0 -0.10805910874E+04  0.52022013749E+03  0.25378578125E+03  0.12258520761E+04  0.00000000000E+00 0.  1.
<mgrwt>
<rscale>  0 0.24729900E+04</rscale>
<asrwt>0</asrwt>
<pdfrwt beam="1">  1        4 0.29965173E+00 0.24729900E+04</pdfrwt>
<pdfrwt beam="2">  1       -4 0.12076504E+00 0.24729900E+04</pdfrwt>
<totfact> 0.28856835E-02</totfact>
</mgrwt>
</event>
<event>
 6    1  0.1603085E-006  0.4046332E+04  0.7818608E-02  0.7995265E-01
          1   -1    0    0  501    0  0.00000000000E+00  0.00000000000E+00  0.37576107913E+04  0.37576107913E+04  0.00000000000E+00 0. -1.
         -1   -1    0    0    0  501 -0.00000000000E+00 -0.00000000000E+00 -0.10893096159E+04  0.10893096159E+04  0.00000000000E+00 0.  1.
         23    2    1    2    0    0  0.19951734994E+04 -0.27518779271E+03  0.11186809027E+04  0.23057064054E+04  0.91593950632E+02 0.  0.
         13    1    3    3    0    0  0.81226628460E+03 -0.15249956296E+03  0.43520783854E+03  0.93404416198E+03  0.00000000000E+00 0. -1.
        -13    1    3    3    0    0  0.11829072148E+04 -0.12268822975E+03  0.68347306418E+03  0.13716622434E+04  0.00000000000E+00 0.  1.
         22    1    1    2    0    0 -0.19951734994E+04  0.27518779271E+03  0.15496202726E+04  0.25412140018E+04  0.00000000000E+00 0. -1.
<mgrwt>
<rscale>  0 0.40463324E+04</rscale>
<asrwt>0</asrwt>
<pdfrwt beam="1">  1        1 0.57809396E+00 0.40463324E+04</pdfrwt>
<pdfrwt beam="2">  1       -1 0.16758610E+00 0.40463324E+04</pdfrwt>
<totfact> 0.30835863E-02</totfact>
</mgrwt>
</event>
<event>
 6    1  0.1603085E-006  0.8820955E+03  0.7818608E-02  0.9448244E-01
          2   -1    0    0  501    0  0.00000000000E+00  0.00000000000E+00  0.13640935566E+04  0.13640935566E+04  0.00000000000E+00 0. -1.
         -2   -1    0    0    0  501 -0.00000000000E+00 -0.00000000000E+00 -0.14260248109E+03  0.14260248109E+03  0.00000000000E+00 0.  1.
         23    2    1    2    0    0  0.31659869179E+03 -0.11942469393E+03  0.10879002925E+04  0.11429055946E+04  0.90604429578E+02 0.  0.
         11    1    3    3    0    0  0.12822573707E+03 -0.82537996580E+02  0.38036423028E+03  0.40979422666E+03  0.00000000000E+00 0.  1.
        -11    1    3    3    0    0  0.18837295471E+03 -0.36886697352E+02  0.70753606220E+03  0.73311136796E+03  0.00000000000E+00 0. -1.
         22    1    1    2    0    0 -0.31659869179E+03  0.11942469393E+03  0.13359078304E+03  0.36379044308E+03  0.00000000000E+00 0.  1.
<mgrwt>
<rscale>  0 0.88209552E+03</rscale>
<asrwt>0</asrwt>
<pdfrwt beam="1">  1        2 0.20986054E+00 0.88209552E+03</pdfrwt>
<pdfrwt beam="2">  1       -2 0.21938844E-01 0.88209552E+03</pdfrwt>
<totfact> 0.27602225E+02</totfact>
</mgrwt>
</event>
<event>
 6    1  0.1603085E-006  0.1779801E+04  0.7818608E-02  0.8717115E-01
          1   -1    0    0  501    0  0.00000000000E+00  0.00000000000E+00  0.17715809826E+04  0.17715809826E+04  0.00000000000E+00 0. -1.
         -1   -1    0    0    0  501 -0.00000000000E+00 -0.00000000000E+00 -0.44701472054E+03  0.44701472054E+03  0.00000000000E+00 0.  1.
         23    2    1    2    0    0 -0.63830781551E+03 -0.58365843259E+03  0.91077051884E+03  0.12597834429E+04  0.97248916291E+02 0.  0.
         13    1    3    3    0    0 -0.61639850939E+03 -0.58302421323E+03  0.88700259042E+03  0.12274518121E+04  0.00000000000E+00 0. -1.
        -13    1    3    3    0    0 -0.21909306123E+02 -0.63421936008E+00  0.23767928418E+02  0.32331630802E+02  0.00000000000E+00 0.  1.
         22    1    1    2    0    0  0.63830781551E+03  0.58365843259E+03  0.41379574319E+03  0.95881226023E+03  0.00000000000E+00 0.  1.
<mgrwt>
<rscale>  0 0.17798009E+04</rscale>
<asrwt>0</asrwt>
<pdfrwt beam="1">  1        1 0.27255092E+00 0.17798009E+04</pdfrwt>
<pdfrwt beam="2">  1       -1 0.68771496E-01 0.17798009E+04</pdfrwt>
<totfact> 0.86141770E+00</totfact>
</mgrwt>
</event>
<event>
 6    1  0.1603085E-006  0.2586716E+04  0.7818608E-02  0.8372727E-01
          1   -1    0    0  501    0  0.00000000000E+00  0.00000000000E+00  0.24991228193E+04  0.24991228193E+04  0.00000000000E+00 0. -1.
         -1   -1    0    0    0  501 -0.00000000000E+00 -0.00000000000E+00 -0.66934506264E+03  0.66934506264E+03  0.00000000000E+00 0.  1.
         23    2    1    2    0    0  0.12089869228E+04  0.18650644017E+03  0.14243260355E+04  0.18797378365E+04  0.90970581921E+02 0.  0.
         11    1    3    3    0    0  0.10814876531E+04  0.16772812350E+03  0.12282138972E+04  0.16450707111E+04  0.00000000000E+00 0. -1.
        -11    1    3    3    0    0  0.12749926970E+03  0.18778316675E+02  0.19611213828E+03  0.23466712538E+03  0.00000000000E+00 0.  1.
         22    1    1    2    0    0 -0.12089869228E+04 -0.18650644017E+03  0.40545172119E+03  0.12887300455E+04  0.00000000000E+00 0.  1.
<mgrwt>
<rscale>  0 0.25867165E+04</rscale>
<asrwt>0</asrwt>
<pdfrwt beam="1">  1        1 0.38448043E+00 0.25867165E+04</pdfrwt>
<pdfrwt beam="2">  1       -1 0.10297617E+00 0.25867165E+04</pdfrwt>
<totfact> 0.10651648E+00</totfact>
</mgrwt>
</event>
<event>
 6    1  0.1603085E-006  0.2131391E+04  0.7818608E-02  0.8547540E-01
         -2   -1    0    0    0  501 -0.00000000000E+00  0.00000000000E+00  0.47594143675E+03  0.47594143675E+03  0.00000000000E+00 0. -1.
          2   -1    0    0  501    0  0.00000000000E+00 -0.00000000000E+00 -0.23862315596E+04  0.23862315596E+04  0.00000000000E+00 0.  1.
         23    2    1    2    0    0  0.59026927227E+03  0.60611363212E+03 -0.18225157855E+04  0.20115873845E+04  0.95543017672E+02 0.  0.
         13    1    3    3    0    0  0.37733664878E+03  0.43493764667E+03 -0.13048842224E+04  0.14262806655E+04  0.00000000000E+00 0.  1.
        -13    1    3    3    0    0  0.21293262349E+03  0.17117598545E+03 -0.51763156306E+03  0.58530671893E+03  0.00000000000E+00 0. -1.
         22    1    1    2    0    0 -0.59026927227E+03 -0.60611363212E+03 -0.87774337371E+02  0.85058561188E+03  0.00000000000E+00 0. -1.
<mgrwt>
<rscale>  0 0.21313906E+04</rscale>
<asrwt>0</asrwt>
<pdfrwt beam="1">  1        2 0.36711254E+00 0.21313906E+04</pdfrwt>
<pdfrwt beam="2">  1       -2 0.73221760E-01 0.21313906E+04</pdfrwt>
<totfact> 0.62667350E+00</totfact>
</mgrwt>
</event>
<event>
 6    1  0.1603085E-006  0.4359665E+03  0.7818608E-02  0.1031992E+00
          1   -1    0    0  501    0  0.00000000000E+00  0.00000000000E+00  0.70771098400E+02  0.70771098400E+02  0.00000000000E+00 0. -1.
         -1   -1    0    0    0  501 -0.00000000000E+00 -0.00000000000E+00 -0.67141400254E+03  0.67141400254E+03  0.00000000000E+00 0.  1.
         23    2    1    2    0    0 -0.62257793264E+02 -0.34617569115E+02 -0.64704228493E+03  0.65717150525E+03  0.90201219011E+02 0.  0.
         11    1    3    3    0    0 -0.58754459358E+02 -0.53456641119E+02 -0.32525356601E+03  0.33481275539E+03  0.00000000000E+00 0. -1.
        -11    1    3    3    0    0 -0.35033339061E+01  0.18839072003E+02 -0.32178871893E+03  0.32235874986E+03  0.00000000000E+00 0.  1.
         22    1    1    2    0    0  0.62257793264E+02  0.34617569115E+02  0.46399380793E+02  0.85013595687E+02  0.00000000000E+00 0. -1.
<mgrwt>
<rscale>  0 0.43596654E+03</rscale>
<asrwt>0</asrwt>
<pdfrwt beam="1">  1        1 0.10887862E-01 0.43596654E+03</pdfrwt>
<pdfrwt beam="2">  1       -1 0.10329446E+00 0.43596654E+03</pdfrwt>
<totfact> 0.53578021E+02</totfact>
</mgrwt>
</event>
<event>
 6    1  0.1603085E-006  0.2505050E+04  0.7818608E-02  0.8401189E-01
         -2   -1    0    0    0  501 -0.00000000000E+00  0.00000000000E+00  0.77548905354E+03  0.77548905354E+03  0.00000000000E+00 0.  1.
          2   -1    0    0  501    0  0.00000000000E+00 -0.00000000000E+00 -0.20230060027E+04  0.20230060027E+04  0.00000000000E+00 0. -1.
         23    2    1    2    0    0 -0.60794716422E+03 -0.53837612668E+03 -0.16874572833E+04  0.18749171733E+04  0.91398663288E+02 0.  0.
         11    1    3    3    0    0 -0.12805357435E+03 -0.67198554893E+02 -0.30577719234E+03  0.33824998897E+03  0.00000000000E+00 0. -1.
        -11    1    3    3    0    0 -0.47989358987E+03 -0.47117757179E+03 -0.13816800909E+04  0.15366671843E+04  0.00000000000E+00 0.  1.
         22    1    1    2    0    0  0.60794716422E+03  0.53837612668E+03  0.43994033410E+03  0.92357788293E+03  0.00000000000E+00 0.  1.
<mgrwt>
<rscale>  0 0.25050501E+04</rscale>
<asrwt>0</asrwt>
<pdfrwt beam="1">  1        2 0.31123169E+00 0.25050501E+04</pdfrwt>
<pdfrwt beam="2">  1       -2 0.11930601E+00 0.25050501E+04</pdfrwt>
<totfact> 0.31154802E+00</totfact>
</mgrwt>
</event>
<event>
 6    1  0.1603085E-006  0.8609117E+03  0.7818608E-02  0.9475808E-01
          2   -1    0    0  501    0  0.00000000000E+00  0.00000000000E+00  0.70053104912E+03  0.70053104912E+03  0.00000000000E+00 0. -1.
         -2   -1    0    0    0  501 -0.00000000000E+00 -0.00000000000E+00 -0.26450254294E+03  0.26450254294E+03  0.00000000000E+00 0.  1.
         23    2    1    2    0    0 -0.29250679553E+03  0.27274849836E+03  0.38386042905E+03  0.56170559024E+03  0.90622140369E+02 0.  0.
         11    1    3    3    0    0 -0.13835810154E+03  0.16070321714E+03  0.14857598844E+03  0.25892723419E+03  0.00000000000E+00 0.  1.
        -11    1    3    3    0    0 -0.15414869398E+03  0.11204528122E+03  0.23528444061E+03  0.30277835605E+03  0.00000000000E+00 0. -1.
         22    1    1    2    0    0  0.29250679553E+03 -0.27274849836E+03  0.52168077130E+02  0.40332800183E+03  0.00000000000E+00 0. -1.
<mgrwt>
<rscale>  0 0.86091171E+03</rscale>
<asrwt>0</asrwt>
<pdfrwt beam="1">  1        2 0.10777401E+00 0.86091171E+03</pdfrwt>
<pdfrwt beam="2">  1       -2 0.40692699E-01 0.86091171E+03</pdfrwt>
<totfact> 0.23499211E+02</totfact>
</mgrwt>
</event>
<event>
 6    1  0.1603085E-006  0.2567940E+04  0.7818608E-02  0.8379173E-01
         -2   -1    0    0    0  501 -0.00000000000E+00  0.00000000000E+00  0.15229451968E+04  0.15229451968E+04  0.00000000000E+00 0.  1.
          2   -1    0    0  501    0  0.00000000000E+00 -0.00000000000E+00 -0.10824942523E+04  0.10824942523E+04  0.00000000000E+00 0. -1.
         23    2    1    2    0    0 -0.94609149190E+02 -0.11726440985E+04  0.73833174153E+03  0.13918587792E+04  0.89955699172E+02 0.  0.
         11    1    3    3    0    0 -0.63099900540E+02 -0.63226559894E+03  0.34758844699E+03  0.72426453285E+03  0.00000000000E+00 0.  1.
        -11    1    3    3    0    0 -0.31509248650E+02 -0.54037849958E+03  0.39074329454E+03  0.66759424637E+03  0.00000000000E+00 0. -1.
         22    1    1    2    0    0  0.94609149190E+02  0.11726440985E+04 -0.29788079703E+03  0.12135806698E+04  0.00000000000E+00 0. -1.
<mgrwt>
<rscale>  0 0.25679404E+04</rscale>
<asrwt>0</asrwt>
<pdfrwt beam="1">  1        2 0.16653758E+00 0.25679404E+04</pdfrwt>
<pdfrwt beam="2">  1       -2 0.23429926E+00 0.25679404E+04</pdfrwt>
<totfact> 0.15920823E+00</totfact>
</mgrwt>
</event>
<event>
 6    1  0.1603085E-006  0.1054616E+04  0.7818608E-02  0.9250591E-01
         -2   -1    0    0    0  501 -0.00000000000E+00  0.00000000000E+00  0.19902372374E+03  0.19902372374E+03  0.00000000000E+00 0. -1.
          2   -1    0    0  501    0  0.00000000000E+00 -0.00000000000E+00 -0.13970877608E+04  0.13970877608E+04  0.00000000000E+00 0.  1.
         23    2    1    2    0    0 -0.70986837826E+02 -0.45958312585E+03 -0.96674862223E+03  0.10767247290E+04  0.92073137752E+02 0.  0.
         13    1    3    3    0    0 -0.88211290422E+02 -0.42918342199E+03 -0.87561572785E+03  0.97912335501E+03  0.00000000000E+00 0.  1.
        -13    1    3    3    0    0  0.17224452596E+02 -0.30399703861E+02 -0.91132894375E+02  0.97601373962E+02  0.00000000000E+00 0. -1.
         22    1    1    2    0    0  0.70986837826E+02  0.45958312585E+03 -0.23131541481E+03  0.51938675555E+03  0.00000000000E+00 0.  1.
<mgrwt>
<rscale>  0 0.10546158E+04</rscale>
<asrwt>0</asrwt>
<pdfrwt beam="1">  1        2 0.21493659E+00 0.10546158E+04</pdfrwt>
<pdfrwt beam="2">  1       -2 0.30619033E-01 0.10546158E+04</pdfrwt>
<totfact> 0.14256916E+02</totfact>
</mgrwt>
</event>
<event>
 6    1  0.1603085E-006  0.3194858E+04  0.7818608E-02  0.8190177E-01
          2   -1    0    0  501    0  0.00000000000E+00  0.00000000000E+00  0.15861326191E+04  0.15861326191E+04  0.00000000000E+00 0. -1.
         -2   -1    0    0    0  501 -0.00000000000E+00 -0.00000000000E+00 -0.16088054294E+04  0.16088054294E+04  0.00000000000E+00 0.  1.
         23    2    1    2    0    0 -0.11609281020E+04  0.10228262316E+04 -0.40318825292E+03  0.16016020638E+04  0.92956147692E+02 0.  0.
         11    1    3    3    0    0 -0.35939332601E+03  0.37510455469E+03 -0.13464039708E+03  0.53665168056E+03  0.00000000000E+00 0.  1.
        -11    1    3    3    0    0 -0.80153477599E+03  0.64772167694E+03 -0.26854785584E+03  0.10649503832E+04  0.00000000000E+00 0. -1.
         22    1    1    2    0    0  0.11609281020E+04 -0.10228262316E+04  0.38051544256E+03  0.15933359847E+04  0.00000000000E+00 0. -1.
<mgrwt>
<rscale>  0 0.31948576E+04</rscale>
<asrwt>0</asrwt>
<pdfrwt beam="1">  1        2 0.24402040E+00 0.31948576E+04</pdfrwt>
<pdfrwt beam="2">  1       -2 0.24750853E+00 0.31948576E+04</pdfrwt>
<totfact> 0.63674339E-01</totfact>
</mgrwt>
</event>
<event>
 6    1  0.1603085E-006  0.1245180E+04  0.7818608E-02  0.9074205E-01
         -3   -1    0    0    0  501 -0.00000000000E+00  0.00000000000E+00  0.13251748303E+04  0.13251748303E+04  0.00000000000E+00 0.  1.
          3   -1    0    0  501    0  0.00000000000E+00 -0.00000000000E+00 -0.29250343967E+03  0.29250343967E+03  0.00000000000E+00 0. -1.
         23    2    1    2    0    0 -0.38519995014E+03 -0.21902974270E+03 -0.43242499462E+02  0.45408739313E+03  0.89288392692E+02 0.  0.
         11    1    3    3    0    0 -0.12937740522E+03 -0.46023693953E+02 -0.47278086654E+02  0.14523054384E+03  0.00000000000E+00 0.  1.
        -11    1    3    3    0    0 -0.25582254492E+03 -0.17300604874E+03  0.40355871920E+01  0.30885684929E+03  0.00000000000E+00 0. -1.
         22    1    1    2    0    0  0.38519995014E+03  0.21902974270E+03  0.10759138901E+04  0.11635908769E+04  0.00000000000E+00 0.  1.
<mgrwt>
<rscale>  0 0.12451798E+04</rscale>
<asrwt>0</asrwt>
<pdfrwt beam="1">  1        3 0.45000530E-01 0.12451798E+04</pdfrwt>
<pdfrwt beam="2">  1       -3 0.20387305E+00 0.12451798E+04</pdfrwt>
<totfact> 0.17557697E+00</totfact>
</mgrwt>
</event>
<event>
 6    1  0.1603085E-006  0.1436967E+04  0.7818608E-02  0.8927486E-01
          2   -1    0    0  501    0  0.00000000000E+00  0.00000000000E+00  0.89993698629E+03  0.89993698629E+03  0.00000000000E+00 0. -1.
         -2   -1    0    0    0  501 -0.00000000000E+00 -0.00000000000E+00 -0.57361658315E+03  0.57361658315E+03  0.00000000000E+00 0.  1.
         23    2    1    2    0    0 -0.35906191287E+03  0.30266458789E+03 -0.38981986590E+03  0.61717269917E+03  0.91713154539E+02 0.  0.
         11    1    3    3    0    0 -0.15926459425E+03  0.19319895120E+03 -0.19358480238E+03  0.31649031808E+03  0.00000000000E+00 0.  1.
        -11    1    3    3    0    0 -0.19979731862E+03  0.10946563669E+03 -0.19623506351E+03  0.30068238109E+03  0.00000000000E+00 0. -1.
         22    1    1    2    0    0  0.35906191287E+03 -0.30266458789E+03  0.71614026904E+03  0.85638087027E+03  0.00000000000E+00 0. -1.
<mgrwt>
<rscale>  0 0.14369673E+04</rscale>
<asrwt>0</asrwt>
<pdfrwt beam="1">  1        2 0.13845184E+00 0.14369673E+04</pdfrwt>
<pdfrwt beam="2">  1       -2 0.88248705E-01 0.14369673E+04</pdfrwt>
<totfact> 0.31485237E+01</totfact>
</mgrwt>
</event>
<event>
 6    1  0.1603085E-006  0.3442323E+04  0.7818608E-02  0.8127596E-01
          1   -1    0    0  501    0  0.00000000000E+00  0.00000000000E+00  0.13333633417E+04  0.13333633417E+04  0.00000000000E+00 0.  1.
         -1   -1    0    0    0  501 -0.00000000000E+00 -0.00000000000E+00 -0.22217480348E+04  0.22217480348E+04  0.00000000000E+00 0. -1.
         23    2    1    2    0    0 -0.15863201104E+03  0.92185351446E+03 -0.19351677183E+04  0.21512834957E+04  0.90380106984E+02 0.  0.
         11    1    3    3    0    0 -0.74403925186E+02  0.61561549056E+03 -0.12110599502E+04  0.13605824412E+04  0.00000000000E+00 0.  1.
        -11    1    3    3    0    0 -0.84228085851E+02  0.30623802390E+03 -0.72410776811E+03  0.79070105449E+03  0.00000000000E+00 0. -1.
         22    1    1    2    0    0  0.15863201104E+03 -0.92185351446E+03  0.10467830253E+04  0.14038278809E+04  0.00000000000E+00 0.  1.
<mgrwt>
<rscale>  0 0.34423233E+04</rscale>
<asrwt>0</asrwt>
<pdfrwt beam="1">  1        1 0.20513282E+00 0.34423233E+04</pdfrwt>
<pdfrwt beam="2">  1       -1 0.34180739E+00 0.34423233E+04</pdfrwt>
<totfact> 0.12352988E-01</totfact>
</mgrwt>
</event>
<event>
 6    1  0.1603085E-006  0.2141057E+04  0.7818608E-02  0.8543370E-01
         -1   -1    0    0    0  501 -0.00000000000E+00  0.00000000000E+00  0.12130746956E+04  0.12130746956E+04  0.00000000000E+00 0.  1.
          1   -1    0    0  501    0  0.00000000000E+00 -0.00000000000E+00 -0.94473228034E+03  0.94473228034E+03  0.00000000000E+00 0. -1.
         23    2    1    2    0    0 -0.25792498695E+03 -0.71893978031E+03 -0.61882939585E+03  0.98713472076E+03  0.89919014392E+02 0.  0.
         11    1    3    3    0    0 -0.14530398026E+03 -0.27544073811E+03 -0.24328048247E+03  0.39517874442E+03  0.00000000000E+00 0.  1.
        -11    1    3    3    0    0 -0.11262100669E+03 -0.44349904219E+03 -0.37554891338E+03  0.59195597633E+03  0.00000000000E+00 0. -1.
         22    1    1    2    0    0  0.25792498695E+03  0.71893978031E+03  0.88717181111E+03  0.11706722552E+04  0.00000000000E+00 0.  1.
<mgrwt>
<rscale>  0 0.21410566E+04</rscale>
<asrwt>0</asrwt>
<pdfrwt beam="1">  1        1 0.14534343E+00 0.21410566E+04</pdfrwt>
<pdfrwt beam="2">  1       -1 0.18662688E+00 0.21410566E+04</pdfrwt>
<totfact> 0.28626763E+00</totfact>
</mgrwt>
</event>
<event>
 6    1  0.1603085E-006  0.9408419E+03  0.7818608E-02  0.9375919E-01
          2   -1    0    0  501    0  0.00000000000E+00  0.00000000000E+00  0.23510668756E+04  0.23510668756E+04  0.00000000000E+00 0. -1.
         -2   -1    0    0    0  501 -0.00000000000E+00 -0.00000000000E+00 -0.94125729012E+02  0.94125729012E+02  0.00000000000E+00 0.  1.
         23    2    1    2    0    0 -0.26538411926E+03  0.13792687986E+03  0.20677633917E+04  0.20912988665E+04  0.91831093916E+02 0.  0.
         11    1    3    3    0    0 -0.15056414406E+03  0.29495499288E+02  0.91636607121E+03  0.92912126357E+03  0.00000000000E+00 0. -1.
        -11    1    3    3    0    0 -0.11481997520E+03  0.10843138057E+03  0.11513973205E+04  0.11621776029E+04  0.00000000000E+00 0.  1.
         22    1    1    2    0    0  0.26538411926E+03 -0.13792687986E+03  0.18917775482E+03  0.35389373810E+03  0.00000000000E+00 0.  1.
<mgrwt>
<rscale>  0 0.94084193E+03</rscale>
<asrwt>0</asrwt>
<pdfrwt beam="1">  1        2 0.36170255E+00 0.94084193E+03</pdfrwt>
<pdfrwt beam="2">  1       -2 0.14480883E-01 0.94084193E+03</pdfrwt>
<totfact> 0.16010935E+02</totfact>
</mgrwt>
</event>
<event>
 6    1  0.1603085E-006  0.4193222E+04  0.7818608E-02  0.7966663E-01
          2   -1    0    0  501    0  0.00000000000E+00  0.00000000000E+00  0.23388643812E+04  0.23388643812E+04  0.00000000000E+00 0. -1.
         -2   -1    0    0    0  501 -0.00000000000E+00 -0.00000000000E+00 -0.18794496159E+04  0.18794496159E+04  0.00000000000E+00 0.  1.
         23    2    1    2    0    0 -0.14823544152E+04  0.76538739748E+03 -0.10459862555E+04  0.19712214947E+04  0.91839283767E+02 0.  0.
         11    1    3    3    0    0 -0.14482305662E+04  0.74605311106E+03 -0.10033513166E+04  0.19132905900E+04  0.00000000000E+00 0. -1.
        -11    1    3    3    0    0 -0.34123849045E+02  0.19334286420E+02 -0.42634938929E+02  0.57930904727E+02  0.00000000000E+00 0.  1.
         22    1    1    2    0    0  0.14823544152E+04 -0.76538739748E+03  0.15054010209E+04  0.22470925024E+04  0.00000000000E+00 0. -1.
<mgrwt>
<rscale>  0 0.41932220E+04</rscale>
<asrwt>0</asrwt>
<pdfrwt beam="1">  1        2 0.35982529E+00 0.41932220E+04</pdfrwt>
<pdfrwt beam="2">  1       -2 0.28914609E+00 0.41932220E+04</pdfrwt>
<totfact> 0.12393183E-01</totfact>
</mgrwt>
</event>
<event>
 6    1  0.1603085E-006  0.5117369E+04  0.7818608E-02  0.7810653E-01
         -1   -1    0    0    0  501 -0.00000000000E+00  0.00000000000E+00  0.23042376351E+04  0.23042376351E+04  0.00000000000E+00 0.  1.
          1   -1    0    0  501    0  0.00000000000E+00 -0.00000000000E+00 -0.28412293334E+04  0.28412293334E+04  0.00000000000E+00 0. -1.
         23    2    1    2    0    0 -0.24928797885E+04  0.23638948312E+03 -0.79317659257E+03  0.26283336134E+04  0.93160338978E+02 0.  0.
         11    1    3    3    0    0 -0.17552499096E+04  0.12642282443E+03 -0.57285144077E+03  0.18506873720E+04  0.00000000000E+00 0.  1.
        -11    1    3    3    0    0 -0.73762987890E+03  0.10996665869E+03 -0.22032515180E+03  0.77764624142E+03  0.00000000000E+00 0. -1.
         22    1    1    2    0    0  0.24928797885E+04 -0.23638948312E+03  0.25618489426E+03  0.25171333551E+04  0.00000000000E+00 0. -1.
<mgrwt>
<rscale>  0 0.51173695E+04</rscale>
<asrwt>0</asrwt>
<pdfrwt beam="1">  1        1 0.43711220E+00 0.51173695E+04</pdfrwt>
<pdfrwt beam="2">  1       -1 0.35449810E+00 0.51173695E+04</pdfrwt>
<totfact> 0.80801456E-03</totfact>
</mgrwt>
</event>
<event>
 6    1  0.1603085E-006  0.1765262E+04  0.7818608E-02  0.8724994E-01
         -1   -1    0    0    0  501 -0.00000000000E+00  0.00000000000E+00  0.18132218434E+03  0.18132218434E+03  0.00000000000E+00 0.  1.
          1   -1    0    0  501    0  0.00000000000E+00 -0.00000000000E+00 -0.42964289710E+04  0.42964289710E+04  0.00000000000E+00 0. -1.
         23    2    1    2    0    0  0.75475068362E+02 -0.19183912327E+03 -0.42339018271E+04  0.42398204999E+04  0.87489740940E+02 0.  0.
         11    1    3    3    0    0  0.10256593162E+02 -0.13994465708E+03 -0.25517137390E+04  0.25555689602E+04  0.00000000000E+00 0.  1.
        -11    1    3    3    0    0  0.65218475199E+02 -0.51894466198E+02 -0.16821880881E+04  0.16842515397E+04  0.00000000000E+00 0. -1.
         22    1    1    2    0    0 -0.75475068362E+02  0.19183912327E+03  0.11879504043E+03  0.23793065543E+03  0.00000000000E+00 0.  1.
<mgrwt>
<rscale>  0 0.17652625E+04</rscale>
<asrwt>0</asrwt>
<pdfrwt beam="1">  1        1 0.66098907E+00 0.17652625E+04</pdfrwt>
<pdfrwt beam="2">  1       -1 0.27895721E-01 0.17652625E+04</pdfrwt>
<totfact> 0.57176988E-01</totfact>
</mgrwt>
</event>
<event>
 6    1  0.1603085E-006  0.2920560E+04  0.7818608E-02  0.8266786E-01
         -1   -1    0    0    0  501 -0.00000000000E+00  0.00000000000E+00  0.88606698057E+03  0.88606698057E+03  0.00000000000E+00 0.  1.
          1   -1    0    0  501    0  0.00000000000E+00 -0.00000000000E+00 -0.24066105570E+04  0.24066105570E+04  0.00000000000E+00 0. -1.
         23    2    1    2    0    0 -0.10190922357E+04 -0.95587489301E+03 -0.28787427772E+03  0.14294224836E+04  0.90173393480E+02 0.  0.
         13    1    3    3    0    0 -0.53308902663E+03 -0.56003426681E+03 -0.16890694430E+03  0.79142393579E+03  0.00000000000E+00 0.  1.
        -13    1    3    3    0    0 -0.48600320911E+03 -0.39584062620E+03 -0.11896733342E+03  0.63799854783E+03  0.00000000000E+00 0. -1.
         22    1    1    2    0    0  0.10190922357E+04  0.95587489301E+03 -0.12326692987E+04  0.18632550539E+04  0.00000000000E+00 0. -1.
<mgrwt>
<rscale>  0 0.29205603E+04</rscale>
<asrwt>0</asrwt>
<pdfrwt beam="1">  1        1 0.37024777E+00 0.29205603E+04</pdfrwt>
<pdfrwt beam="2">  1       -1 0.13631800E+00 0.29205603E+04</pdfrwt>
<totfact> 0.60499106E-01</totfact>
</mgrwt>
</event>
<event>
 6    1  0.1603085E-006  0.1989340E+04  0.7818608E-02  0.8611621E-01
          2   -1    0    0  501    0  0.00000000000E+00  0.00000000000E+00  0.90237378708E+03  0.90237378708E+03  0.00000000000E+00 0.  1.
         -2   -1    0    0    0  501 -0.00000000000E+00 -0.00000000000E+00 -0.10964067770E+04  0.10964067770E+04  0.00000000000E+00 0. -1.
         23    2    1    2    0    0 -0.30189223716E+02  0.73254933520E+03  0.57501254841E+03  0.93625011381E+03  0.91569247192E+02 0.  0.
         11    1    3    3    0    0 -0.39248767352E+02  0.37561944508E+03  0.24591058436E+03  0.45066889039E+03  0.00000000000E+00 0. -1.
        -11    1    3    3    0    0  0.90595436359E+01  0.35692989012E+03  0.32910196405E+03  0.48558122342E+03  0.00000000000E+00 0.  1.
         22    1    1    2    0    0  0.30189223716E+02 -0.73254933520E+03 -0.76904553833E+03  0.10625304503E+04  0.00000000000E+00 0.  1.
<mgrwt>
<rscale>  0 0.19893403E+04</rscale>
<asrwt>0</asrwt>
<pdfrwt beam="1">  1        2 0.13882674E+00 0.19893403E+04</pdfrwt>
<pdfrwt beam="2">  1       -2 0.16867797E+00 0.19893403E+04</pdfrwt>
<totfact> 0.59148766E+00</totfact>
</mgrwt>
</event>
<event>
 6    1  0.1603085E-006  0.4186840E+03  0.7818608E-02  0.1037495E+00
          1   -1    0    0  501    0  0.00000000000E+00  0.00000000000E+00  0.37505930924E+03  0.37505930924E+03  0.00000000000E+00 0. -1.
         -1   -1    0    0    0  501 -0.00000000000E+00 -0.00000000000E+00 -0.11684571860E+03  0.11684571860E+03  0.00000000000E+00 0.  1.
         23    2    1    2    0    0 -0.53731859155E+02  0.34237196663E+02  0.35679171791E+03  0.37452979408E+03  0.94408359587E+02 0.  0.
         13    1    3    3    0    0 -0.59495703001E+02  0.60744109715E+02  0.23959905003E+03  0.25423864835E+03  0.00000000000E+00 0.  1.
        -13    1    3    3    0    0  0.57638438461E+01 -0.26506913052E+02  0.11719266788E+03  0.12029114573E+03  0.00000000000E+00 0. -1.
         22    1    1    2    0    0  0.53731859155E+02 -0.34237196663E+02 -0.98578127273E+02  0.11737523376E+03  0.00000000000E+00 0.  1.
<mgrwt>
<rscale>  0 0.41868401E+03</rscale>
<asrwt>0</asrwt>
<pdfrwt beam="1">  1        1 0.57701432E-01 0.41868401E+03</pdfrwt>
<pdfrwt beam="2">  1       -1 0.17976265E-01 0.41868401E+03</pdfrwt>
<totfact> 0.15878559E+03</totfact>
</mgrwt>
</event>
<event>
 6    1  0.1603085E-006  0.2750280E+04  0.7818608E-02  0.8318873E-01
         -2   -1    0    0    0  501 -0.00000000000E+00  0.00000000000E+00  0.13155584671E+04  0.13155584671E+04  0.00000000000E+00 0.  1.
          2   -1    0    0  501    0  0.00000000000E+00 -0.00000000000E+00 -0.14374201373E+04  0.14374201373E+04  0.00000000000E+00 0. -1.
         23    2    1    2    0    0 -0.50900338998E+03 -0.12380481098E+04 -0.36939628965E+03  0.13916847489E+04  0.92115407319E+02 0.  0.
         11    1    3    3    0    0 -0.16882279707E+03 -0.52502003031E+03 -0.13867252225E+03  0.56866267459E+03  0.00000000000E+00 0.  1.
        -11    1    3    3    0    0 -0.34018059292E+03 -0.71302807949E+03 -0.23072376740E+03  0.82302207430E+03  0.00000000000E+00 0. -1.
         22    1    1    2    0    0  0.50900338998E+03  0.12380481098E+04  0.24753461952E+03  0.13612938555E+04  0.00000000000E+00 0. -1.
<mgrwt>
<rscale>  0 0.27502802E+04</rscale>
<asrwt>0</asrwt>
<pdfrwt beam="1">  1        2 0.22114156E+00 0.27502802E+04</pdfrwt>
<pdfrwt beam="2">  1       -2 0.20239361E+00 0.27502802E+04</pdfrwt>
<totfact> 0.15440786E+00</totfact>
</mgrwt>
</event>
<event>
 6    1  0.1603085E-006  0.1050418E+04  0.7818608E-02  0.9254913E-01
         -2   -1    0    0    0  501 -0.00000000000E+00  0.00000000000E+00  0.22729185287E+03  0.22729185287E+03  0.00000000000E+00 0.  1.
          2   -1    0    0  501    0  0.00000000000E+00 -0.00000000000E+00 -0.12136130608E+04  0.12136130608E+04  0.00000000000E+00 0. -1.
         23    2    1    2    0    0  0.16138197516E+03 -0.18744067388E+03  0.13186915307E+03  0.29568535761E+03  0.94139306571E+02 0.  0.
         13    1    3    3    0    0  0.67928689062E+02 -0.12104057936E+03  0.11409671890E+03  0.17967523455E+03  0.00000000000E+00 0.  1.
        -13    1    3    3    0    0  0.93453286101E+02 -0.66400094523E+02  0.17772434179E+02  0.11601012306E+03  0.00000000000E+00 0. -1.
         22    1    1    2    0    0 -0.16138197516E+03  0.18744067388E+03 -0.11181903610E+04  0.11452195561E+04  0.00000000000E+00 0. -1.
<mgrwt>
<rscale>  0 0.10504177E+04</rscale>
<asrwt>0</asrwt>
<pdfrwt beam="1">  1        2 0.18670970E+00 0.10504177E+04</pdfrwt>
<pdfrwt beam="2">  1       -2 0.34967978E-01 0.10504177E+04</pdfrwt>
<totfact> 0.14188328E+02</totfact>
</mgrwt>
</event>
<event>
 6    1  0.1603085E-006  0.1468851E+04  0.7818608E-02  0.8905435E-01
          2   -1    0    0  501    0  0.00000000000E+00  0.00000000000E+00  0.60959667740E+03  0.60959667740E+03  0.00000000000E+00 0. -1.
         -2   -1    0    0    0  501 -0.00000000000E+00 -0.00000000000E+00 -0.88481538084E+03  0.88481538084E+03  0.00000000000E+00 0.  1.
         23    2    1    2    0    0 -0.20038273701E+03  0.18667564403E+03 -0.82774234748E+03  0.87774082119E+03  0.10134356421E+03 0.  0.
         13    1    3    3    0    0 -0.15127928231E+03  0.72616034709E+02 -0.46972059706E+03  0.49879449581E+03  0.00000000000E+00 0.  1.
        -13    1    3    3    0    0 -0.49103454708E+02  0.11405960932E+03 -0.35802175042E+03  0.37894632538E+03  0.00000000000E+00 0. -1.
         22    1    1    2    0    0  0.20038273701E+03 -0.18667564403E+03  0.55252364404E+03  0.61667123704E+03  0.00000000000E+00 0. -1.
<mgrwt>
<rscale>  0 0.14688506E+04</rscale>
<asrwt>0</asrwt>
<pdfrwt beam="1">  1        2 0.93784105E-01 0.14688506E+04</pdfrwt>
<pdfrwt beam="2">  1       -2 0.13612544E+00 0.14688506E+04</pdfrwt>
<totfact> 0.18186732E+01</totfact>
</mgrwt>
</event>
<event>
 6    1  0.1603085E-006  0.2450932E+04  0.7818608E-02  0.8420678E-01
         -2   -1    0    0    0  501 -0.00000000000E+00  0.00000000000E+00  0.13104944681E+04  0.13104944681E+04  0.00000000000E+00 0.  1.
          2   -1    0    0  501    0  0.00000000000E+00 -0.00000000000E+00 -0.11459543422E+04  0.11459543422E+04  0.00000000000E+00 0. -1.
         23    2    1    2    0    0 -0.10055865771E+04  0.69729225109E+03  0.96675649116E+02  0.12308769296E+04  0.91054858255E+02 0.  0.
         13    1    3    3    0    0 -0.79960844698E+03  0.55766413857E+03  0.11358150846E+03  0.98145999358E+03  0.00000000000E+00 0. -1.
        -13    1    3    3    0    0 -0.20597813016E+03  0.13962811251E+03 -0.16905859346E+02  0.24941693605E+03  0.00000000000E+00 0.  1.
         22    1    1    2    0    0  0.10055865771E+04 -0.69729225109E+03  0.67864476853E+02  0.12255718807E+04  0.00000000000E+00 0. -1.
<mgrwt>
<rscale>  0 0.24509319E+04</rscale>
<asrwt>0</asrwt>
<pdfrwt beam="1">  1        2 0.17630067E+00 0.24509319E+04</pdfrwt>
<pdfrwt beam="2">  1       -2 0.20161453E+00 0.24509319E+04</pdfrwt>
<totfact> 0.23729632E+00</totfact>
</mgrwt>
</event>
<event>
 6    1  0.1603085E-006  0.5384448E+04  0.7818608E-02  0.7771792E-01
          1   -1    0    0  501    0  0.00000000000E+00  0.00000000000E+00  0.35232554984E+04  0.35232554984E+04  0.00000000000E+00 0. -1.
         -1   -1    0    0    0  501 -0.00000000000E+00 -0.00000000000E+00 -0.20572082422E+04  0.20572082422E+04  0.00000000000E+00 0.  1.
         23    2    1    2    0    0 -0.66337893227E+03  0.51200701762E+03  0.33840274731E+04  0.34874107297E+04  0.90381775561E+02 0.  0.
         11    1    3    3    0    0 -0.49439826325E+03  0.42778715034E+03  0.25890747263E+04  0.26703444398E+04  0.00000000000E+00 0. -1.
        -11    1    3    3    0    0 -0.16898066903E+03  0.84219867279E+02  0.79495274673E+03  0.81706628990E+03  0.00000000000E+00 0.  1.
         22    1    1    2    0    0  0.66337893227E+03 -0.51200701762E+03 -0.19179802169E+04  0.20930530109E+04  0.00000000000E+00 0.  1.
<mgrwt>
<rscale>  0 0.53844481E+04</rscale>
<asrwt>0</asrwt>
<pdfrwt beam="1">  1        1 0.54203931E+00 0.53844481E+04</pdfrwt>
<pdfrwt beam="2">  1       -1 0.31649357E+00 0.53844481E+04</pdfrwt>
<totfact> 0.43235943E-03</totfact>
</mgrwt>
</event>
<event>
 6    1  0.1603085E-006  0.1877181E+04  0.7818608E-02  0.8666299E-01
          2   -1    0    0  501    0  0.00000000000E+00  0.00000000000E+00  0.95215487325E+03  0.95215487325E+03  0.00000000000E+00 0. -1.
         -2   -1    0    0    0  501 -0.00000000000E+00 -0.00000000000E+00 -0.92521965856E+03  0.92521965856E+03  0.00000000000E+00 0.  1.
         23    2    1    2    0    0  0.56291115439E+03 -0.37627614069E+03  0.66034747757E+03  0.95019396873E+03  0.91417095148E+02 0.  0.
         13    1    3    3    0    0  0.23584007404E+03 -0.12151059196E+03  0.30422042699E+03  0.40365261386E+03  0.00000000000E+00 0.  1.
        -13    1    3    3    0    0  0.32707108035E+03 -0.25476554873E+03  0.35612705057E+03  0.54654135486E+03  0.00000000000E+00 0. -1.
         22    1    1    2    0    0 -0.56291115439E+03  0.37627614069E+03 -0.63341226288E+03  0.92718056308E+03  0.00000000000E+00 0.  1.
<mgrwt>
<rscale>  0 0.18771813E+04</rscale>
<asrwt>0</asrwt>
<pdfrwt beam="1">  1        2 0.14648537E+00 0.18771813E+04</pdfrwt>
<pdfrwt beam="2">  1       -2 0.14234148E+00 0.18771813E+04</pdfrwt>
<totfact> 0.87323700E+00</totfact>
</mgrwt>
</event>
<event>
 6    1  0.1603085E-006  0.3575663E+04  0.7818608E-02  0.8096089E-01
          1   -1    0    0  501    0  0.00000000000E+00  0.00000000000E+00  0.38260027506E+04  0.38260027506E+04  0.00000000000E+00 0. -1.
         -1   -1    0    0    0  501 -0.00000000000E+00 -0.00000000000E+00 -0.83542584881E+03  0.83542584881E+03  0.00000000000E+00 0.  1.
         23    2    1    2    0    0 -0.67442031790E+03 -0.78009650012E+03 -0.40577161066E+03  0.11119812435E+04  0.91969402939E+02 0.  0.
         11    1    3    3    0    0 -0.74841363396E+02 -0.13150100297E+03 -0.44852042878E+02  0.15781460391E+03  0.00000000000E+00 0. -1.
        -11    1    3    3    0    0 -0.59957895451E+03 -0.64859549715E+03 -0.36091956779E+03  0.95416663954E+03  0.00000000000E+00 0.  1.
         22    1    1    2    0    0  0.67442031790E+03  0.78009650012E+03  0.33963485124E+04  0.35494473559E+04  0.00000000000E+00 0. -1.
<mgrwt>
<rscale>  0 0.35756631E+04</rscale>
<asrwt>0</asrwt>
<pdfrwt beam="1">  1        1 0.58861580E+00 0.35756631E+04</pdfrwt>
<pdfrwt beam="2">  1       -1 0.12852706E+00 0.35756631E+04</pdfrwt>
<totfact> 0.57216061E-02</totfact>
</mgrwt>
</event>
<event>
 6    1  0.1603085E-006  0.3052527E+04  0.7818608E-02  0.8228888E-01
          2   -1    0    0  501    0  0.00000000000E+00  0.00000000000E+00  0.26942315096E+04  0.26942315096E+04  0.00000000000E+00 0. -1.
         -2   -1    0    0    0  501 -0.00000000000E+00 -0.00000000000E+00 -0.86461787753E+03  0.86461787753E+03  0.00000000000E+00 0.  1.
         23    2    1    2    0    0 -0.90418538173E+03 -0.38591664529E+03 -0.44322022585E+03  0.10825100309E+04  0.94344775535E+02 0.  0.
         11    1    3    3    0    0 -0.50742518217E+03 -0.17223481960E+03 -0.26630973617E+03  0.59838618313E+03  0.00000000000E+00 0.  1.
        -11    1    3    3    0    0 -0.39676019956E+03 -0.21368182568E+03 -0.17691048968E+03  0.48412384773E+03  0.00000000000E+00 0. -1.
         22    1    1    2    0    0  0.90418538173E+03  0.38591664529E+03  0.22728338579E+04  0.24763393562E+04  0.00000000000E+00 0. -1.
<mgrwt>
<rscale>  0 0.30525273E+04</rscale>
<asrwt>0</asrwt>
<pdfrwt beam="1">  1        2 0.41449715E+00 0.30525273E+04</pdfrwt>
<pdfrwt beam="2">  1       -2 0.13301814E+00 0.30525273E+04</pdfrwt>
<totfact> 0.93431929E-01</totfact>
</mgrwt>
</event>
<event>
 6    1  0.1603085E-006  0.3772173E+04  0.7818608E-02  0.8052153E-01
          2   -1    0    0  501    0  0.00000000000E+00  0.00000000000E+00  0.19946859154E+04  0.19946859154E+04  0.00000000000E+00 0. -1.
         -2   -1    0    0    0  501 -0.00000000000E+00 -0.00000000000E+00 -0.17833993418E+04  0.17833993418E+04  0.00000000000E+00 0.  1.
         23    2    1    2    0    0 -0.79882434950E+03  0.99842195764E+03  0.14928910978E+04  0.19677049372E+04  0.90399907624E+02 0.  0.
         13    1    3    3    0    0 -0.38238419172E+03  0.44601166148E+03  0.74783980100E+03  0.95100391178E+03  0.00000000000E+00 0. -1.
        -13    1    3    3    0    0 -0.41644015778E+03  0.55241029616E+03  0.74505129676E+03  0.10167010254E+04  0.00000000000E+00 0.  1.
         22    1    1    2    0    0  0.79882434950E+03 -0.99842195764E+03 -0.12816045241E+04  0.18103803200E+04  0.00000000000E+00 0.  1.
<mgrwt>
<rscale>  0 0.37721726E+04</rscale>
<asrwt>0</asrwt>
<pdfrwt beam="1">  1        2 0.30687476E+00 0.37721726E+04</pdfrwt>
<pdfrwt beam="2">  1       -2 0.27436913E+00 0.37721726E+04</pdfrwt>
<totfact> 0.24641540E-01</totfact>
</mgrwt>
</event>
<event>
 6    1  0.1603085E-006  0.3159541E+04  0.7818608E-02  0.8199585E-01
          2   -1    0    0  501    0  0.00000000000E+00  0.00000000000E+00  0.26074405416E+04  0.26074405416E+04  0.00000000000E+00 0. -1.
         -2   -1    0    0    0  501 -0.00000000000E+00 -0.00000000000E+00 -0.95713608479E+03  0.95713608479E+03  0.00000000000E+00 0.  1.
         23    2    1    2    0    0 -0.14921473832E+04  0.10583575927E+03  0.25747204769E+03  0.15206375028E+04  0.91332023963E+02 0.  0.
         13    1    3    3    0    0 -0.95115424414E+03  0.11001254197E+03  0.15328001450E+03  0.96968650521E+03  0.00000000000E+00 0. -1.
        -13    1    3    3    0    0 -0.54099313902E+03 -0.41767826951E+01  0.10419203319E+03  0.55095099760E+03  0.00000000000E+00 0.  1.
         22    1    1    2    0    0  0.14921473832E+04 -0.10583575927E+03  0.13928324091E+04  0.20439391236E+04  0.00000000000E+00 0. -1.
<mgrwt>
<rscale>  0 0.31595414E+04</rscale>
<asrwt>0</asrwt>
<pdfrwt beam="1">  1        2 0.40114470E+00 0.31595414E+04</pdfrwt>
<pdfrwt beam="2">  1       -2 0.14725171E+00 0.31595414E+04</pdfrwt>
<totfact> 0.80065561E-01</totfact>
</mgrwt>
</event>
<event>
 6    1  0.1603085E-006  0.1118715E+04  0.7818608E-02  0.9187141E-01
          2   -1    0    0  501    0  0.00000000000E+00  0.00000000000E+00  0.35501008875E+03  0.35501008875E+03  0.00000000000E+00 0. -1.
         -2   -1    0    0    0  501 -0.00000000000E+00 -0.00000000000E+00 -0.88132925596E+03  0.88132925596E+03  0.00000000000E+00 0.  1.
         23    2    1    2    0    0 -0.12493121201E+03 -0.12488607201E+03 -0.84716202984E+03  0.87008194722E+03  0.90303661868E+02 0.  0.
         13    1    3    3    0    0 -0.13650291085E+03 -0.11539488620E+03 -0.71197833878E+03  0.73407232568E+03  0.00000000000E+00 0. -1.
        -13    1    3    3    0    0  0.11571698837E+02 -0.94911858108E+01 -0.13518369106E+03  0.13600962154E+03  0.00000000000E+00 0.  1.
         22    1    1    2    0    0  0.12493121201E+03  0.12488607201E+03  0.32084286264E+03  0.36625739750E+03  0.00000000000E+00 0. -1.
<mgrwt>
<rscale>  0 0.11187149E+04</rscale>
<asrwt>0</asrwt>
<pdfrwt beam="1">  1        2 0.54616937E-01 0.11187149E+04</pdfrwt>
<pdfrwt beam="2">  1       -2 0.13558911E+00 0.11187149E+04</pdfrwt>
<totfact> 0.35161042E+01</totfact>
</mgrwt>
</event>
<event>
 6    1  0.1603085E-006  0.2992527E+04  0.7818608E-02  0.8245868E-01
          1   -1    0    0  501    0  0.00000000000E+00  0.00000000000E+00  0.90752283821E+03  0.90752283821E+03  0.00000000000E+00 0. -1.
         -1   -1    0    0    0  501 -0.00000000000E+00 -0.00000000000E+00 -0.24669397912E+04  0.24669397912E+04  0.00000000000E+00 0.  1.
         23    2    1    2    0    0  0.27828172618E+03  0.76415929676E+03 -0.21947380924E+04  0.23424679103E+04  0.94342282907E+02 0.  0.
         13    1    3    3    0    0  0.22380821384E+03  0.50197721255E+03 -0.14122081805E+04  0.15153887896E+04  0.00000000000E+00 0. -1.
        -13    1    3    3    0    0  0.54473512342E+02  0.26218208422E+03 -0.78252991194E+03  0.82707912071E+03  0.00000000000E+00 0.  1.
         22    1    1    2    0    0 -0.27828172618E+03 -0.76415929676E+03  0.63532113949E+03  0.10319947191E+04  0.00000000000E+00 0. -1.
<mgrwt>
<rscale>  0 0.29925268E+04</rscale>
<asrwt>0</asrwt>
<pdfrwt beam="1">  1        1 0.13961890E+00 0.29925268E+04</pdfrwt>
<pdfrwt beam="2">  1       -1 0.37952920E+00 0.29925268E+04</pdfrwt>
<totfact> 0.15050491E-01</totfact>
</mgrwt>
</event>
<event>
 6    1  0.1603085E-006  0.3413202E+04  0.7818608E-02  0.8134674E-01
          1   -1    0    0  501    0  0.00000000000E+00  0.00000000000E+00  0.24702846557E+04  0.24702846557E+04  0.00000000000E+00 0. -1.
         -1   -1    0    0    0  501 -0.00000000000E+00 -0.00000000000E+00 -0.11790084666E+04  0.11790084666E+04  0.00000000000E+00 0.  1.
         23    2    1    2    0    0 -0.21765412269E+03 -0.96905399316E+03 -0.83616180595E+03  0.13014363589E+04  0.90172455649E+02 0.  0.
         11    1    3    3    0    0 -0.80019836339E+02 -0.27508098129E+03 -0.29017989572E+03  0.40777088218E+03  0.00000000000E+00 0. -1.
        -11    1    3    3    0    0 -0.13763428635E+03 -0.69397301186E+03 -0.54598191023E+03  0.89366547671E+03  0.00000000000E+00 0.  1.
         22    1    1    2    0    0  0.21765412269E+03  0.96905399316E+03  0.21274379951E+04  0.23478567634E+04  0.00000000000E+00 0. -1.
<mgrwt>
<rscale>  0 0.34132017E+04</rscale>
<asrwt>0</asrwt>
<pdfrwt beam="1">  1        1 0.38004379E+00 0.34132017E+04</pdfrwt>
<pdfrwt beam="2">  1       -1 0.18138592E+00 0.34132017E+04</pdfrwt>
<totfact> 0.23740591E-01</totfact>
</mgrwt>
</event>
<event>
 6    1  0.1603085E-006  0.3419299E+04  0.7818608E-02  0.8133186E-01
          1   -1    0    0  501    0  0.00000000000E+00  0.00000000000E+00  0.22618086984E+04  0.22618086984E+04  0.00000000000E+00 0. -1.
         -1   -1    0    0    0  501 -0.00000000000E+00 -0.00000000000E+00 -0.12922852219E+04  0.12922852219E+04  0.00000000000E+00 0.  1.
         23    2    1    2    0    0 -0.13168786373E+04 -0.10472002321E+04  0.17798727455E+03  0.16947049802E+04  0.97712990493E+02 0.  0.
         11    1    3    3    0    0 -0.10712943272E+04 -0.88246319422E+03  0.11797423764E+03  0.13929575534E+04  0.00000000000E+00 0.  1.
        -11    1    3    3    0    0 -0.24558431007E+03 -0.16473703783E+03  0.60013036916E+02  0.30174742681E+03  0.00000000000E+00 0. -1.
         22    1    1    2    0    0  0.13168786373E+04  0.10472002321E+04  0.79153620194E+03  0.18593889400E+04  0.00000000000E+00 0. -1.
<mgrwt>
<rscale>  0 0.34192993E+04</rscale>
<asrwt>0</asrwt>
<pdfrwt beam="1">  1        1 0.34797057E+00 0.34192993E+04</pdfrwt>
<pdfrwt beam="2">  1       -1 0.19881311E+00 0.34192993E+04</pdfrwt>
<totfact> 0.24901132E-01</totfact>
</mgrwt>
</event>
<event>
 6    1  0.1603085E-006  0.2621952E+04  0.7818608E-02  0.8360783E-01
          1   -1    0    0  501    0  0.00000000000E+00  0.00000000000E+00  0.10034096547E+04  0.10034096547E+04  0.00000000000E+00 0. -1.
         -1   -1    0    0    0  501 -0.00000000000E+00 -0.00000000000E+00 -0.17128180774E+04  0.17128180774E+04  0.00000000000E+00 0.  1.
         23    2    1    2    0    0  0.51465692306E+03  0.37668401132E+03  0.82955986882E+03  0.10503387817E+04  0.90991139399E+02 0.  0.
         11    1    3    3    0    0  0.70824689266E+02  0.92230947108E+02  0.17056510600E+03  0.20643434694E+03  0.00000000000E+00 0. -1.
        -11    1    3    3    0    0  0.44383223380E+03  0.28445306421E+03  0.65899476282E+03  0.84390443471E+03  0.00000000000E+00 0.  1.
         22    1    1    2    0    0 -0.51465692306E+03 -0.37668401132E+03 -0.15389682915E+04  0.16658889504E+04  0.00000000000E+00 0.  1.
<mgrwt>
<rscale>  0 0.26219521E+04</rscale>
<asrwt>0</asrwt>
<pdfrwt beam="1">  1        1 0.15437072E+00 0.26219521E+04</pdfrwt>
<pdfrwt beam="2">  1       -1 0.26351047E+00 0.26219521E+04</pdfrwt>
<totfact> 0.75258540E-01</totfact>
</mgrwt>
</event>
<event>
 6    1  0.1603085E-006  0.3210198E+04  0.7818608E-02  0.8186129E-01
          2   -1    0    0  501    0  0.00000000000E+00  0.00000000000E+00  0.22417038936E+04  0.22417038936E+04  0.00000000000E+00 0. -1.
         -2   -1    0    0    0  501 -0.00000000000E+00 -0.00000000000E+00 -0.11492787159E+04  0.11492787159E+04  0.00000000000E+00 0.  1.
         23    2    1    2    0    0 -0.11422879741E+04 -0.48024451106E+03 -0.52882567887E+03  0.13504162796E+04  0.92254666020E+02 0.  0.
         11    1    3    3    0    0 -0.58052461623E+03 -0.19421986396E+03 -0.26485691486E+03  0.66699278179E+03  0.00000000000E+00 0.  1.
        -11    1    3    3    0    0 -0.56176335791E+03 -0.28602464710E+03 -0.26396876401E+03  0.68342349785E+03  0.00000000000E+00 0. -1.
         22    1    1    2    0    0  0.11422879741E+04  0.48024451106E+03  0.16212508566E+04  0.20405663298E+04  0.00000000000E+00 0. -1.
<mgrwt>
<rscale>  0 0.32101979E+04</rscale>
<asrwt>0</asrwt>
<pdfrwt beam="1">  1        2 0.34487752E+00 0.32101979E+04</pdfrwt>
<pdfrwt beam="2">  1       -2 0.17681211E+00 0.32101979E+04</pdfrwt>
<totfact> 0.78532043E-01</totfact>
</mgrwt>
</event>
<event>
 6    1  0.1603085E-006  0.2630968E+04  0.7818608E-02  0.8357758E-01
         -2   -1    0    0    0  501 -0.00000000000E+00  0.00000000000E+00  0.62126979030E+03  0.62126979030E+03  0.00000000000E+00 0.  1.
          2   -1    0    0  501    0  0.00000000000E+00 -0.00000000000E+00 -0.27854214014E+04  0.27854214014E+04  0.00000000000E+00 0. -1.
         23    2    1    2    0    0 -0.27737528299E+03  0.12594602526E+04 -0.14088954000E+04  0.19121714963E+04  0.90754657692E+02 0.  0.
         13    1    3    3    0    0 -0.43490934244E+02  0.87040894741E+02 -0.10800326895E+03  0.14536947693E+03  0.00000000000E+00 0. -1.
        -13    1    3    3    0    0 -0.23388434875E+03  0.11724193578E+04 -0.13008921310E+04  0.17668020194E+04  0.00000000000E+00 0.  1.
         22    1    1    2    0    0  0.27737528299E+03 -0.12594602526E+04 -0.75525621111E+03  0.14945196954E+04  0.00000000000E+00 0.  1.
<mgrwt>
<rscale>  0 0.26309680E+04</rscale>
<asrwt>0</asrwt>
<pdfrwt beam="1">  1        2 0.42852636E+00 0.26309680E+04</pdfrwt>
<pdfrwt beam="2">  1       -2 0.95579969E-01 0.26309680E+04</pdfrwt>
<totfact> 0.19126164E+00</totfact>
</mgrwt>
</event>
<event>
 6    1  0.1603085E-006  0.1496858E+04  0.7818608E-02  0.8886545E-01
         -2   -1    0    0    0  501 -0.00000000000E+00  0.00000000000E+00  0.26073127755E+03  0.26073127755E+03  0.00000000000E+00 0.  1.
          2   -1    0    0  501    0  0.00000000000E+00 -0.00000000000E+00 -0.21483641951E+04  0.21483641951E+04  0.00000000000E+00 0. -1.
         23    2    1    2    0    0  0.44250420460E+03  0.47663908836E+03 -0.36057528488E+03  0.74930638812E+03  0.91927882407E+02 0.  0.
         13    1    3    3    0    0  0.23914159021E+03  0.31939538568E+03 -0.20138180878E+03  0.44694154592E+03  0.00000000000E+00 0. -1.
        -13    1    3    3    0    0  0.20336261439E+03  0.15724370269E+03 -0.15919347611E+03  0.30236484220E+03  0.00000000000E+00 0.  1.
         22    1    1    2    0    0 -0.44250420460E+03 -0.47663908836E+03 -0.15270576327E+04  0.16597890845E+04  0.00000000000E+00 0. -1.
<mgrwt>
<rscale>  0 0.14968577E+04</rscale>
<asrwt>0</asrwt>
<pdfrwt beam="1">  1        2 0.33051756E+00 0.14968577E+04</pdfrwt>
<pdfrwt beam="2">  1       -2 0.40112505E-01 0.14968577E+04</pdfrwt>
<totfact> 0.31408317E+01</totfact>
</mgrwt>
</event>
<event>
 6    1  0.1603085E-006  0.1753387E+04  0.7818608E-02  0.8731488E-01
         -1   -1    0    0    0  501 -0.00000000000E+00  0.00000000000E+00  0.42989777251E+03  0.42989777251E+03  0.00000000000E+00 0.  1.
          1   -1    0    0  501    0  0.00000000000E+00 -0.00000000000E+00 -0.17878472779E+04  0.17878472779E+04  0.00000000000E+00 0. -1.
         23    2    1    2    0    0 -0.61953865507E+02  0.24754658561E+03 -0.17385897173E+04  0.17594825007E+04  0.89257333351E+02 0.  0.
         11    1    3    3    0    0 -0.28682213189E+02  0.23068574152E+03 -0.14556675707E+04  0.14741121589E+04  0.00000000000E+00 0. -1.
        -11    1    3    3    0    0 -0.33271652319E+02  0.16860844091E+02 -0.28292214663E+03  0.28537034177E+03  0.00000000000E+00 0.  1.
         22    1    1    2    0    0  0.61953865507E+02 -0.24754658561E+03  0.38064021195E+03  0.45826254970E+03  0.00000000000E+00 0.  1.
<mgrwt>
<rscale>  0 0.17533871E+04</rscale>
<asrwt>0</asrwt>
<pdfrwt beam="1">  1        1 0.27505343E+00 0.17533871E+04</pdfrwt>
<pdfrwt beam="2">  1       -1 0.66138118E-01 0.17533871E+04</pdfrwt>
<totfact> 0.91135906E+00</totfact>
</mgrwt>
</event>
<event>
 6    1  0.1603085E-006  0.1594467E+04  0.7818608E-02  0.8823954E-01
         -2   -1    0    0    0  501 -0.00000000000E+00  0.00000000000E+00  0.78854505540E+03  0.78854505540E+03  0.00000000000E+00 0.  1.
          2   -1    0    0  501    0  0.00000000000E+00 -0.00000000000E+00 -0.80601797768E+03  0.80601797768E+03  0.00000000000E+00 0. -1.
         23    2    1    2    0    0 -0.60338627817E+02  0.18479969234E+03 -0.77923195023E+03  0.80838971061E+03  0.92194444870E+02 0.  0.
         11    1    3    3    0    0 -0.59789234044E+02  0.91343002210E+02 -0.28087872768E+03  0.30134889451E+03  0.00000000000E+00 0. -1.
        -11    1    3    3    0    0 -0.54939377269E+00  0.93456690130E+02 -0.49835322255E+03  0.50704081610E+03  0.00000000000E+00 0.  1.
         22    1    1    2    0    0  0.60338627817E+02 -0.18479969234E+03  0.76175902795E+03  0.78617332247E+03  0.00000000000E+00 0.  1.
<mgrwt>
<rscale>  0 0.15944673E+04</rscale>
<asrwt>0</asrwt>
<pdfrwt beam="1">  1        2 0.12400277E+00 0.15944673E+04</pdfrwt>
<pdfrwt beam="2">  1       -2 0.12131462E+00 0.15944673E+04</pdfrwt>
<totfact> 0.16906046E+01</totfact>
</mgrwt>
</event>
<event>
 6    1  0.1603085E-006  0.1013176E+04  0.7818608E-02  0.9294211E-01
          4   -1    0    0  501    0  0.00000000000E+00  0.00000000000E+00  0.61908204407E+03  0.61908204407E+03  0.00000000000E+00 0. -1.
         -4   -1    0    0    0  501 -0.00000000000E+00 -0.00000000000E+00 -0.41453532412E+03  0.41453532412E+03  0.00000000000E+00 0.  1.
         23    2    1    2    0    0 -0.12731870884E+03  0.43621191054E+02  0.59713379305E+03  0.61860234208E+03  0.89371297967E+02 0.  0.
         13    1    3    3    0    0 -0.60111591630E+02  0.50622756935E+02  0.44845863389E+03  0.45529244808E+03  0.00000000000E+00 0.  1.
        -13    1    3    3    0    0 -0.67207117210E+02 -0.70015658811E+01  0.14867515916E+03  0.16330989400E+03  0.00000000000E+00 0. -1.
         22    1    1    2    0    0  0.12731870884E+03 -0.43621191054E+02 -0.39258707310E+03  0.41501502611E+03  0.00000000000E+00 0.  1.
<mgrwt>
<rscale>  0 0.10131759E+04</rscale>
<asrwt>0</asrwt>
<pdfrwt beam="1">  1        4 0.95243391E-01 0.10131759E+04</pdfrwt>
<pdfrwt beam="2">  1       -4 0.63774666E-01 0.10131759E+04</pdfrwt>
<totfact> 0.42225294E+00</totfact>
</mgrwt>
</event>
<event>
 6    1  0.1603085E-006  0.3322467E+04  0.7818608E-02  0.8157202E-01
         -2   -1    0    0    0  501 -0.00000000000E+00  0.00000000000E+00  0.11977353457E+04  0.11977353457E+04  0.00000000000E+00 0.  1.
          2   -1    0    0  501    0  0.00000000000E+00 -0.00000000000E+00 -0.23040952240E+04  0.23040952240E+04  0.00000000000E+00 0. -1.
         23    2    1    2    0    0  0.58921020014E+02 -0.16156460934E+04 -0.95048943557E+03  0.18776139644E+04  0.90664471810E+02 0.  0.
         13    1    3    3    0    0  0.31436590295E+02 -0.11521797131E+04 -0.63099878649E+03  0.13140265671E+04  0.00000000000E+00 0. -1.
        -13    1    3    3    0    0  0.27484429719E+02 -0.46346638033E+03 -0.31949064908E+03  0.56358739733E+03  0.00000000000E+00 0.  1.
         22    1    1    2    0    0 -0.58921020014E+02  0.16156460934E+04 -0.15587044274E+03  0.16242166052E+04  0.00000000000E+00 0. -1.
<mgrwt>
<rscale>  0 0.33224667E+04</rscale>
<asrwt>0</asrwt>
<pdfrwt beam="1">  1        2 0.35447619E+00 0.33224667E+04</pdfrwt>
<pdfrwt beam="2">  1       -2 0.18426698E+00 0.33224667E+04</pdfrwt>
<totfact> 0.63716542E-01</totfact>
</mgrwt>
</event>
<event>
 6    1  0.1603085E-006  0.2720582E+04  0.7818608E-02  0.8328358E-01
         -4   -1    0    0    0  501 -0.00000000000E+00  0.00000000000E+00  0.12176282946E+04  0.12176282946E+04  0.00000000000E+00 0.  1.
          4   -1    0    0  501    0  0.00000000000E+00 -0.00000000000E+00 -0.15196682953E+04  0.15196682953E+04  0.00000000000E+00 0. -1.
         23    2    1    2    0    0 -0.40594139457E+03 -0.10603399781E+04  0.59955359513E+03  0.12874758090E+04  0.94974525024E+02 0.  0.
         13    1    3    3    0    0 -0.73918311042E+02 -0.31045263899E+03  0.15959798890E+03  0.35681406338E+03  0.00000000000E+00 0.  1.
        -13    1    3    3    0    0 -0.33202308352E+03 -0.74988733906E+03  0.43995560623E+03  0.93066174561E+03  0.00000000000E+00 0. -1.
         22    1    1    2    0    0  0.40594139457E+03  0.10603399781E+04 -0.90159359578E+03  0.14498207809E+04  0.00000000000E+00 0.  1.
<mgrwt>
<rscale>  0 0.27205816E+04</rscale>
<asrwt>0</asrwt>
<pdfrwt beam="1">  1        4 0.23379512E+00 0.27205816E+04</pdfrwt>
<pdfrwt beam="2">  1       -4 0.18732743E+00 0.27205816E+04</pdfrwt>
<totfact> 0.22254327E-02</totfact>
</mgrwt>
</event>
<event>
 6    1  0.1603085E-006  0.2806557E+04  0.7818608E-02  0.8301235E-01
          2   -1    0    0  501    0  0.00000000000E+00  0.00000000000E+00  0.21362269916E+04  0.21362269916E+04  0.00000000000E+00 0. -1.
         -2   -1    0    0    0  501 -0.00000000000E+00 -0.00000000000E+00 -0.92180797186E+03  0.92180797186E+03  0.00000000000E+00 0.  1.
         23    2    1    2    0    0 -0.12876861578E+04 -0.11170906906E+03  0.11991102248E+04  0.17654217513E+04  0.90741785696E+02 0.  0.
         11    1    3    3    0    0 -0.10066669405E+04 -0.12370740965E+03  0.95110326802E+03  0.13904241363E+04  0.00000000000E+00 0.  1.
        -11    1    3    3    0    0 -0.28101921732E+03  0.11998340585E+02  0.24800695676E+03  0.37499761503E+03  0.00000000000E+00 0. -1.
         22    1    1    2    0    0  0.12876861578E+04  0.11170906906E+03  0.15308794958E+02  0.12926132122E+04  0.00000000000E+00 0.  1.
<mgrwt>
<rscale>  0 0.28065574E+04</rscale>
<asrwt>0</asrwt>
<pdfrwt beam="1">  1        2 0.32865031E+00 0.28065574E+04</pdfrwt>
<pdfrwt beam="2">  1       -2 0.14181661E+00 0.28065574E+04</pdfrwt>
<totfact> 0.16937540E+00</totfact>
</mgrwt>
</event>
<event>
 6    1  0.1603085E-006  0.3672432E+04  0.7818608E-02  0.8074099E-01
          2   -1    0    0  501    0  0.00000000000E+00  0.00000000000E+00  0.13410263630E+04  0.13410263630E+04  0.00000000000E+00 0. -1.
         -2   -1    0    0    0  501 -0.00000000000E+00 -0.00000000000E+00 -0.25142595274E+04  0.25142595274E+04  0.00000000000E+00 0.  1.
         23    2    1    2    0    0  0.73241662346E+03 -0.13579946707E+04 -0.16296617654E+04  0.22462766599E+04  0.96838664071E+02 0.  0.
         11    1    3    3    0    0  0.30009002715E+03 -0.48619248770E+03 -0.65091311669E+03  0.86609759552E+03  0.00000000000E+00 0.  1.
        -11    1    3    3    0    0  0.43232659631E+03 -0.87180218305E+03 -0.97874864875E+03  0.13801790644E+04  0.00000000000E+00 0. -1.
         22    1    1    2    0    0 -0.73241662346E+03  0.13579946707E+04  0.45642860102E+03  0.16090092305E+04  0.00000000000E+00 0.  1.
<mgrwt>
<rscale>  0 0.36724315E+04</rscale>
<asrwt>0</asrwt>
<pdfrwt beam="1">  1        2 0.20631175E+00 0.36724315E+04</pdfrwt>
<pdfrwt beam="2">  1       -2 0.38680915E+00 0.36724315E+04</pdfrwt>
<totfact> 0.11461351E-01</totfact>
</mgrwt>
</event>
<event>
 6    1  0.1603085E-006  0.1005305E+04  0.7818608E-02  0.9302745E-01
         -2   -1    0    0    0  501 -0.00000000000E+00  0.00000000000E+00  0.18903984277E+03  0.18903984277E+03  0.00000000000E+00 0.  1.
          2   -1    0    0  501    0  0.00000000000E+00 -0.00000000000E+00 -0.13365419416E+04  0.13365419416E+04  0.00000000000E+00 0. -1.
         23    2    1    2    0    0 -0.30834360694E+03 -0.18339868220E+03 -0.11037242790E+04  0.11641577203E+04  0.91351283439E+02 0.  0.
         11    1    3    3    0    0 -0.23609226196E+02 -0.31218480884E+02 -0.21669348732E+03  0.22020003760E+03  0.00000000000E+00 0. -1.
        -11    1    3    3    0    0 -0.28473438075E+03 -0.15218020131E+03 -0.88703079171E+03  0.94395768268E+03  0.00000000000E+00 0.  1.
         22    1    1    2    0    0  0.30834360694E+03  0.18339868220E+03 -0.43777819752E+02  0.36142406405E+03  0.00000000000E+00 0.  1.
<mgrwt>
<rscale>  0 0.10053053E+04</rscale>
<asrwt>0</asrwt>
<pdfrwt beam="1">  1        2 0.20562184E+00 0.10053053E+04</pdfrwt>
<pdfrwt beam="2">  1       -2 0.29083052E-01 0.10053053E+04</pdfrwt>
<totfact> 0.17048759E+02</totfact>
</mgrwt>
</event>
<event>
 6    1  0.1603085E-006  0.1296515E+04  0.7818608E-02  0.9032333E-01
         -2   -1    0    0    0  501 -0.00000000000E+00  0.00000000000E+00  0.14600543367E+03  0.14600543367E+03  0.00000000000E+00 0.  1.
          2   -1    0    0  501    0  0.00000000000E+00 -0.00000000000E+00 -0.28782345747E+04  0.28782345747E+04  0.00000000000E+00 0. -1.
         23    2    1    2    0    0  0.40621486227E+03  0.22451067578E+03 -0.32742280866E+03  0.57505462255E+03  0.89814060251E+02 0.  0.
         13    1    3    3    0    0  0.20617975383E+03  0.14109087382E+03 -0.22122555969E+03  0.33370267278E+03  0.00000000000E+00 0.  1.
        -13    1    3    3    0    0  0.20003510843E+03  0.83419801967E+02 -0.10619724897E+03  0.24135194977E+03  0.00000000000E+00 0. -1.
         22    1    1    2    0    0 -0.40621486227E+03 -0.22451067578E+03 -0.24048063324E+04  0.24491853858E+04  0.00000000000E+00 0. -1.
<mgrwt>
<rscale>  0 0.12965152E+04</rscale>
<asrwt>0</asrwt>
<pdfrwt beam="1">  1        2 0.44280530E+00 0.12965152E+04</pdfrwt>
<pdfrwt beam="2">  1       -2 0.22462375E-01 0.12965152E+04</pdfrwt>
<totfact> 0.35681988E+01</totfact>
</mgrwt>
</event>
<event>
 6    1  0.1766386E-006  0.2164436E+04  0.7818608E-02  0.8533378E-01
          2   -1    0    0  501    0  0.00000000000E+00  0.00000000000E+00  0.88444229522E+03  0.88444229522E+03  0.00000000000E+00 0. -1.
         -2   -1    0    0    0  501 -0.00000000000E+00 -0.00000000000E+00 -0.13242191051E+04  0.13242191051E+04  0.00000000000E+00 0.  1.
         23    2    1    2    0    0  0.44429547641E+03 -0.36375070380E+03  0.71400280380E+03  0.91989437646E+03  0.81808405001E+02 0.  0.
         11    1    3    3    0    0  0.11849794028E+03 -0.14320514350E+03  0.25055299397E+03  0.31197159769E+03  0.00000000000E+00 0. -1.
        -11    1    3    3    0    0  0.32579753613E+03 -0.22054556030E+03  0.46344980983E+03  0.60792277877E+03  0.00000000000E+00 0.  1.
         22    1    1    2    0    0 -0.44429547641E+03  0.36375070380E+03 -0.11537796137E+04  0.12887670239E+04  0.00000000000E+00 0.  1.
<mgrwt>
<rscale>  0 0.21644356E+04</rscale>
<asrwt>0</asrwt>
<pdfrwt beam="1">  1        2 0.13606804E+00 0.21644356E+04</pdfrwt>
<pdfrwt beam="2">  1       -2 0.20372602E+00 0.21644356E+04</pdfrwt>
<totfact> 0.34619150E+00</totfact>
</mgrwt>
</event>
<event>
 6    1  0.1603085E-006  0.3725793E+04  0.7818608E-02  0.8062270E-01
          1   -1    0    0  501    0  0.00000000000E+00  0.00000000000E+00  0.38489430232E+04  0.38489430232E+04  0.00000000000E+00 0. -1.
         -1   -1    0    0    0  501 -0.00000000000E+00 -0.00000000000E+00 -0.90164565115E+03  0.90164565115E+03  0.00000000000E+00 0.  1.
         23    2    1    2    0    0 -0.16815137248E+04  0.79377424250E+03  0.13489518204E+04  0.22985946986E+04  0.79376445978E+02 0.  0.
         11    1    3    3    0    0 -0.13759540863E+04  0.68003882964E+03  0.10974174568E+04  0.18868035223E+04  0.00000000000E+00 0.  1.
        -11    1    3    3    0    0 -0.30555963846E+03  0.11373541286E+03  0.25153436366E+03  0.41179117632E+03  0.00000000000E+00 0. -1.
         22    1    1    2    0    0  0.16815137248E+04 -0.79377424250E+03  0.15983455516E+04  0.24519939757E+04  0.00000000000E+00 0. -1.
<mgrwt>
<rscale>  0 0.37257927E+04</rscale>
<asrwt>0</asrwt>
<pdfrwt beam="1">  1        1 0.59214507E+00 0.37257927E+04</pdfrwt>
<pdfrwt beam="2">  1       -1 0.13871472E+00 0.37257927E+04</pdfrwt>
<totfact> 0.44441658E-02</totfact>
</mgrwt>
</event>
<event>
 6    1  0.1603085E-006  0.1730263E+04  0.7818608E-02  0.8744290E-01
         -1   -1    0    0    0  501 -0.00000000000E+00  0.00000000000E+00  0.62478770342E+03  0.62478770342E+03  0.00000000000E+00 0.  1.
          1   -1    0    0  501    0  0.00000000000E+00 -0.00000000000E+00 -0.11979305992E+04  0.11979305992E+04  0.00000000000E+00 0. -1.
         23    2    1    2    0    0  0.27154721364E+03 -0.17916176107E+03 -0.11290899486E+04  0.11785801565E+04  0.91489055484E+02 0.  0.
         13    1    3    3    0    0  0.61165944015E+02 -0.90832179409E+02 -0.38838295150E+03  0.40352580405E+03  0.00000000000E+00 0. -1.
        -13    1    3    3    0    0  0.21038126962E+03 -0.88329581660E+02 -0.74070699711E+03  0.77505435240E+03  0.00000000000E+00 0.  1.
         22    1    1    2    0    0 -0.27154721364E+03  0.17916176107E+03  0.55594705280E+03  0.64413814619E+03  0.00000000000E+00 0.  1.
<mgrwt>
<rscale>  0 0.17302628E+04</rscale>
<asrwt>0</asrwt>
<pdfrwt beam="1">  1        1 0.18429702E+00 0.17302628E+04</pdfrwt>
<pdfrwt beam="2">  1       -1 0.96121185E-01 0.17302628E+04</pdfrwt>
<totfact> 0.10615246E+01</totfact>
</mgrwt>
</event>
<event>
 6    1  0.1603085E-006  0.5260570E+04  0.7818608E-02  0.7789522E-01
         -1   -1    0    0    0  501 -0.00000000000E+00  0.00000000000E+00  0.23235613470E+04  0.23235613470E+04  0.00000000000E+00 0.  1.
          1   -1    0    0  501    0  0.00000000000E+00 -0.00000000000E+00 -0.29774984237E+04  0.29774984237E+04  0.00000000000E+00 0. -1.
         23    2    1    2    0    0  0.44467196949E+03  0.25701298826E+04 -0.66250180202E+03  0.26927319293E+04  0.92713706254E+02 0.  0.
         13    1    3    3    0    0  0.20201241466E+03  0.10105100135E+04 -0.22401888895E+03  0.10545728831E+04  0.00000000000E+00 0. -1.
        -13    1    3    3    0    0  0.24265955483E+03  0.15596198691E+04 -0.43848291307E+03  0.16381590462E+04  0.00000000000E+00 0.  1.
         22    1    1    2    0    0 -0.44467196949E+03 -0.25701298826E+04  0.85647253536E+01  0.26083278414E+04  0.00000000000E+00 0. -1.
<mgrwt>
<rscale>  0 0.52605704E+04</rscale>
<asrwt>0</asrwt>
<pdfrwt beam="1">  1        1 0.45807668E+00 0.52605704E+04</pdfrwt>
<pdfrwt beam="2">  1       -1 0.35747097E+00 0.52605704E+04</pdfrwt>
<totfact> 0.60852209E-03</totfact>
</mgrwt>
</event>
<event>
 6    1  0.1603085E-006  0.2103623E+04  0.7818608E-02  0.8559649E-01
         -1   -1    0    0    0  501 -0.00000000000E+00  0.00000000000E+00  0.60292680084E+03  0.60292680084E+03  0.00000000000E+00 0.  1.
          1   -1    0    0  501    0  0.00000000000E+00 -0.00000000000E+00 -0.18348943190E+04  0.18348943190E+04  0.00000000000E+00 0. -1.
         23    2    1    2    0    0 -0.55488519171E+02  0.40560146371E+03  0.50297920298E+03  0.65522984635E+03  0.93522990663E+02 0.  0.
         11    1    3    3    0    0 -0.74106316878E+02  0.25160765866E+03  0.34992384358E+03  0.43731551128E+03  0.00000000000E+00 0. -1.
        -11    1    3    3    0    0  0.18617797707E+02  0.15399380506E+03  0.15305535940E+03  0.21791433507E+03  0.00000000000E+00 0.  1.
         22    1    1    2    0    0  0.55488519171E+02 -0.40560146371E+03 -0.17349467211E+04  0.17825912735E+04  0.00000000000E+00 0. -1.
<mgrwt>
<rscale>  0 0.21036226E+04</rscale>
<asrwt>0</asrwt>
<pdfrwt beam="1">  1        1 0.28229143E+00 0.21036226E+04</pdfrwt>
<pdfrwt beam="2">  1       -1 0.92757970E-01 0.21036226E+04</pdfrwt>
<totfact> 0.40056952E+00</totfact>
</mgrwt>
</event>
<event>
 6    1  0.1603085E-006  0.1609462E+04  0.7818608E-02  0.8814756E-01
          2   -1    0    0  501    0  0.00000000000E+00  0.00000000000E+00  0.73695303273E+03  0.73695303273E+03  0.00000000000E+00 0. -1.
         -2   -1    0    0    0  501 -0.00000000000E+00 -0.00000000000E+00 -0.87874230219E+03  0.87874230219E+03  0.00000000000E+00 0.  1.
         23    2    1    2    0    0 -0.10356271126E+03  0.44211171614E+03 -0.73496819365E+03  0.86866840045E+03  0.90656161134E+02 0.  0.
         13    1    3    3    0    0 -0.30791145606E+02  0.12866406045E+03 -0.29759102255E+03  0.32567307503E+03  0.00000000000E+00 0.  1.
        -13    1    3    3    0    0 -0.72771565655E+02  0.31344765569E+03 -0.43737717110E+03  0.54299532542E+03  0.00000000000E+00 0. -1.
         22    1    1    2    0    0  0.10356271126E+03 -0.44211171614E+03  0.59317892419E+03  0.74702693447E+03  0.00000000000E+00 0. -1.
<mgrwt>
<rscale>  0 0.16094618E+04</rscale>
<asrwt>0</asrwt>
<pdfrwt beam="1">  1        2 0.11337739E+00 0.16094618E+04</pdfrwt>
<pdfrwt beam="2">  1       -2 0.13519112E+00 0.16094618E+04</pdfrwt>
<totfact> 0.14445263E+01</totfact>
</mgrwt>
</event>
<event>
 6    1  0.1603085E-006  0.2197714E+04  0.7818608E-02  0.8519380E-01
          2   -1    0    0  501    0  0.00000000000E+00  0.00000000000E+00  0.73255855433E+03  0.73255855433E+03  0.00000000000E+00 0. -1.
         -2   -1    0    0    0  501 -0.00000000000E+00 -0.00000000000E+00 -0.16483143441E+04  0.16483143441E+04  0.00000000000E+00 0.  1.
         23    2    1    2    0    0  0.59392547193E+03  0.83042818522E+03 -0.89338289631E+03  0.13596682258E+04  0.90588342672E+02 0.  0.
         11    1    3    3    0    0  0.33656955102E+03  0.39276454749E+03 -0.44918758805E+03  0.68506389607E+03  0.00000000000E+00 0. -1.
        -11    1    3    3    0    0  0.25735592092E+03  0.43766363773E+03 -0.44419530826E+03  0.67460432973E+03  0.00000000000E+00 0.  1.
         22    1    1    2    0    0 -0.59392547193E+03 -0.83042818522E+03 -0.22372893455E+02  0.10212046726E+04  0.00000000000E+00 0.  1.
<mgrwt>
<rscale>  0 0.21977141E+04</rscale>
<asrwt>0</asrwt>
<pdfrwt beam="1">  1        2 0.11270132E+00 0.21977141E+04</pdfrwt>
<pdfrwt beam="2">  1       -2 0.25358682E+00 0.21977141E+04</pdfrwt>
<totfact> 0.21583858E+00</totfact>
</mgrwt>
</event>
<event>
 6    1  0.1603085E-006  0.2908849E+04  0.7818608E-02  0.8270250E-01
         -2   -1    0    0    0  501 -0.00000000000E+00  0.00000000000E+00  0.67417520503E+03  0.67417520503E+03  0.00000000000E+00 0.  1.
          2   -1    0    0  501    0  0.00000000000E+00 -0.00000000000E+00 -0.31376862845E+04  0.31376862845E+04  0.00000000000E+00 0. -1.
         23    2    1    2    0    0 -0.11205968144E+03 -0.14267047311E+04 -0.90384306239E+03  0.16951167989E+04  0.91896238127E+02 0.  0.
         13    1    3    3    0    0  0.42293516731E+01 -0.50550761422E+03 -0.31519423069E+03  0.59573755842E+03  0.00000000000E+00 0.  1.
        -13    1    3    3    0    0 -0.11628903312E+03 -0.92119711686E+03 -0.58864883170E+03  0.10993792405E+04  0.00000000000E+00 0. -1.
         22    1    1    2    0    0  0.11205968144E+03  0.14267047311E+04 -0.15596680171E+04  0.21167446907E+04  0.00000000000E+00 0. -1.
<mgrwt>
<rscale>  0 0.29088488E+04</rscale>
<asrwt>0</asrwt>
<pdfrwt beam="1">  1        2 0.48272095E+00 0.29088488E+04</pdfrwt>
<pdfrwt beam="2">  1       -2 0.10371927E+00 0.29088488E+04</pdfrwt>
<totfact> 0.92875323E-01</totfact>
</mgrwt>
</event>
<event>
 6    1  0.1603085E-006  0.1886781E+04  0.7818608E-02  0.8661464E-01
         -1   -1    0    0    0  501 -0.00000000000E+00  0.00000000000E+00  0.37527858335E+03  0.37527858335E+03  0.00000000000E+00 0.  1.
          1   -1    0    0  501    0  0.00000000000E+00 -0.00000000000E+00 -0.23715338732E+04  0.23715338732E+04  0.00000000000E+00 0. -1.
         23    2    1    2    0    0 -0.14619090035E+03 -0.72604709617E+03 -0.15502763037E+03  0.76221288503E+03  0.91753750468E+02 0.  0.
         11    1    3    3    0    0 -0.72952806331E+02 -0.42137279983E+03 -0.13404652733E+03  0.44815803003E+03  0.00000000000E+00 0. -1.
        -11    1    3    3    0    0 -0.73238094021E+02 -0.30467429634E+03 -0.20981103040E+02  0.31405485501E+03  0.00000000000E+00 0.  1.
         22    1    1    2    0    0  0.14619090035E+03  0.72604709617E+03 -0.18412276595E+04  0.19845995715E+04  0.00000000000E+00 0. -1.
<mgrwt>
<rscale>  0 0.18867813E+04</rscale>
<asrwt>0</asrwt>
<pdfrwt beam="1">  1        1 0.36485137E+00 0.18867813E+04</pdfrwt>
<pdfrwt beam="2">  1       -1 0.57735166E-01 0.18867813E+04</pdfrwt>
<totfact> 0.47332749E+00</totfact>
</mgrwt>
</event>
<event>
 6    1  0.1603085E-006  0.2219888E+04  0.7818608E-02  0.8510196E-01
         -1   -1    0    0    0  501 -0.00000000000E+00  0.00000000000E+00  0.82882394439E+03  0.82882394439E+03  0.00000000000E+00 0. -1.
          1   -1    0    0  501    0  0.00000000000E+00 -0.00000000000E+00 -0.14864136576E+04  0.14864136576E+04  0.00000000000E+00 0.  1.
         23    2    1    2    0    0  0.74241721901E+03 -0.80500255691E+03 -0.15398136053E+03  0.11099020402E+04  0.94656408405E+02 0.  0.
         11    1    3    3    0    0  0.32005625146E+03 -0.31066946315E+03 -0.22915008885E+02  0.44662805226E+03  0.00000000000E+00 0.  1.
        -11    1    3    3    0    0  0.42236096756E+03 -0.49433309376E+03 -0.13106635165E+03  0.66327398791E+03  0.00000000000E+00 0. -1.
         22    1    1    2    0    0 -0.74241721901E+03  0.80500255691E+03 -0.50360835269E+03  0.12053355618E+04  0.00000000000E+00 0. -1.
<mgrwt>
<rscale>  0 0.22198876E+04</rscale>
<asrwt>0</asrwt>
<pdfrwt beam="1">  1        1 0.22867902E+00 0.22198876E+04</pdfrwt>
<pdfrwt beam="2">  1       -1 0.12751138E+00 0.22198876E+04</pdfrwt>
<totfact> 0.32398630E+00</totfact>
</mgrwt>
</event>
<event>
 6    1  0.1603085E-006  0.2813105E+04  0.7818608E-02  0.8299211E-01
         -1   -1    0    0    0  501 -0.00000000000E+00  0.00000000000E+00  0.18149977766E+04  0.18149977766E+04  0.00000000000E+00 0.  1.
          1   -1    0    0  501    0  0.00000000000E+00 -0.00000000000E+00 -0.10900233174E+04  0.10900233174E+04  0.00000000000E+00 0. -1.
         23    2    1    2    0    0  0.53439868749E+03 -0.12330507901E+04  0.78627022850E+03  0.15597503482E+04  0.92758117170E+02 0.  0.
         13    1    3    3    0    0  0.36363637446E+03 -0.93764612276E+03  0.59788210233E+03  0.11699891763E+04  0.00000000000E+00 0. -1.
        -13    1    3    3    0    0  0.17076231303E+03 -0.29540466735E+03  0.18838812618E+03  0.38976117191E+03  0.00000000000E+00 0.  1.
         22    1    1    2    0    0 -0.53439868749E+03  0.12330507901E+04 -0.61295769345E+02  0.13452707458E+04  0.00000000000E+00 0. -1.
<mgrwt>
<rscale>  0 0.28131050E+04</rscale>
<asrwt>0</asrwt>
<pdfrwt beam="1">  1        1 0.16769590E+00 0.28131050E+04</pdfrwt>
<pdfrwt beam="2">  1       -1 0.27923043E+00 0.28131050E+04</pdfrwt>
<totfact> 0.50221184E-01</totfact>
</mgrwt>
</event>
<event>
 6    1  0.1603085E-006  0.1063348E+04  0.7818608E-02  0.9241671E-01
          2   -1    0    0  501    0  0.00000000000E+00  0.00000000000E+00  0.11729064858E+04  0.11729064858E+04  0.00000000000E+00 0. -1.
         -2   -1    0    0    0  501 -0.00000000000E+00 -0.00000000000E+00 -0.24100575839E+03  0.24100575839E+03  0.00000000000E+00 0.  1.
         23    2    1    2    0    0  0.73076727407E+02  0.34710295582E+03  0.98870665433E+03  0.10546803089E+04  0.94810524575E+02 0.  0.
         13    1    3    3    0    0  0.21201106128E+02  0.13573303251E+03  0.52110463185E+03  0.53890906502E+03  0.00000000000E+00 0. -1.
        -13    1    3    3    0    0  0.51875621279E+02  0.21136992331E+03  0.46760202248E+03  0.51577124386E+03  0.00000000000E+00 0.  1.
         22    1    1    2    0    0 -0.73076727407E+02 -0.34710295582E+03 -0.56805926907E+02  0.35923193533E+03  0.00000000000E+00 0.  1.
<mgrwt>
<rscale>  0 0.10633480E+04</rscale>
<asrwt>0</asrwt>
<pdfrwt beam="1">  1        2 0.18044715E+00 0.10633480E+04</pdfrwt>
<pdfrwt beam="2">  1       -2 0.37077810E-01 0.10633480E+04</pdfrwt>
<totfact> 0.13400117E+02</totfact>
</mgrwt>
</event>
<event>
 6    1  0.1603085E-006  0.3576944E+04  0.7818608E-02  0.8095794E-01
          1   -1    0    0  501    0  0.00000000000E+00  0.00000000000E+00  0.19717096173E+04  0.19717096173E+04  0.00000000000E+00 0. -1.
         -1   -1    0    0    0  501 -0.00000000000E+00 -0.00000000000E+00 -0.16222629064E+04  0.16222629064E+04  0.00000000000E+00 0.  1.
         23    2    1    2    0    0 -0.25172139898E+03  0.69538115120E+03  0.18097265295E+04  0.19571048574E+04  0.90723223494E+02 0.  0.
         11    1    3    3    0    0 -0.15214748581E+03  0.47185914178E+03  0.13101636976E+04  0.14008314751E+04  0.00000000000E+00 0. -1.
        -11    1    3    3    0    0 -0.99573913169E+02  0.22352200943E+03  0.49956283183E+03  0.55627338228E+03  0.00000000000E+00 0.  1.
         22    1    1    2    0    0  0.25172139898E+03 -0.69538115120E+03 -0.14602798186E+04  0.16368676662E+04  0.00000000000E+00 0.  1.
<mgrwt>
<rscale>  0 0.35769436E+04</rscale>
<asrwt>0</asrwt>
<pdfrwt beam="1">  1        1 0.30333994E+00 0.35769436E+04</pdfrwt>
<pdfrwt beam="2">  1       -1 0.24957891E+00 0.35769436E+04</pdfrwt>
<totfact> 0.17716074E-01</totfact>
</mgrwt>
</event>
<event>
 6    1  0.1603085E-006  0.1044190E+04  0.7818608E-02  0.9261363E-01
         -1   -1    0    0    0  501 -0.00000000000E+00  0.00000000000E+00  0.10134712624E+03  0.10134712624E+03  0.00000000000E+00 0.  1.
          1   -1    0    0  501    0  0.00000000000E+00 -0.00000000000E+00 -0.26896000576E+04  0.26896000576E+04  0.00000000000E+00 0. -1.
         23    2    1    2    0    0  0.15714719771E+03  0.48151207225E+03 -0.10118063417E+04  0.11351292689E+04  0.90649139491E+02 0.  0.
         13    1    3    3    0    0  0.84201556356E+02  0.29887291017E+03 -0.70962819926E+03  0.77458834210E+03  0.00000000000E+00 0. -1.
        -13    1    3    3    0    0  0.72945641353E+02  0.18263916207E+03 -0.30217814246E+03  0.36054092679E+03  0.00000000000E+00 0.  1.
         22    1    1    2    0    0 -0.15714719771E+03 -0.48151207225E+03 -0.15764465896E+04  0.16558179149E+04  0.00000000000E+00 0. -1.
<mgrwt>
<rscale>  0 0.10441901E+04</rscale>
<asrwt>0</asrwt>
<pdfrwt beam="1">  1        1 0.41378456E+00 0.10441901E+04</pdfrwt>
<pdfrwt beam="2">  1       -1 0.15591868E-01 0.10441901E+04</pdfrwt>
<totfact> 0.31267058E+01</totfact>
</mgrwt>
</event>
<event>
 6    1  0.1603085E-006  0.1998617E+04  0.7818608E-02  0.8607268E-01
         -4   -1    0    0    0  501 -0.00000000000E+00  0.00000000000E+00  0.53863374344E+03  0.53863374344E+03  0.00000000000E+00 0.  1.
          4   -1    0    0  501    0  0.00000000000E+00 -0.00000000000E+00 -0.18539818319E+04  0.18539818319E+04  0.00000000000E+00 0. -1.
         23    2    1    2    0    0  0.60262558094E+03  0.21966834566E+03  0.25511837589E+03  0.69621447637E+03  0.90650088299E+02 0.  0.
         13    1    3    3    0    0  0.18383989017E+03  0.24908176128E+02  0.61976306038E+02  0.19559801881E+03  0.00000000000E+00 0.  1.
        -13    1    3    3    0    0  0.41878569077E+03  0.19476016953E+03  0.19314206986E+03  0.50061645756E+03  0.00000000000E+00 0. -1.
         22    1    1    2    0    0 -0.60262558094E+03 -0.21966834566E+03 -0.15704664643E+04  0.16964010989E+04  0.00000000000E+00 0. -1.
<mgrwt>
<rscale>  0 0.19986167E+04</rscale>
<asrwt>0</asrwt>
<pdfrwt beam="1">  1        4 0.28522798E+00 0.19986167E+04</pdfrwt>
<pdfrwt beam="2">  1       -4 0.82866728E-01 0.19986167E+04</pdfrwt>
<totfact> 0.90974593E-02</totfact>
</mgrwt>
</event>
<event>
 6    1  0.1603085E-006  0.4606290E+04  0.7818608E-02  0.7892288E-01
         -2   -1    0    0    0  501 -0.00000000000E+00  0.00000000000E+00  0.12788267371E+04  0.12788267371E+04  0.00000000000E+00 0.  1.
          2   -1    0    0  501    0  0.00000000000E+00 -0.00000000000E+00 -0.41479254104E+04  0.41479254104E+04  0.00000000000E+00 0. -1.
         23    2    1    2    0    0 -0.99387903334E+03 -0.51460745105E+03  0.93519086548E+03  0.14612464728E+04  0.89682426937E+02 0.  0.
         13    1    3    3    0    0 -0.96355265382E+03 -0.51183395075E+03  0.89734435239E+03  0.14126693161E+04  0.00000000000E+00 0.  1.
        -13    1    3    3    0    0 -0.30326379525E+02 -0.27735003037E+01  0.37846513095E+02  0.48577156694E+02  0.00000000000E+00 0. -1.
         22    1    1    2    0    0  0.99387903334E+03  0.51460745105E+03 -0.38042895387E+04  0.39655056747E+04  0.00000000000E+00 0. -1.
<mgrwt>
<rscale>  0 0.46062904E+04</rscale>
<asrwt>0</asrwt>
<pdfrwt beam="1">  1        2 0.63814236E+00 0.46062904E+04</pdfrwt>
<pdfrwt beam="2">  1       -2 0.19674258E+00 0.46062904E+04</pdfrwt>
<totfact> 0.26918489E-02</totfact>
</mgrwt>
</event>
<event>
 6    1  0.1603085E-006  0.2728753E+04  0.7818608E-02  0.8325735E-01
          1   -1    0    0  501    0  0.00000000000E+00  0.00000000000E+00  0.95221922817E+03  0.95221922817E+03  0.00000000000E+00 0. -1.
         -1   -1    0    0    0  501 -0.00000000000E+00 -0.00000000000E+00 -0.19549315549E+04  0.19549315549E+04  0.00000000000E+00 0.  1.
         23    2    1    2    0    0  0.53378060632E+02 -0.12631016893E+04 -0.10442954151E+04  0.16422380398E+04  0.90098671708E+02 0.  0.
         11    1    3    3    0    0  0.58275794089E+02 -0.44695138542E+03 -0.34879997079E+03  0.56993247734E+03  0.00000000000E+00 0. -1.
        -11    1    3    3    0    0 -0.48977334572E+01 -0.81615030383E+03 -0.69549544435E+03  0.10723055625E+04  0.00000000000E+00 0.  1.
         22    1    1    2    0    0 -0.53378060632E+02  0.12631016893E+04  0.41583088412E+02  0.12649127432E+04  0.00000000000E+00 0. -1.
<mgrwt>
<rscale>  0 0.27287531E+04</rscale>
<asrwt>0</asrwt>
<pdfrwt beam="1">  1        1 0.14649526E+00 0.27287531E+04</pdfrwt>
<pdfrwt beam="2">  1       -1 0.30075870E+00 0.27287531E+04</pdfrwt>
<totfact> 0.46946129E-01</totfact>
</mgrwt>
</event>
<event>
 6    1  0.1603085E-006  0.1575392E+04  0.7818608E-02  0.8835810E-01
          2   -1    0    0  501    0  0.00000000000E+00  0.00000000000E+00  0.20020536019E+04  0.20020536019E+04  0.00000000000E+00 0. -1.
         -2   -1    0    0    0  501 -0.00000000000E+00 -0.00000000000E+00 -0.30991415909E+03  0.30991415909E+03  0.00000000000E+00 0.  1.
         23    2    1    2    0    0 -0.40234469828E+03  0.35406783253E+03  0.71726732886E+01  0.54381666431E+03  0.91868552142E+02 0.  0.
         11    1    3    3    0    0 -0.30061936192E+03  0.28439914502E+03  0.41299947685E+02  0.41588527280E+03  0.00000000000E+00 0.  1.
        -11    1    3    3    0    0 -0.10172533636E+03  0.69668687506E+02 -0.34127274397E+02  0.12793139151E+03  0.00000000000E+00 0. -1.
         22    1    1    2    0    0  0.40234469828E+03 -0.35406783253E+03  0.16849667695E+04  0.17681510967E+04  0.00000000000E+00 0. -1.
<mgrwt>
<rscale>  0 0.15753917E+04</rscale>
<asrwt>0</asrwt>
<pdfrwt beam="1">  1        2 0.30800824E+00 0.15753917E+04</pdfrwt>
<pdfrwt beam="2">  1       -2 0.47679103E-01 0.15753917E+04</pdfrwt>
<totfact> 0.26692642E+01</totfact>
</mgrwt>
</event>
<event>
 6    1  0.1603085E-006  0.1681098E+04  0.7818608E-02  0.8772219E-01
          2   -1    0    0  501    0  0.00000000000E+00  0.00000000000E+00  0.35224372967E+03  0.35224372967E+03  0.00000000000E+00 0. -1.
         -2   -1    0    0    0  501 -0.00000000000E+00 -0.00000000000E+00 -0.20057765786E+04  0.20057765786E+04  0.00000000000E+00 0.  1.
         23    2    1    2    0    0 -0.57426058048E+03 -0.31765796086E+03 -0.15605170705E+04  0.16951977608E+04  0.88318325298E+02 0.  0.
         13    1    3    3    0    0 -0.15659225628E+03 -0.78715688719E+02 -0.52158020516E+03  0.55023922505E+03  0.00000000000E+00 0. -1.
        -13    1    3    3    0    0 -0.41766832420E+03 -0.23894227215E+03 -0.10389368653E+04  0.11449585357E+04  0.00000000000E+00 0.  1.
         22    1    1    2    0    0  0.57426058048E+03  0.31765796086E+03 -0.93015778455E+02  0.66282254747E+03  0.00000000000E+00 0. -1.
<mgrwt>
<rscale>  0 0.16810975E+04</rscale>
<asrwt>0</asrwt>
<pdfrwt beam="1">  1        2 0.54191343E-01 0.16810975E+04</pdfrwt>
<pdfrwt beam="2">  1       -2 0.30858101E+00 0.16810975E+04</pdfrwt>
<totfact> 0.24685928E+00</totfact>
</mgrwt>
</event>
<event>
 6    1  0.1705485E-006  0.4320228E+04  0.7818608E-02  0.7942888E-01
          2   -1    0    0  501    0  0.00000000000E+00  0.00000000000E+00  0.18829030275E+04  0.18829030275E+04  0.00000000000E+00 0. -1.
         -2   -1    0    0    0  501 -0.00000000000E+00 -0.00000000000E+00 -0.24781371061E+04  0.24781371061E+04  0.00000000000E+00 0.  1.
         23    2    1    2    0    0 -0.11303901579E+04  0.13139885377E+04  0.10014783388E+04  0.20043818363E+04  0.10119237266E+03 0.  0.
         13    1    3    3    0    0 -0.35948025292E+03  0.38847171583E+03  0.25722501790E+03  0.58847347949E+03  0.00000000000E+00 0. -1.
        -13    1    3    3    0    0 -0.77090990497E+03  0.92551682192E+03  0.74425332095E+03  0.14159083568E+04  0.00000000000E+00 0.  1.
         22    1    1    2    0    0  0.11303901579E+04 -0.13139885377E+04 -0.15967124175E+04  0.23566582973E+04  0.00000000000E+00 0.  1.
<mgrwt>
<rscale>  0 0.43202277E+04</rscale>
<asrwt>0</asrwt>
<pdfrwt beam="1">  1        2 0.28967739E+00 0.43202277E+04</pdfrwt>
<pdfrwt beam="2">  1       -2 0.38125186E+00 0.43202277E+04</pdfrwt>
<totfact> 0.58628491E-02</totfact>
</mgrwt>
</event>
<event>
 6    1  0.1603085E-006  0.1649572E+04  0.7818608E-02  0.8790660E-01
          2   -1    0    0  501    0  0.00000000000E+00  0.00000000000E+00  0.86458283651E+03  0.86458283651E+03  0.00000000000E+00 0. -1.
         -2   -1    0    0    0  501 -0.00000000000E+00 -0.00000000000E+00 -0.78682115197E+03  0.78682115197E+03  0.00000000000E+00 0.  1.
         23    2    1    2    0    0 -0.16613496045E+03  0.56153060014E+03 -0.53881626142E+03  0.80105946806E+03  0.91955792827E+02 0.  0.
         13    1    3    3    0    0 -0.92968883454E+02  0.43946773567E+03 -0.38623817086E+03  0.59241457495E+03  0.00000000000E+00 0.  1.
        -13    1    3    3    0    0 -0.73166076991E+02  0.12206286447E+03 -0.15257809056E+03  0.20864489312E+03  0.00000000000E+00 0. -1.
         22    1    1    2    0    0  0.16613496045E+03 -0.56153060014E+03  0.61657794595E+03  0.85034452042E+03  0.00000000000E+00 0. -1.
<mgrwt>
<rscale>  0 0.16495721E+04</rscale>
<asrwt>0</asrwt>
<pdfrwt beam="1">  1        2 0.13301274E+00 0.16495721E+04</pdfrwt>
<pdfrwt beam="2">  1       -2 0.12104941E+00 0.16495721E+04</pdfrwt>
<totfact> 0.15390192E+01</totfact>
</mgrwt>
</event>
<event>
 6    1  0.1603085E-006  0.2033248E+04  0.7818608E-02  0.8591232E-01
          1   -1    0    0  501    0  0.00000000000E+00  0.00000000000E+00  0.18899115848E+04  0.18899115848E+04  0.00000000000E+00 0. -1.
         -1   -1    0    0    0  501 -0.00000000000E+00 -0.00000000000E+00 -0.54686382169E+03  0.54686382169E+03  0.00000000000E+00 0.  1.
         23    2    1    2    0    0 -0.34419696992E+03  0.44631845589E+03 -0.33819578079E+03  0.66357164716E+03  0.90990255475E+02 0.  0.
         11    1    3    3    0    0 -0.19369552186E+03  0.27933092215E+03 -0.15504983479E+03  0.37360964994E+03  0.00000000000E+00 0.  1.
        -11    1    3    3    0    0 -0.15050144805E+03  0.16698753374E+03 -0.18314594601E+03  0.28996199722E+03  0.00000000000E+00 0. -1.
         22    1    1    2    0    0  0.34419696992E+03 -0.44631845589E+03  0.16812435439E+04  0.17732037593E+04  0.00000000000E+00 0. -1.
<mgrwt>
<rscale>  0 0.20332479E+04</rscale>
<asrwt>0</asrwt>
<pdfrwt beam="1">  1        1 0.29075563E+00 0.20332479E+04</pdfrwt>
<pdfrwt beam="2">  1       -1 0.84132896E-01 0.20332479E+04</pdfrwt>
<totfact> 0.45826754E+00</totfact>
</mgrwt>
</event>
<event>
 6    1  0.1603085E-006  0.1937433E+04  0.7818608E-02  0.8636445E-01
          2   -1    0    0  501    0  0.00000000000E+00  0.00000000000E+00  0.18584075079E+04  0.18584075079E+04  0.00000000000E+00 0. -1.
         -2   -1    0    0    0  501 -0.00000000000E+00 -0.00000000000E+00 -0.50495478905E+03  0.50495478905E+03  0.00000000000E+00 0.  1.
         23    2    1    2    0    0 -0.72645397814E+03  0.19213489849E+03 -0.63462641647E+02  0.75952304678E+03  0.90534800654E+02 0.  0.
         13    1    3    3    0    0 -0.22969905148E+03  0.79110678454E+02 -0.59221949126E+02  0.25005477991E+03  0.00000000000E+00 0.  1.
        -13    1    3    3    0    0 -0.49675492665E+03  0.11302422003E+03 -0.42406925215E+01  0.50946826686E+03  0.00000000000E+00 0. -1.
         22    1    1    2    0    0  0.72645397814E+03 -0.19213489849E+03  0.14169153605E+04  0.16038392502E+04  0.00000000000E+00 0. -1.
<mgrwt>
<rscale>  0 0.19374331E+04</rscale>
<asrwt>0</asrwt>
<pdfrwt beam="1">  1        2 0.28590884E+00 0.19374331E+04</pdfrwt>
<pdfrwt beam="2">  1       -2 0.77685353E-01 0.19374331E+04</pdfrwt>
<totfact> 0.11039162E+01</totfact>
</mgrwt>
</event>
<event>
 6    1  0.1603085E-006  0.4564737E+04  0.7818608E-02  0.7899400E-01
          1   -1    0    0  501    0  0.00000000000E+00  0.00000000000E+00  0.28407460551E+04  0.28407460551E+04  0.00000000000E+00 0. -1.
         -1   -1    0    0    0  501 -0.00000000000E+00 -0.00000000000E+00 -0.18337459396E+04  0.18337459396E+04  0.00000000000E+00 0.  1.
         23    2    1    2    0    0 -0.11961972148E+04 -0.19331953421E+04  0.30726116949E+03  0.22958859743E+04  0.92471472733E+02 0.  0.
         13    1    3    3    0    0 -0.55043383208E+03 -0.87999762886E+03  0.94108547558E+02  0.10422234161E+04  0.00000000000E+00 0.  1.
        -13    1    3    3    0    0 -0.64576338272E+03 -0.10531977133E+04  0.21315262193E+03  0.12536625582E+04  0.00000000000E+00 0. -1.
         22    1    1    2    0    0  0.11961972148E+04  0.19331953421E+04  0.69973894601E+03  0.23786060204E+04  0.00000000000E+00 0. -1.
<mgrwt>
<rscale>  0 0.45647373E+04</rscale>
<asrwt>0</asrwt>
<pdfrwt beam="1">  1        1 0.43703786E+00 0.45647373E+04</pdfrwt>
<pdfrwt beam="2">  1       -1 0.28211476E+00 0.45647373E+04</pdfrwt>
<totfact> 0.25120808E-02</totfact>
</mgrwt>
</event>
<event>
 6    1  0.1603085E-006  0.3390530E+04  0.7818608E-02  0.8140235E-01
          1   -1    0    0  501    0  0.00000000000E+00  0.00000000000E+00  0.16191649803E+04  0.16191649803E+04  0.00000000000E+00 0. -1.
         -1   -1    0    0    0  501 -0.00000000000E+00 -0.00000000000E+00 -0.17749412090E+04  0.17749412090E+04  0.00000000000E+00 0.  1.
         23    2    1    2    0    0  0.14024528240E+04  0.89383062357E+03 -0.40000699665E+03  0.17131969784E+04  0.96079040702E+02 0.  0.
         13    1    3    3    0    0  0.12258885452E+04  0.75871473110E+03 -0.31889132009E+03  0.14765305424E+04  0.00000000000E+00 0. -1.
        -13    1    3    3    0    0  0.17656427880E+03  0.13511589247E+03 -0.81115676558E+02  0.23666643601E+03  0.00000000000E+00 0.  1.
         22    1    1    2    0    0 -0.14024528240E+04 -0.89383062357E+03  0.24423076799E+03  0.16809092109E+04  0.00000000000E+00 0.  1.
<mgrwt>
<rscale>  0 0.33905295E+04</rscale>
<asrwt>0</asrwt>
<pdfrwt beam="1">  1        1 0.24910230E+00 0.33905295E+04</pdfrwt>
<pdfrwt beam="2">  1       -1 0.27306788E+00 0.33905295E+04</pdfrwt>
<totfact> 0.21998103E-01</totfact>
</mgrwt>
</event>
<event>
 6    1  0.1603085E-006  0.1168328E+04  0.7818608E-02  0.9141040E-01
         -2   -1    0    0    0  501 -0.00000000000E+00  0.00000000000E+00  0.41677124865E+03  0.41677124865E+03  0.00000000000E+00 0.  1.
          2   -1    0    0  501    0  0.00000000000E+00 -0.00000000000E+00 -0.81878832412E+03  0.81878832412E+03  0.00000000000E+00 0. -1.
         23    2    1    2    0    0  0.19848914318E+03  0.49780911278E+03  0.34276546908E+02  0.54449953366E+03  0.89961145800E+02 0.  0.
         13    1    3    3    0    0  0.10839480382E+03  0.16233462610E+03 -0.23571262198E+01  0.19521147602E+03  0.00000000000E+00 0. -1.
        -13    1    3    3    0    0  0.90094339363E+02  0.33547448668E+03  0.36633673128E+02  0.34928805764E+03  0.00000000000E+00 0.  1.
         22    1    1    2    0    0 -0.19848914318E+03 -0.49780911278E+03 -0.43629362238E+03  0.69106003911E+03  0.00000000000E+00 0. -1.
<mgrwt>
<rscale>  0 0.11683277E+04</rscale>
<asrwt>0</asrwt>
<pdfrwt beam="1">  1        2 0.12596743E+00 0.11683277E+04</pdfrwt>
<pdfrwt beam="2">  1       -2 0.64118653E-01 0.11683277E+04</pdfrwt>
<totfact> 0.74251912E+01</totfact>
</mgrwt>
</event>
<event>
 6    1  0.1603085E-006  0.1996301E+04  0.7818608E-02  0.8608352E-01
          1   -1    0    0  501    0  0.00000000000E+00  0.00000000000E+00  0.10821907152E+04  0.10821907152E+04  0.00000000000E+00 0. -1.
         -1   -1    0    0    0  501 -0.00000000000E+00 -0.00000000000E+00 -0.92063660929E+03  0.92063660929E+03  0.00000000000E+00 0.  1.
         23    2    1    2    0    0  0.93404126263E+03  0.23986199785E+03 -0.16955366161E+03  0.98321994321E+03  0.89477115756E+02 0.  0.
         13    1    3    3    0    0  0.90125748345E+03  0.23503164808E+03 -0.14649680054E+03  0.94285006212E+03  0.00000000000E+00 0.  1.
        -13    1    3    3    0    0  0.32783779185E+02  0.48303497720E+01 -0.23056861076E+02  0.40369881090E+02  0.00000000000E+00 0. -1.
         22    1    1    2    0    0 -0.93404126263E+03 -0.23986199785E+03  0.33110776756E+03  0.10196073813E+04  0.00000000000E+00 0.  1.
<mgrwt>
<rscale>  0 0.19963010E+04</rscale>
<asrwt>0</asrwt>
<pdfrwt beam="1">  1        1 0.16649088E+00 0.19963010E+04</pdfrwt>
<pdfrwt beam="2">  1       -1 0.14163640E+00 0.19963010E+04</pdfrwt>
<totfact> 0.49344486E+00</totfact>
</mgrwt>
</event>
<event>
 6    1  0.1603085E-006  0.3831822E+04  0.7818608E-02  0.8039360E-01
         -1   -1    0    0    0  501 -0.00000000000E+00  0.00000000000E+00  0.15280548465E+04  0.15280548465E+04  0.00000000000E+00 0.  1.
          1   -1    0    0  501    0  0.00000000000E+00 -0.00000000000E+00 -0.24022135765E+04  0.24022135765E+04  0.00000000000E+00 0. -1.
         23    2    1    2    0    0  0.46397257268E+03  0.18464155297E+04 -0.64796792751E+03  0.20130613045E+04  0.89624350261E+02 0.  0.
         13    1    3    3    0    0  0.40139547875E+03  0.14572932316E+04 -0.52688421017E+03  0.16007588401E+04  0.00000000000E+00 0. -1.
        -13    1    3    3    0    0  0.62577093928E+02  0.38912229808E+03 -0.12108371733E+03  0.41230246440E+03  0.00000000000E+00 0.  1.
         22    1    1    2    0    0 -0.46397257268E+03 -0.18464155297E+04 -0.22619080249E+03  0.19172071186E+04  0.00000000000E+00 0. -1.
<mgrwt>
<rscale>  0 0.38318216E+04</rscale>
<asrwt>0</asrwt>
<pdfrwt beam="1">  1        1 0.36957132E+00 0.38318216E+04</pdfrwt>
<pdfrwt beam="2">  1       -1 0.23508536E+00 0.38318216E+04</pdfrwt>
<totfact> 0.10974270E-01</totfact>
</mgrwt>
</event>
<event>
 6    1  0.1603085E-006  0.3947830E+04  0.7818608E-02  0.8015154E-01
          1   -1    0    0  501    0  0.00000000000E+00  0.00000000000E+00  0.17501299216E+04  0.17501299216E+04  0.00000000000E+00 0. -1.
         -1   -1    0    0    0  501 -0.00000000000E+00 -0.00000000000E+00 -0.22263145302E+04  0.22263145302E+04  0.00000000000E+00 0.  1.
         23    2    1    2    0    0  0.71647019012E+03  0.23661968606E+03  0.15978744554E+04  0.17694013145E+04  0.90883591628E+02 0.  0.
         13    1    3    3    0    0  0.36585583264E+03  0.98443303446E+02  0.89454910370E+03  0.97147294003E+03  0.00000000000E+00 0.  1.
        -13    1    3    3    0    0  0.35061435748E+03  0.13817638261E+03  0.70332535172E+03  0.79792837445E+03  0.00000000000E+00 0. -1.
         22    1    1    2    0    0 -0.71647019012E+03 -0.23661968606E+03 -0.20740590639E+04  0.22070431373E+04  0.00000000000E+00 0.  1.
<mgrwt>
<rscale>  0 0.39478296E+04</rscale>
<asrwt>0</asrwt>
<pdfrwt beam="1">  1        1 0.26925076E+00 0.39478296E+04</pdfrwt>
<pdfrwt beam="2">  1       -1 0.34250993E+00 0.39478296E+04</pdfrwt>
<totfact> 0.60284490E-02</totfact>
</mgrwt>
</event>
<event>
 6    1  0.1603085E-006  0.3449838E+04  0.7818608E-02  0.8125782E-01
         -2   -1    0    0    0  501 -0.00000000000E+00  0.00000000000E+00  0.12854886913E+04  0.12854886913E+04  0.00000000000E+00 0.  1.
          2   -1    0    0  501    0  0.00000000000E+00 -0.00000000000E+00 -0.23145634440E+04  0.23145634440E+04  0.00000000000E+00 0. -1.
         23    2    1    2    0    0 -0.10829924556E+04  0.67586628975E+03  0.69367798668E+03  0.14558635005E+04  0.93174471983E+02 0.  0.
         11    1    3    3    0    0 -0.36960793521E+03  0.27009503173E+03  0.21493933529E+03  0.50572746593E+03  0.00000000000E+00 0. -1.
        -11    1    3    3    0    0 -0.71338452041E+03  0.40577125802E+03  0.47873865140E+03  0.95013603454E+03  0.00000000000E+00 0.  1.
         22    1    1    2    0    0  0.10829924556E+04 -0.67586628975E+03 -0.17227527394E+04  0.21441886348E+04  0.00000000000E+00 0.  1.
<mgrwt>
<rscale>  0 0.34498378E+04</rscale>
<asrwt>0</asrwt>
<pdfrwt beam="1">  1        2 0.35608668E+00 0.34498378E+04</pdfrwt>
<pdfrwt beam="2">  1       -2 0.19776749E+00 0.34498378E+04</pdfrwt>
<totfact> 0.50491678E-01</totfact>
</mgrwt>
</event>
<event>
 6    1  0.1603085E-006  0.2109951E+04  0.7818608E-02  0.8556873E-01
         -2   -1    0    0    0  501 -0.00000000000E+00  0.00000000000E+00  0.85610225591E+03  0.85610225591E+03  0.00000000000E+00 0.  1.
          2   -1    0    0  501    0  0.00000000000E+00 -0.00000000000E+00 -0.13000471406E+04  0.13000471406E+04  0.00000000000E+00 0. -1.
         23    2    1    2    0    0  0.26426065798E+03 -0.96913638464E+03  0.10072946252E+03  0.10134643254E+04  0.88907180577E+02 0.  0.
         11    1    3    3    0    0  0.11573294204E+03 -0.27323734082E+03  0.37244617536E+02  0.29906507624E+03  0.00000000000E+00 0. -1.
        -11    1    3    3    0    0  0.14852771594E+03 -0.69589904382E+03  0.63484844984E+02  0.71439924911E+03  0.00000000000E+00 0.  1.
         22    1    1    2    0    0 -0.26426065798E+03  0.96913638464E+03 -0.54467434726E+03  0.11426850712E+04  0.00000000000E+00 0. -1.
<mgrwt>
<rscale>  0 0.21099510E+04</rscale>
<asrwt>0</asrwt>
<pdfrwt beam="1">  1        2 0.20000725E+00 0.21099510E+04</pdfrwt>
<pdfrwt beam="2">  1       -2 0.13170804E+00 0.21099510E+04</pdfrwt>
<totfact> 0.63962100E+00</totfact>
</mgrwt>
</event>
<event>
 6    1  0.1603085E-006  0.1027009E+04  0.7818608E-02  0.9279408E-01
         -1   -1    0    0    0  501 -0.00000000000E+00  0.00000000000E+00  0.32710696694E+03  0.32710696694E+03  0.00000000000E+00 0.  1.
          1   -1    0    0  501    0  0.00000000000E+00 -0.00000000000E+00 -0.80611855923E+03  0.80611855923E+03  0.00000000000E+00 0. -1.
         23    2    1    2    0    0  0.11025516662E+03  0.39943287961E+03  0.85563423886E+02  0.43290575922E+03  0.91561289766E+02 0.  0.
         13    1    3    3    0    0  0.74814509580E+02  0.24147695860E+03  0.68337316821E+01  0.25289332191E+03  0.00000000000E+00 0. -1.
        -13    1    3    3    0    0  0.35440657044E+02  0.15795592101E+03  0.78729692203E+02  0.18001243731E+03  0.00000000000E+00 0.  1.
         22    1    1    2    0    0 -0.11025516662E+03 -0.39943287961E+03 -0.56457501618E+03  0.70031976694E+03  0.00000000000E+00 0. -1.
<mgrwt>
<rscale>  0 0.10270092E+04</rscale>
<asrwt>0</asrwt>
<pdfrwt beam="1">  1        1 0.12401824E+00 0.10270092E+04</pdfrwt>
<pdfrwt beam="2">  1       -1 0.50324149E-01 0.10270092E+04</pdfrwt>
<totfact> 0.86647997E+01</totfact>
</mgrwt>
</event>
<event>
 6    1  0.1603085E-006  0.1614116E+04  0.7818608E-02  0.8811922E-01
         -2   -1    0    0    0  501 -0.00000000000E+00  0.00000000000E+00  0.62632427902E+03  0.62632427902E+03  0.00000000000E+00 0.  1.
          2   -1    0    0  501    0  0.00000000000E+00 -0.00000000000E+00 -0.10399450850E+04  0.10399450850E+04  0.00000000000E+00 0. -1.
         23    2    1    2    0    0 -0.41648193536E+03 -0.24296831452E+03 -0.87202810081E+03  0.10009663862E+04  0.94920457706E+02 0.  0.
         13    1    3    3    0    0 -0.24398953399E+03 -0.11826325200E+03 -0.40081949349E+03  0.48391461626E+03  0.00000000000E+00 0. -1.
        -13    1    3    3    0    0 -0.17249240137E+03 -0.12470506251E+03 -0.47120860732E+03  0.51705176990E+03  0.00000000000E+00 0.  1.
         22    1    1    2    0    0  0.41648193536E+03  0.24296831452E+03  0.45840729485E+03  0.66530297783E+03  0.00000000000E+00 0.  1.
<mgrwt>
<rscale>  0 0.16141163E+04</rscale>
<asrwt>0</asrwt>
<pdfrwt beam="1">  1        2 0.15999155E+00 0.16141163E+04</pdfrwt>
<pdfrwt beam="2">  1       -2 0.96357581E-01 0.16141163E+04</pdfrwt>
<totfact> 0.20516556E+01</totfact>
</mgrwt>
</event>
<event>
 6    1  0.1603085E-006  0.1153824E+04  0.7818608E-02  0.9154263E-01
          1   -1    0    0  501    0  0.00000000000E+00  0.00000000000E+00  0.30668423443E+03  0.30668423443E+03  0.00000000000E+00 0. -1.
         -1   -1    0    0    0  501 -0.00000000000E+00 -0.00000000000E+00 -0.10852438736E+04  0.10852438736E+04  0.00000000000E+00 0.  1.
         23    2    1    2    0    0  0.38526569832E+03  0.25402432239E+03  0.18804633653E+02  0.47065301435E+03  0.90568377489E+02 0.  0.
         11    1    3    3    0    0  0.23375117371E+03  0.10827737144E+03  0.34118362773E+02  0.25986085325E+03  0.00000000000E+00 0. -1.
        -11    1    3    3    0    0  0.15151452462E+03  0.14574695095E+03 -0.15313729120E+02  0.21079216110E+03  0.00000000000E+00 0.  1.
         22    1    1    2    0    0 -0.38526569832E+03 -0.25402432239E+03 -0.79736427284E+03  0.92127509370E+03  0.00000000000E+00 0.  1.
<mgrwt>
<rscale>  0 0.11538235E+04</rscale>
<asrwt>0</asrwt>
<pdfrwt beam="1">  1        1 0.47182189E-01 0.11538235E+04</pdfrwt>
<pdfrwt beam="2">  1       -1 0.16696060E+00 0.11538235E+04</pdfrwt>
<totfact> 0.21918175E+01</totfact>
</mgrwt>
</event>
<event>
 6    1  0.1603085E-006  0.4126608E+04  0.7818608E-02  0.7979482E-01
         -1   -1    0    0    0  501 -0.00000000000E+00  0.00000000000E+00  0.19903311195E+04  0.19903311195E+04  0.00000000000E+00 0.  1.
          1   -1    0    0  501    0  0.00000000000E+00 -0.00000000000E+00 -0.21389521865E+04  0.21389521865E+04  0.00000000000E+00 0. -1.
         23    2    1    2    0    0 -0.12701662516E+04  0.99884522287E+03 -0.13564054176E+04  0.21119194015E+04  0.96715125346E+02 0.  0.
         13    1    3    3    0    0 -0.88471522975E+03  0.65020806213E+03 -0.88435293027E+03  0.14098126355E+04  0.00000000000E+00 0.  1.
        -13    1    3    3    0    0 -0.38545102184E+03  0.34863716073E+03 -0.47205248733E+03  0.70210676601E+03  0.00000000000E+00 0. -1.
         22    1    1    2    0    0  0.12701662516E+04 -0.99884522287E+03  0.12077843506E+04  0.20173639046E+04  0.00000000000E+00 0.  1.
<mgrwt>
<rscale>  0 0.41266079E+04</rscale>
<asrwt>0</asrwt>
<pdfrwt beam="1">  1        1 0.32906957E+00 0.41266079E+04</pdfrwt>
<pdfrwt beam="2">  1       -1 0.30620479E+00 0.41266079E+04</pdfrwt>
<totfact> 0.55899093E-02</totfact>
</mgrwt>
</event>
<event>
 6    1  0.1603085E-006  0.4632330E+03  0.7818608E-02  0.1023848E+00
          1   -1    0    0  501    0  0.00000000000E+00  0.00000000000E+00  0.14227950889E+04  0.14227950889E+04  0.00000000000E+00 0. -1.
         -1   -1    0    0    0  501 -0.00000000000E+00 -0.00000000000E+00 -0.37704803574E+02  0.37704803574E+02  0.00000000000E+00 0.  1.
         23    2    1    2    0    0  0.23181423607E+02  0.15766705490E+02  0.14156863998E+04  0.14190018247E+04  0.92802094183E+02 0.  0.
         11    1    3    3    0    0  0.61644374678E+01  0.41827190824E+02  0.30913180900E+03  0.31200959843E+03  0.00000000000E+00 0.  1.
        -11    1    3    3    0    0  0.17016986139E+02 -0.26060485333E+02  0.11065545908E+04  0.11069922263E+04  0.00000000000E+00 0. -1.
         22    1    1    2    0    0 -0.23181423607E+02 -0.15766705490E+02 -0.30596114480E+02  0.41498067711E+02  0.00000000000E+00 0.  1.
<mgrwt>
<rscale>  0 0.46323303E+03</rscale>
<asrwt>0</asrwt>
<pdfrwt beam="1">  1        1 0.21889151E+00 0.46323303E+03</pdfrwt>
<pdfrwt beam="2">  1       -1 0.58007401E-02 0.46323303E+03</pdfrwt>
<totfact> 0.11234168E+03</totfact>
</mgrwt>
</event>
<event>
 6    1  0.1603085E-006  0.4208262E+04  0.7818608E-02  0.7963803E-01
         -1   -1    0    0    0  501 -0.00000000000E+00  0.00000000000E+00  0.16004484849E+04  0.16004484849E+04  0.00000000000E+00 0.  1.
          1   -1    0    0  501    0  0.00000000000E+00 -0.00000000000E+00 -0.27663286527E+04  0.27663286527E+04  0.00000000000E+00 0. -1.
         23    2    1    2    0    0 -0.11090852291E+04  0.27752302486E+03  0.12493252858E+04  0.16946419505E+04  0.62518764897E+02 0.  0.
         11    1    3    3    0    0 -0.19695015902E+03  0.63845808956E+02  0.19804822701E+03  0.28651134826E+03  0.00000000000E+00 0.  1.
        -11    1    3    3    0    0 -0.91213507005E+03  0.21367721591E+03  0.10512770588E+04  0.14081306022E+04  0.00000000000E+00 0. -1.
         22    1    1    2    0    0  0.11090852291E+04 -0.27752302486E+03 -0.24152054536E+04  0.26721351870E+04  0.00000000000E+00 0. -1.
<mgrwt>
<rscale>  0 0.42082616E+04</rscale>
<asrwt>0</asrwt>
<pdfrwt beam="1">  1        1 0.42558902E+00 0.42082616E+04</pdfrwt>
<pdfrwt beam="2">  1       -1 0.24622284E+00 0.42082616E+04</pdfrwt>
<totfact> 0.50008116E-02</totfact>
</mgrwt>
</event>
<event>
 6    1  0.1603085E-006  0.2874553E+04  0.7818608E-02  0.8280489E-01
         -2   -1    0    0    0  501 -0.00000000000E+00  0.00000000000E+00  0.13984040909E+04  0.13984040909E+04  0.00000000000E+00 0. -1.
          2   -1    0    0  501    0  0.00000000000E+00 -0.00000000000E+00 -0.14772290461E+04  0.14772290461E+04  0.00000000000E+00 0.  1.
         23    2    1    2    0    0  0.64056107025E+03  0.24604486050E+03 -0.13011660363E+04  0.14738577353E+04  0.91471371042E+02 0.  0.
         11    1    3    3    0    0  0.19064864692E+03  0.35525977722E+02 -0.32163298363E+03  0.37557526253E+03  0.00000000000E+00 0. -1.
        -11    1    3    3    0    0  0.44991242332E+03  0.21051888278E+03 -0.97953305267E+03  0.10982824727E+04  0.00000000000E+00 0.  1.
         22    1    1    2    0    0 -0.64056107025E+03 -0.24604486050E+03  0.12223410812E+04  0.14017754017E+04  0.00000000000E+00 0. -1.
<mgrwt>
<rscale>  0 0.28745526E+04</rscale>
<asrwt>0</asrwt>
<pdfrwt beam="1">  1        2 0.22726601E+00 0.28745526E+04</pdfrwt>
<pdfrwt beam="2">  1       -2 0.21513909E+00 0.28745526E+04</pdfrwt>
<totfact> 0.12003659E+00</totfact>
</mgrwt>
</event>
<event>
 6    1  0.1603085E-006  0.3478839E+04  0.7818608E-02  0.8118823E-01
         -2   -1    0    0    0  501 -0.00000000000E+00  0.00000000000E+00  0.84362629412E+03  0.84362629412E+03  0.00000000000E+00 0.  1.
          2   -1    0    0  501    0  0.00000000000E+00 -0.00000000000E+00 -0.35863983852E+04  0.35863983852E+04  0.00000000000E+00 0. -1.
         23    2    1    2    0    0 -0.11251933547E+04 -0.12584076066E+04 -0.84195732262E+03  0.18878314188E+04  0.73249866118E+02 0.  0.
         13    1    3    3    0    0 -0.26274532306E+03 -0.28280687827E+03 -0.22631305836E+03  0.44747339090E+03  0.00000000000E+00 0. -1.
        -13    1    3    3    0    0 -0.86244803166E+03 -0.97560072831E+03 -0.61564426426E+03  0.14403580279E+04  0.00000000000E+00 0.  1.
         22    1    1    2    0    0  0.11251933547E+04  0.12584076066E+04 -0.19008147684E+04  0.25421932605E+04  0.00000000000E+00 0. -1.
<mgrwt>
<rscale>  0 0.34788389E+04</rscale>
<asrwt>0</asrwt>
<pdfrwt beam="1">  1        2 0.55175359E+00 0.34788389E+04</pdfrwt>
<pdfrwt beam="2">  1       -2 0.12978866E+00 0.34788389E+04</pdfrwt>
<totfact> 0.25301628E-01</totfact>
</mgrwt>
</event>
<event>
 6    1  0.1603085E-006  0.2810896E+04  0.7818608E-02  0.8299894E-01
         -1   -1    0    0    0  501 -0.00000000000E+00  0.00000000000E+00  0.17413350891E+04  0.17413350891E+04  0.00000000000E+00 0.  1.
          1   -1    0    0  501    0  0.00000000000E+00 -0.00000000000E+00 -0.11343503306E+04  0.11343503306E+04  0.00000000000E+00 0. -1.
         23    2    1    2    0    0  0.69883066874E+03 -0.71921737290E+03 -0.70145016170E+03  0.12271588431E+04  0.90821604858E+02 0.  0.
         11    1    3    3    0    0  0.21191163299E+03 -0.17461294040E+03 -0.15950866106E+03  0.31755193608E+03  0.00000000000E+00 0. -1.
        -11    1    3    3    0    0  0.48691903574E+03 -0.54460443251E+03 -0.54194150063E+03  0.90960690707E+03  0.00000000000E+00 0.  1.
         22    1    1    2    0    0 -0.69883066874E+03  0.71921737290E+03  0.13084349202E+04  0.16485265765E+04  0.00000000000E+00 0.  1.
<mgrwt>
<rscale>  0 0.28108960E+04</rscale>
<asrwt>0</asrwt>
<pdfrwt beam="1">  1        1 0.17451544E+00 0.28108960E+04</pdfrwt>
<pdfrwt beam="2">  1       -1 0.26789770E+00 0.28108960E+04</pdfrwt>
<totfact> 0.55097942E-01</totfact>
</mgrwt>
</event>
<event>
 6    1  0.1603085E-006  0.2751514E+04  0.7818608E-02  0.8318481E-01
          2   -1    0    0  501    0  0.00000000000E+00  0.00000000000E+00  0.18819565541E+04  0.18819565541E+04  0.00000000000E+00 0. -1.
         -2   -1    0    0    0  501 -0.00000000000E+00 -0.00000000000E+00 -0.10057126815E+04  0.10057126815E+04  0.00000000000E+00 0.  1.
         23    2    1    2    0    0  0.49153266261E+03  0.37465722931E+03  0.17267678635E+04  0.18363065688E+04  0.91225885799E+02 0.  0.
         11    1    3    3    0    0  0.15009471964E+03  0.11943559430E+03  0.66650263752E+03  0.69355537044E+03  0.00000000000E+00 0.  1.
        -11    1    3    3    0    0  0.34143794297E+03  0.25522163501E+03  0.10602652260E+04  0.11427511984E+04  0.00000000000E+00 0. -1.
         22    1    1    2    0    0 -0.49153266261E+03 -0.37465722931E+03 -0.85052399100E+03  0.10513626668E+04  0.00000000000E+00 0.  1.
<mgrwt>
<rscale>  0 0.27515142E+04</rscale>
<asrwt>0</asrwt>
<pdfrwt beam="1">  1        2 0.28953178E+00 0.27515142E+04</pdfrwt>
<pdfrwt beam="2">  1       -2 0.15472503E+00 0.27515142E+04</pdfrwt>
<totfact> 0.18727344E+00</totfact>
</mgrwt>
</event>
<event>
 6    1  0.1603085E-006  0.1271187E+04  0.7818608E-02  0.9052731E-01
          3   -1    0    0  501    0  0.00000000000E+00  0.00000000000E+00  0.11860450865E+04  0.11860450865E+04  0.00000000000E+00 0. -1.
         -3   -1    0    0    0  501 -0.00000000000E+00 -0.00000000000E+00 -0.34061028163E+03  0.34061028163E+03  0.00000000000E+00 0.  1.
         23    2    1    2    0    0 -0.18946485124E+03  0.21944729692E+01  0.11492163997E+04  0.11686260356E+04  0.95324351991E+02 0.  0.
         13    1    3    3    0    0 -0.97123497951E+01 -0.25381272519E+02  0.22945678877E+03  0.23106050430E+03  0.00000000000E+00 0.  1.
        -13    1    3    3    0    0 -0.17975250145E+03  0.27575745488E+02  0.91975961096E+03  0.93756553129E+03  0.00000000000E+00 0. -1.
         22    1    1    2    0    0  0.18946485124E+03 -0.21944729692E+01 -0.30378159488E+03  0.35802933253E+03  0.00000000000E+00 0.  1.
<mgrwt>
<rscale>  0 0.12711871E+04</rscale>
<asrwt>0</asrwt>
<pdfrwt beam="1">  1        3 0.18246847E+00 0.12711871E+04</pdfrwt>
<pdfrwt beam="2">  1       -3 0.52401582E-01 0.12711871E+04</pdfrwt>
<totfact> 0.17743136E+00</totfact>
</mgrwt>
</event>
<event>
 6    1  0.1603085E-006  0.2300216E+04  0.7818608E-02  0.8477836E-01
         -2   -1    0    0    0  501 -0.00000000000E+00  0.00000000000E+00  0.35801702591E+03  0.35801702591E+03  0.00000000000E+00 0.  1.
          2   -1    0    0  501    0  0.00000000000E+00 -0.00000000000E+00 -0.36946536676E+04  0.36946536676E+04  0.00000000000E+00 0. -1.
         23    2    1    2    0    0  0.10463597208E+04 -0.47336903949E+02 -0.84191280132E+03  0.13469810425E+04  0.91822198445E+02 0.  0.
         13    1    3    3    0    0  0.89473247756E+03 -0.65605412797E+02 -0.69240082153E+03  0.11332560056E+04  0.00000000000E+00 0. -1.
        -13    1    3    3    0    0  0.15162724323E+03  0.18268508848E+02 -0.14951197978E+03  0.21372503692E+03  0.00000000000E+00 0.  1.
         22    1    1    2    0    0 -0.10463597208E+04  0.47336903949E+02 -0.24947238403E+04  0.27056896509E+04  0.00000000000E+00 0. -1.
<mgrwt>
<rscale>  0 0.23002164E+04</rscale>
<asrwt>0</asrwt>
<pdfrwt beam="1">  1        2 0.56840822E+00 0.23002164E+04</pdfrwt>
<pdfrwt beam="2">  1       -2 0.55079546E-01 0.23002164E+04</pdfrwt>
<totfact> 0.16614723E+00</totfact>
</mgrwt>
</event>
<event>
 6    1  0.1603085E-006  0.4223764E+04  0.7818608E-02  0.7960867E-01
          2   -1    0    0  501    0  0.00000000000E+00  0.00000000000E+00  0.19312216632E+04  0.19312216632E+04  0.00000000000E+00 0. -1.
         -2   -1    0    0    0  501 -0.00000000000E+00 -0.00000000000E+00 -0.23094424455E+04  0.23094424455E+04  0.00000000000E+00 0.  1.
         23    2    1    2    0    0 -0.76051815693E+03  0.50206760146E+03 -0.21009428190E+04  0.22917590420E+04  0.87971782862E+02 0.  0.
         11    1    3    3    0    0 -0.31226244456E+03  0.16144451065E+03 -0.86057108482E+03  0.92959924502E+03  0.00000000000E+00 0. -1.
        -11    1    3    3    0    0 -0.44825571237E+03  0.34062309080E+03 -0.12403717341E+04  0.13621597970E+04  0.00000000000E+00 0.  1.
         22    1    1    2    0    0  0.76051815693E+03 -0.50206760146E+03  0.17227220367E+04  0.19489050668E+04  0.00000000000E+00 0. -1.
<mgrwt>
<rscale>  0 0.42237639E+04</rscale>
<asrwt>0</asrwt>
<pdfrwt beam="1">  1        2 0.29711103E+00 0.42237639E+04</pdfrwt>
<pdfrwt beam="2">  1       -2 0.35529884E+00 0.42237639E+04</pdfrwt>
<totfact> 0.81410072E-02</totfact>
</mgrwt>
</event>
<event>
 6    1  0.1603085E-006  0.2418590E+04  0.7818608E-02  0.8432576E-01
         -1   -1    0    0    0  501 -0.00000000000E+00  0.00000000000E+00  0.15567189082E+04  0.15567189082E+04  0.00000000000E+00 0.  1.
          1   -1    0    0  501    0  0.00000000000E+00 -0.00000000000E+00 -0.93940800847E+03  0.93940800847E+03  0.00000000000E+00 0. -1.
         23    2    1    2    0    0  0.11060678823E+04 -0.46572454715E+03  0.18600674369E+03  0.12208587922E+04  0.12494866035E+03 0.  0.
         11    1    3    3    0    0  0.12712825521E+03 -0.61214269932E+02  0.62979287051E+02  0.15451592382E+03  0.00000000000E+00 0. -1.
        -11    1    3    3    0    0  0.97893962711E+03 -0.40451027722E+03  0.12302745664E+03  0.10663428684E+04  0.00000000000E+00 0.  1.
         22    1    1    2    0    0 -0.11060678823E+04  0.46572454715E+03  0.43130415599E+03  0.12752681244E+04  0.00000000000E+00 0. -1.
<mgrwt>
<rscale>  0 0.24185898E+04</rscale>
<asrwt>0</asrwt>
<pdfrwt beam="1">  1        1 0.14452431E+00 0.24185898E+04</pdfrwt>
<pdfrwt beam="2">  1       -1 0.23949522E+00 0.24185898E+04</pdfrwt>
<totfact> 0.12353674E+00</totfact>
</mgrwt>
</event>
<event>
 6    1  0.1603085E-006  0.1360712E+04  0.7818608E-02  0.8982759E-01
         -2   -1    0    0    0  501 -0.00000000000E+00  0.00000000000E+00  0.51466763409E+03  0.51466763409E+03  0.00000000000E+00 0. -1.
          2   -1    0    0  501    0  0.00000000000E+00 -0.00000000000E+00 -0.89938513598E+03  0.89938513598E+03  0.00000000000E+00 0.  1.
         23    2    1    2    0    0 -0.65935207845E+03 -0.82438974920E+02 -0.57082001843E+02  0.67318411179E+03  0.91526747397E+02 0.  0.
         13    1    3    3    0    0 -0.44191685959E+03 -0.11629118982E+02 -0.35478729835E+02  0.44349124847E+03  0.00000000000E+00 0.  1.
        -13    1    3    3    0    0 -0.21743521886E+03 -0.70809855938E+02 -0.21603272008E+02  0.22969286332E+03  0.00000000000E+00 0. -1.
         22    1    1    2    0    0  0.65935207845E+03  0.82438974920E+02 -0.32763550004E+03  0.74086865829E+03  0.00000000000E+00 0. -1.
<mgrwt>
<rscale>  0 0.13607122E+04</rscale>
<asrwt>0</asrwt>
<pdfrwt beam="1">  1        2 0.13836694E+00 0.13607122E+04</pdfrwt>
<pdfrwt beam="2">  1       -2 0.79179637E-01 0.13607122E+04</pdfrwt>
<totfact> 0.40540041E+01</totfact>
</mgrwt>
</event>
<event>
 6    1  0.1603085E-006  0.4968251E+04  0.7818608E-02  0.7833423E-01
          2   -1    0    0  501    0  0.00000000000E+00  0.00000000000E+00  0.16159956374E+04  0.16159956374E+04  0.00000000000E+00 0. -1.
         -2   -1    0    0    0  501 -0.00000000000E+00 -0.00000000000E+00 -0.38186241670E+04  0.38186241670E+04  0.00000000000E+00 0.  1.
         23    2    1    2    0    0  0.72311979052E+03  0.96879899178E+02 -0.36982139402E+04  0.37705694245E+04  0.90108220896E+02 0.  0.
         11    1    3    3    0    0  0.53946997132E+03  0.51354275420E+02 -0.25589722437E+04  0.26157224730E+04  0.00000000000E+00 0.  1.
        -11    1    3    3    0    0  0.18364981920E+03  0.45525623758E+02 -0.11392416964E+04  0.11548469515E+04  0.00000000000E+00 0. -1.
         22    1    1    2    0    0 -0.72311979052E+03 -0.96879899178E+02  0.14955854105E+04  0.16640503798E+04  0.00000000000E+00 0. -1.
<mgrwt>
<rscale>  0 0.49682512E+04</rscale>
<asrwt>0</asrwt>
<pdfrwt beam="1">  1        2 0.24861472E+00 0.49682512E+04</pdfrwt>
<pdfrwt beam="2">  1       -2 0.58748063E+00 0.49682512E+04</pdfrwt>
<totfact> 0.45977646E-03</totfact>
</mgrwt>
</event>
<event>
 6    1  0.1603085E-006  0.2324767E+04  0.7818608E-02  0.8468219E-01
         -1   -1    0    0    0  501 -0.00000000000E+00  0.00000000000E+00  0.12321921876E+04  0.12321921876E+04  0.00000000000E+00 0.  1.
          1   -1    0    0  501    0  0.00000000000E+00 -0.00000000000E+00 -0.10965296232E+04  0.10965296232E+04  0.00000000000E+00 0. -1.
         23    2    1    2    0    0 -0.56022973418E+03 -0.78867257884E+03  0.71016261755E+03  0.12035942167E+04  0.91903773129E+02 0.  0.
         13    1    3    3    0    0 -0.38224798705E+03 -0.46616734657E+03  0.42107014525E+03  0.73534045573E+03  0.00000000000E+00 0.  1.
        -13    1    3    3    0    0 -0.17798174713E+03 -0.32250523227E+03  0.28909247231E+03  0.46825376101E+03  0.00000000000E+00 0. -1.
         22    1    1    2    0    0  0.56022973418E+03  0.78867257884E+03 -0.57450005317E+03  0.11251275940E+04  0.00000000000E+00 0.  1.
<mgrwt>
<rscale>  0 0.23247669E+04</rscale>
<asrwt>0</asrwt>
<pdfrwt beam="1">  1        1 0.16869686E+00 0.23247669E+04</pdfrwt>
<pdfrwt beam="2">  1       -1 0.18956803E+00 0.23247669E+04</pdfrwt>
<totfact> 0.20471966E+00</totfact>
</mgrwt>
</event>
<event>
 6    1  0.1603085E-006  0.1460272E+04  0.7818608E-02  0.8911310E-01
          1   -1    0    0  501    0  0.00000000000E+00  0.00000000000E+00  0.21089568971E+04  0.21089568971E+04  0.00000000000E+00 0. -1.
         -1   -1    0    0    0  501 -0.00000000000E+00 -0.00000000000E+00 -0.25277819607E+03  0.25277819607E+03  0.00000000000E+00 0.  1.
         23    2    1    2    0    0  0.23742279120E+03 -0.15439348882E+03  0.20151503644E+04  0.20369599079E+04  0.90375572317E+02 0.  0.
         11    1    3    3    0    0  0.69106257504E+02 -0.27121334589E+02  0.30816500607E+03  0.31698093409E+03  0.00000000000E+00 0.  1.
        -11    1    3    3    0    0  0.16831653370E+03 -0.12727215423E+03  0.17069853583E+04  0.17199789738E+04  0.00000000000E+00 0. -1.
         22    1    1    2    0    0 -0.23742279120E+03  0.15439348882E+03 -0.15897166341E+03  0.32477518523E+03  0.00000000000E+00 0.  1.
<mgrwt>
<rscale>  0 0.14602716E+04</rscale>
<asrwt>0</asrwt>
<pdfrwt beam="1">  1        1 0.32445489E+00 0.14602716E+04</pdfrwt>
<pdfrwt beam="2">  1       -1 0.38888955E-01 0.14602716E+04</pdfrwt>
<totfact> 0.15656146E+01</totfact>
</mgrwt>
</event>
<event>
 6    1  0.1603085E-006  0.3952060E+04  0.7818608E-02  0.8014288E-01
          2   -1    0    0  501    0  0.00000000000E+00  0.00000000000E+00  0.10731584538E+04  0.10731584538E+04  0.00000000000E+00 0. -1.
         -2   -1    0    0    0  501 -0.00000000000E+00 -0.00000000000E+00 -0.36385075927E+04  0.36385075927E+04  0.00000000000E+00 0.  1.
         23    2    1    2    0    0  0.67718094051E+03 -0.22337381152E+03 -0.34791274226E+04  0.35525885523E+04  0.89932827385E+02 0.  0.
         13    1    3    3    0    0  0.32667895306E+03 -0.14091790650E+03 -0.15705595589E+04  0.16103522356E+04  0.00000000000E+00 0.  1.
        -13    1    3    3    0    0  0.35050198746E+03 -0.82455905021E+02 -0.19085678637E+04  0.19422363166E+04  0.00000000000E+00 0. -1.
         22    1    1    2    0    0 -0.67718094051E+03  0.22337381152E+03  0.91377828368E+03  0.11590774942E+04  0.00000000000E+00 0. -1.
<mgrwt>
<rscale>  0 0.39520603E+04</rscale>
<asrwt>0</asrwt>
<pdfrwt beam="1">  1        2 0.16510130E+00 0.39520603E+04</pdfrwt>
<pdfrwt beam="2">  1       -2 0.55977040E+00 0.39520603E+04</pdfrwt>
<totfact> 0.13671710E-02</totfact>
</mgrwt>
</event>
<event>
 6    1  0.1603085E-006  0.1646095E+04  0.7818608E-02  0.8792720E-01
         -2   -1    0    0    0  501 -0.00000000000E+00  0.00000000000E+00  0.34795691670E+03  0.34795691670E+03  0.00000000000E+00 0.  1.
          2   -1    0    0  501    0  0.00000000000E+00 -0.00000000000E+00 -0.19468143589E+04  0.19468143589E+04  0.00000000000E+00 0. -1.
         23    2    1    2    0    0 -0.36805567454E+03  0.37915496254E+03  0.73645648017E+02  0.54077867243E+03  0.88286045911E+02 0.  0.
         13    1    3    3    0    0 -0.75222189511E+02  0.58577445688E+02 -0.17993431530E+02  0.97022979321E+02  0.00000000000E+00 0. -1.
        -13    1    3    3    0    0 -0.29283348503E+03  0.32057751685E+03  0.91639079548E+02  0.44375569311E+03  0.00000000000E+00 0.  1.
         22    1    1    2    0    0  0.36805567454E+03 -0.37915496254E+03 -0.16725030902E+04  0.17539926031E+04  0.00000000000E+00 0. -1.
<mgrwt>
<rscale>  0 0.16460954E+04</rscale>
<asrwt>0</asrwt>
<pdfrwt beam="1">  1        2 0.29950989E+00 0.16460954E+04</pdfrwt>
<pdfrwt beam="2">  1       -2 0.53531834E-01 0.16460954E+04</pdfrwt>
<totfact> 0.22476765E+01</totfact>
</mgrwt>
</event>
<event>
 6    1  0.1603085E-006  0.1451355E+04  0.7818608E-02  0.8917462E-01
         -1   -1    0    0    0  501 -0.00000000000E+00  0.00000000000E+00  0.17155308790E+04  0.17155308790E+04  0.00000000000E+00 0.  1.
          1   -1    0    0  501    0  0.00000000000E+00 -0.00000000000E+00 -0.30696494256E+03  0.30696494256E+03  0.00000000000E+00 0. -1.
         23    2    1    2    0    0  0.64789016537E+03 -0.11318074692E+03  0.28893307401E+03  0.72397770676E+03  0.89943597705E+02 0.  0.
         13    1    3    3    0    0  0.82218342481E+02  0.12585177153E+02  0.22419382528E+02  0.86144478855E+02  0.00000000000E+00 0. -1.
        -13    1    3    3    0    0  0.56567182289E+03 -0.12576592407E+03  0.26651369148E+03  0.63783322791E+03  0.00000000000E+00 0.  1.
         22    1    1    2    0    0 -0.64789016537E+03  0.11318074692E+03  0.11196328625E+04  0.12985181148E+04  0.00000000000E+00 0.  1.
<mgrwt>
<rscale>  0 0.14513550E+04</rscale>
<asrwt>0</asrwt>
<pdfrwt beam="1">  1        1 0.47225377E-01 0.14513550E+04</pdfrwt>
<pdfrwt beam="2">  1       -1 0.26392782E+00 0.14513550E+04</pdfrwt>
<totfact> 0.46808766E+00</totfact>
</mgrwt>
</event>
<event>
 6    1  0.1603085E-006  0.1316587E+04  0.7818608E-02  0.9016514E-01
         -2   -1    0    0    0  501 -0.00000000000E+00  0.00000000000E+00  0.63487069731E+03  0.63487069731E+03  0.00000000000E+00 0.  1.
          2   -1    0    0  501    0  0.00000000000E+00 -0.00000000000E+00 -0.68258009994E+03  0.68258009994E+03  0.00000000000E+00 0. -1.
         23    2    1    2    0    0  0.55770043204E+03 -0.24979746553E+02  0.31894508710E+03  0.64955164732E+03  0.92399211675E+02 0.  0.
         11    1    3    3    0    0  0.25961321807E+03 -0.50446667547E+02  0.17836756506E+03  0.31899667322E+03  0.00000000000E+00 0. -1.
        -11    1    3    3    0    0  0.29808721398E+03  0.25466920994E+02  0.14057752204E+03  0.33055497410E+03  0.00000000000E+00 0.  1.
         22    1    1    2    0    0 -0.55770043204E+03  0.24979746553E+02 -0.36665448972E+03  0.66789914993E+03  0.00000000000E+00 0.  1.
<mgrwt>
<rscale>  0 0.13165867E+04</rscale>
<asrwt>0</asrwt>
<pdfrwt beam="1">  1        2 0.10501232E+00 0.13165867E+04</pdfrwt>
<pdfrwt beam="2">  1       -2 0.97672415E-01 0.13165867E+04</pdfrwt>
<totfact> 0.36174034E+01</totfact>
</mgrwt>
</event>
<event>
 6    1  0.2707464E-006  0.2614130E+04  0.7818608E-02  0.8363417E-01
         -2   -1    0    0    0  501 -0.00000000000E+00  0.00000000000E+00  0.11284596643E+04  0.11284596643E+04  0.00000000000E+00 0.  1.
          2   -1    0    0  501    0  0.00000000000E+00 -0.00000000000E+00 -0.15139384181E+04  0.15139384181E+04  0.00000000000E+00 0. -1.
         23    2    1    2    0    0 -0.80239604954E+03  0.18553804310E+02 -0.12335070607E+04  0.14747784212E+04  0.96166828531E+02 0.  0.
         13    1    3    3    0    0 -0.26943165069E+03 -0.51708500455E+01 -0.49691874125E+03  0.56528611118E+03  0.00000000000E+00 0. -1.
        -13    1    3    3    0    0 -0.53296439885E+03  0.23724654355E+02 -0.73658831943E+03  0.90949231002E+03  0.00000000000E+00 0.  1.
         22    1    1    2    0    0  0.80239604954E+03 -0.18553804310E+02  0.84802830683E+03  0.11676196612E+04  0.00000000000E+00 0.  1.
<mgrwt>
<rscale>  0 0.26141296E+04</rscale>
<asrwt>0</asrwt>
<pdfrwt beam="1">  1        2 0.23291360E+00 0.26141296E+04</pdfrwt>
<pdfrwt beam="2">  1       -2 0.17360918E+00 0.26141296E+04</pdfrwt>
<totfact> 0.22136876E+00</totfact>
</mgrwt>
</event>
<event>
 6    1  0.1641292E-006  0.3154655E+04  0.7818608E-02  0.8200896E-01
          1   -1    0    0  501    0  0.00000000000E+00  0.00000000000E+00  0.25251813582E+04  0.25251813582E+04  0.00000000000E+00 0. -1.
         -1   -1    0    0    0  501 -0.00000000000E+00 -0.00000000000E+00 -0.98526104597E+03  0.98526104597E+03  0.00000000000E+00 0.  1.
         23    2    1    2    0    0 -0.55319058712E+03 -0.32785429891E+02 -0.87101873832E+03  0.10366352541E+04  0.94044125407E+02 0.  0.
         13    1    3    3    0    0 -0.33811685219E+03 -0.32958815718E+02 -0.44969071390E+03  0.56358763954E+03  0.00000000000E+00 0.  1.
        -13    1    3    3    0    0 -0.21507373493E+03  0.17338582698E+00 -0.42132802441E+03  0.47304761459E+03  0.00000000000E+00 0. -1.
         22    1    1    2    0    0  0.55319058712E+03  0.32785429891E+02  0.24109390505E+04  0.24738071500E+04  0.00000000000E+00 0. -1.
<mgrwt>
<rscale>  0 0.31546555E+04</rscale>
<asrwt>0</asrwt>
<pdfrwt beam="1">  1        1 0.38848944E+00 0.31546555E+04</pdfrwt>
<pdfrwt beam="2">  1       -1 0.15157862E+00 0.31546555E+04</pdfrwt>
<totfact> 0.37052535E-01</totfact>
</mgrwt>
</event>
<event>
 6    1  0.1603085E-006  0.3499024E+04  0.7818608E-02  0.8114021E-01
          2   -1    0    0  501    0  0.00000000000E+00  0.00000000000E+00  0.17918940909E+04  0.17918940909E+04  0.00000000000E+00 0. -1.
         -2   -1    0    0    0  501 -0.00000000000E+00 -0.00000000000E+00 -0.17081324741E+04  0.17081324741E+04  0.00000000000E+00 0.  1.
         23    2    1    2    0    0  0.54798592996E+03  0.16539252237E+04 -0.10281888776E+03  0.17477225076E+04  0.90581537019E+02 0.  0.
         11    1    3    3    0    0  0.28977894868E+03  0.79581144436E+03 -0.87914538592E+02  0.85147910143E+03  0.00000000000E+00 0. -1.
        -11    1    3    3    0    0  0.25820698129E+03  0.85811377931E+03 -0.14904349166E+02  0.89624340614E+03  0.00000000000E+00 0.  1.
         22    1    1    2    0    0 -0.54798592996E+03 -0.16539252237E+04  0.18658050452E+03  0.17523040574E+04  0.00000000000E+00 0. -1.
<mgrwt>
<rscale>  0 0.34990241E+04</rscale>
<asrwt>0</asrwt>
<pdfrwt beam="1">  1        2 0.27567601E+00 0.34990241E+04</pdfrwt>
<pdfrwt beam="2">  1       -2 0.26278961E+00 0.34990241E+04</pdfrwt>
<totfact> 0.38435625E-01</totfact>
</mgrwt>
</event>
<event>
 6    1  0.1603085E-006  0.1622929E+04  0.7818608E-02  0.8806585E-01
         -2   -1    0    0    0  501 -0.00000000000E+00  0.00000000000E+00  0.29358127128E+03  0.29358127128E+03  0.00000000000E+00 0.  1.
          2   -1    0    0  501    0  0.00000000000E+00 -0.00000000000E+00 -0.22429032929E+04  0.22429032929E+04  0.00000000000E+00 0. -1.
         23    2    1    2    0    0 -0.24671084219E+03  0.44136110317E+03 -0.19645566971E+04  0.20306209873E+04  0.90954464939E+02 0.  0.
         11    1    3    3    0    0 -0.18778067603E+03  0.24470519533E+03 -0.11826395827E+04  0.12222023553E+04  0.00000000000E+00 0.  1.
        -11    1    3    3    0    0 -0.58930166157E+02  0.19665590785E+03 -0.78191711447E+03  0.80841863195E+03  0.00000000000E+00 0. -1.
         22    1    1    2    0    0  0.24671084219E+03 -0.44136110317E+03  0.15234675563E+02  0.50586357686E+03  0.00000000000E+00 0.  1.
<mgrwt>
<rscale>  0 0.16229287E+04</rscale>
<asrwt>0</asrwt>
<pdfrwt beam="1">  1        2 0.34506205E+00 0.16229287E+04</pdfrwt>
<pdfrwt beam="2">  1       -2 0.45166349E-01 0.16229287E+04</pdfrwt>
<totfact> 0.21752288E+01</totfact>
</mgrwt>
</event>
<event>
 6    1  0.1603085E-006  0.1131396E+04  0.7818608E-02  0.9175120E-01
          2   -1    0    0  501    0  0.00000000000E+00  0.00000000000E+00  0.29833527372E+03  0.29833527372E+03  0.00000000000E+00 0. -1.
         -2   -1    0    0    0  501 -0.00000000000E+00 -0.00000000000E+00 -0.10726664999E+04  0.10726664999E+04  0.00000000000E+00 0.  1.
         23    2    1    2    0    0 -0.26519161981E+03  0.29083955262E+03  0.96619746562E+02  0.41524561355E+03  0.90439502238E+02 0.  0.
         11    1    3    3    0    0 -0.18115826819E+03  0.15727889991E+03  0.93309622718E+02  0.25741339550E+03  0.00000000000E+00 0.  1.
        -11    1    3    3    0    0 -0.84033351626E+02  0.13356065271E+03  0.33101238436E+01  0.15783221806E+03  0.00000000000E+00 0. -1.
         22    1    1    2    0    0  0.26519161981E+03 -0.29083955262E+03 -0.87095097271E+03  0.95575616004E+03  0.00000000000E+00 0.  1.
<mgrwt>
<rscale>  0 0.11313960E+04</rscale>
<asrwt>0</asrwt>
<pdfrwt beam="1">  1        2 0.45897734E-01 0.11313960E+04</pdfrwt>
<pdfrwt beam="2">  1       -2 0.16502562E+00 0.11313960E+04</pdfrwt>
<totfact> 0.25306900E+01</totfact>
</mgrwt>
</event>
<event>
 6    1  0.1603085E-006  0.1220563E+04  0.7818608E-02  0.9095046E-01
         -1   -1    0    0    0  501 -0.00000000000E+00  0.00000000000E+00  0.68871036010E+03  0.68871036010E+03  0.00000000000E+00 0.  1.
          1   -1    0    0  501    0  0.00000000000E+00 -0.00000000000E+00 -0.54078390143E+03  0.54078390143E+03  0.00000000000E+00 0. -1.
         23    2    1    2    0    0  0.12289229183E+03  0.24545820849E+03 -0.47065463039E+03  0.55274112245E+03  0.93030746719E+02 0.  0.
         13    1    3    3    0    0  0.82617034125E+02  0.79463715826E+02 -0.14334797197E+03  0.18354481068E+03  0.00000000000E+00 0. -1.
        -13    1    3    3    0    0  0.40275257704E+02  0.16599449267E+03 -0.32730665842E+03  0.36919631177E+03  0.00000000000E+00 0.  1.
         22    1    1    2    0    0 -0.12289229183E+03 -0.24545820849E+03  0.61858108906E+03  0.67675313907E+03  0.00000000000E+00 0.  1.
<mgrwt>
<rscale>  0 0.12205629E+04</rscale>
<asrwt>0</asrwt>
<pdfrwt beam="1">  1        1 0.83197524E-01 0.12205629E+04</pdfrwt>
<pdfrwt beam="2">  1       -1 0.10595544E+00 0.12205629E+04</pdfrwt>
<totfact> 0.32743117E+01</totfact>
</mgrwt>
</event>
<event>
 6    1  0.1603085E-006  0.4841762E+03  0.7818608E-02  0.1017994E+00
         -2   -1    0    0    0  501 -0.00000000000E+00  0.00000000000E+00  0.12131499423E+03  0.12131499423E+03  0.00000000000E+00 0.  1.
          2   -1    0    0  501    0  0.00000000000E+00 -0.00000000000E+00 -0.48309486158E+03  0.48309486158E+03  0.00000000000E+00 0. -1.
         23    2    1    2    0    0 -0.11905408779E+03 -0.19608996360E+03 -0.24687955795E+03  0.34784167628E+03  0.86134580605E+02 0.  0.
         11    1    3    3    0    0 -0.12997305802E+03 -0.15444460173E+03 -0.20770482089E+03  0.28963325678E+03  0.00000000000E+00 0. -1.
        -11    1    3    3    0    0  0.10918970226E+02 -0.41645361868E+02 -0.39174737063E+02  0.58208419492E+02  0.00000000000E+00 0.  1.
         22    1    1    2    0    0  0.11905408779E+03  0.19608996360E+03 -0.11490030941E+03  0.25656817953E+03  0.00000000000E+00 0.  1.
<mgrwt>
<rscale>  0 0.48417621E+03</rscale>
<asrwt>0</asrwt>
<pdfrwt beam="1">  1        2 0.74322284E-01 0.48417621E+03</pdfrwt>
<pdfrwt beam="2">  1       -2 0.18663846E-01 0.48417621E+03</pdfrwt>
<totfact> 0.15403679E+03</totfact>
</mgrwt>
</event>
<event>
 6    1  0.1603085E-006  0.2270799E+04  0.7818608E-02  0.8489525E-01
         -1   -1    0    0    0  501 -0.00000000000E+00  0.00000000000E+00  0.10164028754E+04  0.10164028754E+04  0.00000000000E+00 0.  1.
          1   -1    0    0  501    0  0.00000000000E+00 -0.00000000000E+00 -0.12683275582E+04  0.12683275582E+04  0.00000000000E+00 0. -1.
         23    2    1    2    0    0  0.45322764447E+02  0.10876554303E+04  0.19208600847E+03  0.11090629713E+04  0.89861848237E+02 0.  0.
         11    1    3    3    0    0  0.27034921787E+02  0.60080103032E+03  0.60726358925E+02  0.60446708405E+03  0.00000000000E+00 0. -1.
        -11    1    3    3    0    0  0.18287842660E+02  0.48685439994E+03  0.13135964955E+03  0.50459588728E+03  0.00000000000E+00 0.  1.
         22    1    1    2    0    0 -0.45322764447E+02 -0.10876554303E+04 -0.44401069119E+03  0.11756674623E+04  0.00000000000E+00 0. -1.
<mgrwt>
<rscale>  0 0.22707988E+04</rscale>
<asrwt>0</asrwt>
<pdfrwt beam="1">  1        1 0.19512732E+00 0.22707988E+04</pdfrwt>
<pdfrwt beam="2">  1       -1 0.15636967E+00 0.22707988E+04</pdfrwt>
<totfact> 0.26906273E+00</totfact>
</mgrwt>
</event>
<event>
 6    1  0.1603085E-006  0.2393891E+04  0.7818608E-02  0.8441794E-01
         -2   -1    0    0    0  501 -0.00000000000E+00  0.00000000000E+00  0.65575068343E+03  0.65575068343E+03  0.00000000000E+00 0.  1.
          2   -1    0    0  501    0  0.00000000000E+00 -0.00000000000E+00 -0.21847913925E+04  0.21847913925E+04  0.00000000000E+00 0. -1.
         23    2    1    2    0    0  0.40923231596E+03  0.26533755020E+01 -0.20980950786E+04  0.21396134031E+04  0.92002322543E+02 0.  0.
         11    1    3    3    0    0  0.29691021922E+02 -0.83407667449E+01 -0.31690516062E+03  0.31840227072E+03  0.00000000000E+00 0.  1.
        -11    1    3    3    0    0  0.37954129404E+03  0.10994142247E+02 -0.17811899179E+04  0.18212111324E+04  0.00000000000E+00 0. -1.
         22    1    1    2    0    0 -0.40923231596E+03 -0.26533755020E+01  0.56905436953E+03  0.70092867277E+03  0.00000000000E+00 0.  1.
<mgrwt>
<rscale>  0 0.23938909E+04</rscale>
<asrwt>0</asrwt>
<pdfrwt beam="1">  1        2 0.33612176E+00 0.23938909E+04</pdfrwt>
<pdfrwt beam="2">  1       -2 0.10088472E+00 0.23938909E+04</pdfrwt>
<totfact> 0.38322047E+00</totfact>
</mgrwt>
</event>
<event>
 6    1  0.1603085E-006  0.1033309E+04  0.7818608E-02  0.9272748E-01
          1   -1    0    0  501    0  0.00000000000E+00  0.00000000000E+00  0.58886945475E+03  0.58886945475E+03  0.00000000000E+00 0. -1.
         -1   -1    0    0    0  501 -0.00000000000E+00 -0.00000000000E+00 -0.45329593246E+03  0.45329593246E+03  0.00000000000E+00 0.  1.
         23    2    1    2    0    0  0.22732019324E+03  0.22912266137E+03 -0.33337551034E+03  0.47288087187E+03  0.91134098339E+02 0.  0.
         13    1    3    3    0    0  0.72196004472E+02  0.83248881488E+02 -0.57225526840E+02  0.12416682428E+03  0.00000000000E+00 0.  1.
        -13    1    3    3    0    0  0.15512418876E+03  0.14587377988E+03 -0.27614998350E+03  0.34871404758E+03  0.00000000000E+00 0. -1.
         22    1    1    2    0    0 -0.22732019324E+03 -0.22912266137E+03  0.46894903263E+03  0.56928451534E+03  0.00000000000E+00 0. -1.
<mgrwt>
<rscale>  0 0.10333095E+04</rscale>
<asrwt>0</asrwt>
<pdfrwt beam="1">  1        1 0.90595301E-01 0.10333095E+04</pdfrwt>
<pdfrwt beam="2">  1       -1 0.69737836E-01 0.10333095E+04</pdfrwt>
<totfact> 0.73241780E+01</totfact>
</mgrwt>
</event>
<event>
 6    1  0.1603085E-006  0.2812508E+04  0.7818608E-02  0.8299396E-01
          1   -1    0    0  501    0  0.00000000000E+00  0.00000000000E+00  0.48241286575E+04  0.48241286575E+04  0.00000000000E+00 0. -1.
         -1   -1    0    0    0  501 -0.00000000000E+00 -0.00000000000E+00 -0.40992906353E+03  0.40992906353E+03  0.00000000000E+00 0.  1.
         23    2    1    2    0    0 -0.13848150842E+04  0.18376036884E+03  0.19352655694E+04  0.23886061596E+04  0.93305256576E+02 0.  0.
         11    1    3    3    0    0 -0.47051543081E+03  0.68198341461E+02  0.58515255216E+03  0.75394913204E+03  0.00000000000E+00 0.  1.
        -11    1    3    3    0    0 -0.91429965336E+03  0.11556202738E+03  0.13501130172E+04  0.16346570275E+04  0.00000000000E+00 0. -1.
         22    1    1    2    0    0  0.13848150842E+04 -0.18376036884E+03  0.24789340246E+04  0.28454515615E+04  0.00000000000E+00 0. -1.
<mgrwt>
<rscale>  0 0.28125082E+04</rscale>
<asrwt>0</asrwt>
<pdfrwt beam="1">  1        1 0.74217360E+00 0.28125082E+04</pdfrwt>
<pdfrwt beam="2">  1       -1 0.63066013E-01 0.28125082E+04</pdfrwt>
<totfact> 0.31397387E-02</totfact>
</mgrwt>
</event>
<event>
 6    1  0.1603085E-006  0.2787960E+04  0.7818608E-02  0.8307016E-01
         -2   -1    0    0    0  501 -0.00000000000E+00  0.00000000000E+00  0.17434973107E+04  0.17434973107E+04  0.00000000000E+00 0.  1.
          2   -1    0    0  501    0  0.00000000000E+00 -0.00000000000E+00 -0.11145299872E+04  0.11145299872E+04  0.00000000000E+00 0. -1.
         23    2    1    2    0    0 -0.13392118367E+02  0.56206162497E+03  0.16207989345E+04  0.17179296864E+04  0.90557176670E+02 0.  0.
         13    1    3    3    0    0 -0.28056136784E+02  0.46098197600E+03  0.12250548179E+04  0.13092176427E+04  0.00000000000E+00 0.  1.
        -13    1    3    3    0    0  0.14664018418E+02  0.10107964897E+03  0.39574411658E+03  0.40871204371E+03  0.00000000000E+00 0. -1.
         22    1    1    2    0    0  0.13392118367E+02 -0.56206162497E+03 -0.99183161103E+03  0.11400976115E+04  0.00000000000E+00 0. -1.
<mgrwt>
<rscale>  0 0.27879599E+04</rscale>
<asrwt>0</asrwt>
<pdfrwt beam="1">  1        2 0.17146615E+00 0.27879599E+04</pdfrwt>
<pdfrwt beam="2">  1       -2 0.26823036E+00 0.27879599E+04</pdfrwt>
<totfact> 0.92362024E-01</totfact>
</mgrwt>
</event>
<event>
 6    1  0.1603085E-006  0.1293648E+04  0.7818608E-02  0.9034618E-01
         -1   -1    0    0    0  501 -0.00000000000E+00  0.00000000000E+00  0.17459805698E+04  0.17459805698E+04  0.00000000000E+00 0.  1.
          1   -1    0    0  501    0  0.00000000000E+00 -0.00000000000E+00 -0.23962523334E+03  0.23962523334E+03  0.00000000000E+00 0. -1.
         23    2    1    2    0    0 -0.51124820594E+03  0.35168755371E+03  0.10190987315E+04  0.11966331404E+04  0.91158019824E+02 0.  0.
         13    1    3    3    0    0 -0.31763878694E+03  0.27060812028E+03  0.67495524303E+03  0.79352865974E+03  0.00000000000E+00 0. -1.
        -13    1    3    3    0    0 -0.19360941900E+03  0.81079433427E+02  0.34414348845E+03  0.40310448061E+03  0.00000000000E+00 0.  1.
         22    1    1    2    0    0  0.51124820594E+03 -0.35168755371E+03  0.48725660495E+03  0.78897266276E+03  0.00000000000E+00 0. -1.
<mgrwt>
<rscale>  0 0.12936476E+04</rscale>
<asrwt>0</asrwt>
<pdfrwt beam="1">  1        1 0.36865422E-01 0.12936476E+04</pdfrwt>
<pdfrwt beam="2">  1       -1 0.26861239E+00 0.12936476E+04</pdfrwt>
<totfact> 0.61103196E+00</totfact>
</mgrwt>
</event>
<event>
 6    1  0.1603085E-006  0.9260541E+03  0.7818608E-02  0.9393586E-01
          2   -1    0    0  501    0  0.00000000000E+00  0.00000000000E+00  0.14869080601E+04  0.14869080601E+04  0.00000000000E+00 0. -1.
         -2   -1    0    0    0  501 -0.00000000000E+00 -0.00000000000E+00 -0.14418783223E+03  0.14418783223E+03  0.00000000000E+00 0.  1.
         23    2    1    2    0    0 -0.41748817172E+03 -0.17734042409E+03  0.79404737736E+03  0.91920552406E+03  0.93174880906E+02 0.  0.
         11    1    3    3    0    0 -0.22112521104E+03 -0.12176473767E+03  0.51452371080E+03  0.57311225713E+03  0.00000000000E+00 0. -1.
        -11    1    3    3    0    0 -0.19636296069E+03 -0.55575686420E+02  0.27952366656E+03  0.34609326693E+03  0.00000000000E+00 0.  1.
         22    1    1    2    0    0  0.41748817172E+03  0.17734042409E+03  0.54867285054E+03  0.71189036829E+03  0.00000000000E+00 0. -1.
<mgrwt>
<rscale>  0 0.92605410E+03</rscale>
<asrwt>0</asrwt>
<pdfrwt beam="1">  1        2 0.22875507E+00 0.92605410E+03</pdfrwt>
<pdfrwt beam="2">  1       -2 0.22182745E-01 0.92605410E+03</pdfrwt>
<totfact> 0.23000305E+02</totfact>
</mgrwt>
</event>
<event>
 6    1  0.1603085E-006  0.2249995E+04  0.7818608E-02  0.8497903E-01
         -1   -1    0    0    0  501 -0.00000000000E+00  0.00000000000E+00  0.16477329035E+04  0.16477329035E+04  0.00000000000E+00 0.  1.
          1   -1    0    0  501    0  0.00000000000E+00 -0.00000000000E+00 -0.76809743959E+03  0.76809743959E+03  0.00000000000E+00 0. -1.
         23    2    1    2    0    0  0.56543212134E+02 -0.95206565643E+03  0.10773829879E+04  0.14418025036E+04  0.91728991037E+02 0.  0.
         11    1    3    3    0    0  0.91945131199E+01 -0.27735944354E+03  0.37723572239E+03  0.46831569506E+03  0.00000000000E+00 0. -1.
        -11    1    3    3    0    0  0.47348699014E+02 -0.67470621289E+03  0.70014726548E+03  0.97348680853E+03  0.00000000000E+00 0.  1.
         22    1    1    2    0    0 -0.56543212134E+02  0.95206565643E+03 -0.19774752392E+03  0.97402783955E+03  0.00000000000E+00 0. -1.
<mgrwt>
<rscale>  0 0.22499950E+04</rscale>
<asrwt>0</asrwt>
<pdfrwt beam="1">  1        1 0.11816884E+00 0.22499950E+04</pdfrwt>
<pdfrwt beam="2">  1       -1 0.25349737E+00 0.22499950E+04</pdfrwt>
<totfact> 0.14165857E+00</totfact>
</mgrwt>
</event>
<event>
 6    1  0.1603085E-006  0.1398644E+04  0.7818608E-02  0.8954800E-01
         -1   -1    0    0    0  501 -0.00000000000E+00  0.00000000000E+00  0.51102059454E+03  0.51102059454E+03  0.00000000000E+00 0.  1.
          1   -1    0    0  501    0  0.00000000000E+00 -0.00000000000E+00 -0.95700943465E+03  0.95700943465E+03  0.00000000000E+00 0. -1.
         23    2    1    2    0    0  0.45213113042E+03  0.17404330329E+03 -0.74895637226E+03  0.89662565745E+03  0.91040054483E+02 0.  0.
         11    1    3    3    0    0  0.26281127825E+03  0.14319132888E+03 -0.41797833766E+03  0.51408113698E+03  0.00000000000E+00 0. -1.
        -11    1    3    3    0    0  0.18931985217E+03  0.30851974408E+02 -0.33097803460E+03  0.38254452047E+03  0.00000000000E+00 0.  1.
         22    1    1    2    0    0 -0.45213113042E+03 -0.17404330329E+03  0.30296753215E+03  0.57140437175E+03  0.00000000000E+00 0.  1.
<mgrwt>
<rscale>  0 0.13986444E+04</rscale>
<asrwt>0</asrwt>
<pdfrwt beam="1">  1        1 0.14723222E+00 0.13986444E+04</pdfrwt>
<pdfrwt beam="2">  1       -1 0.78618553E-01 0.13986444E+04</pdfrwt>
<totfact> 0.25836177E+01</totfact>
</mgrwt>
</event>
<event>
 6    1  0.1603085E-006  0.4751873E+04  0.7818608E-02  0.7867966E-01
         -2   -1    0    0    0  501 -0.00000000000E+00  0.00000000000E+00  0.25859155163E+04  0.25859155163E+04  0.00000000000E+00 0.  1.
          2   -1    0    0  501    0  0.00000000000E+00 -0.00000000000E+00 -0.21830083706E+04  0.21830083706E+04  0.00000000000E+00 0. -1.
         23    2    1    2    0    0 -0.95958128403E+03 -0.62811775770E+03  0.22887220915E+04  0.25617478251E+04  0.94736205960E+02 0.  0.
         11    1    3    3    0    0 -0.84670084733E+03 -0.51544721299E+03  0.19787591817E+04  0.22131597442E+04  0.00000000000E+00 0. -1.
        -11    1    3    3    0    0 -0.11288043671E+03 -0.11267054471E+03  0.30996290987E+03  0.34858808088E+03  0.00000000000E+00 0.  1.
         22    1    1    2    0    0  0.95958128403E+03  0.62811775770E+03 -0.18858149459E+04  0.22071760619E+04  0.00000000000E+00 0. -1.
<mgrwt>
<rscale>  0 0.47518734E+04</rscale>
<asrwt>0</asrwt>
<pdfrwt beam="1">  1        2 0.33584744E+00 0.47518734E+04</pdfrwt>
<pdfrwt beam="2">  1       -2 0.39783316E+00 0.47518734E+04</pdfrwt>
<totfact> 0.30068514E-02</totfact>
</mgrwt>
</event>
<event>
 6    1  0.1603085E-006  0.3339572E+04  0.7818608E-02  0.8152899E-01
         -2   -1    0    0    0  501 -0.00000000000E+00  0.00000000000E+00  0.19089789009E+04  0.19089789009E+04  0.00000000000E+00 0.  1.
          2   -1    0    0  501    0  0.00000000000E+00 -0.00000000000E+00 -0.14605641306E+04  0.14605641306E+04  0.00000000000E+00 0. -1.
         23    2    1    2    0    0  0.62977889917E+03  0.23564224128E+03  0.17651788696E+04  0.18910247121E+04  0.89270892097E+02 0.  0.
         13    1    3    3    0    0  0.22805475711E+03  0.10245269820E+03  0.54721486990E+03  0.60162250743E+03  0.00000000000E+00 0.  1.
        -13    1    3    3    0    0  0.40172414206E+03  0.13318954308E+03  0.12179639997E+04  0.12894022047E+04  0.00000000000E+00 0. -1.
         22    1    1    2    0    0 -0.62977889917E+03 -0.23564224128E+03 -0.13167640993E+04  0.14785183194E+04  0.00000000000E+00 0. -1.
<mgrwt>
<rscale>  0 0.33395725E+04</rscale>
<asrwt>0</asrwt>
<pdfrwt beam="1">  1        2 0.22470217E+00 0.33395725E+04</pdfrwt>
<pdfrwt beam="2">  1       -2 0.29368906E+00 0.33395725E+04</pdfrwt>
<totfact> 0.38646421E-01</totfact>
</mgrwt>
</event>
<event>
 6    1  0.1603085E-006  0.2364247E+04  0.7818608E-02  0.8453012E-01
          2   -1    0    0  501    0  0.00000000000E+00  0.00000000000E+00  0.18025418041E+04  0.18025418041E+04  0.00000000000E+00 0. -1.
         -2   -1    0    0    0  501 -0.00000000000E+00 -0.00000000000E+00 -0.77524739706E+03  0.77524739706E+03  0.00000000000E+00 0.  1.
         23    2    1    2    0    0 -0.83800262937E+03  0.40423935218E+02 -0.39068625938E+03  0.93019954602E+03  0.93557152463E+02 0.  0.
         13    1    3    3    0    0 -0.11397840196E+03  0.31595562166E+02 -0.34189063064E+02  0.12311883566E+03  0.00000000000E+00 0.  1.
        -13    1    3    3    0    0 -0.72402422741E+03  0.88283730514E+01 -0.35649719632E+03  0.80708071036E+03  0.00000000000E+00 0. -1.
         22    1    1    2    0    0  0.83800262937E+03 -0.40423935218E+02  0.14179806664E+04  0.16475896551E+04  0.00000000000E+00 0. -1.
<mgrwt>
<rscale>  0 0.23642469E+04</rscale>
<asrwt>0</asrwt>
<pdfrwt beam="1">  1        2 0.27731412E+00 0.23642469E+04</pdfrwt>
<pdfrwt beam="2">  1       -2 0.11926883E+00 0.23642469E+04</pdfrwt>
<totfact> 0.41822556E+00</totfact>
</mgrwt>
</event>
<event>
 6    1  0.1603085E-006  0.2743984E+04  0.7818608E-02  0.8320873E-01
         -2   -1    0    0    0  501 -0.00000000000E+00  0.00000000000E+00  0.71060140656E+03  0.71060140656E+03  0.00000000000E+00 0.  1.
          2   -1    0    0  501    0  0.00000000000E+00 -0.00000000000E+00 -0.26489697771E+04  0.26489697771E+04  0.00000000000E+00 0. -1.
         23    2    1    2    0    0 -0.18466257607E+03 -0.10146969316E+04 -0.20752159137E+04  0.23191686749E+04  0.91170851287E+02 0.  0.
         13    1    3    3    0    0 -0.15416041709E+03 -0.69513419746E+03 -0.13563164550E+04  0.15318522490E+04  0.00000000000E+00 0.  1.
        -13    1    3    3    0    0 -0.30502158983E+02 -0.31956273417E+03 -0.71889945874E+03  0.78731642593E+03  0.00000000000E+00 0. -1.
         22    1    1    2    0    0  0.18466257607E+03  0.10146969316E+04  0.13684754321E+03  0.10404025087E+04  0.00000000000E+00 0.  1.
<mgrwt>
<rscale>  0 0.27439837E+04</rscale>
<asrwt>0</asrwt>
<pdfrwt beam="1">  1        2 0.40753381E+00 0.27439837E+04</pdfrwt>
<pdfrwt beam="2">  1       -2 0.10932330E+00 0.27439837E+04</pdfrwt>
<totfact> 0.16595119E+00</totfact>
</mgrwt>
</event>
<event>
 6    1  0.1603085E-006  0.2831535E+04  0.7818608E-02  0.8293544E-01
         -1   -1    0    0    0  501 -0.00000000000E+00  0.00000000000E+00  0.10502584638E+04  0.10502584638E+04  0.00000000000E+00 0.  1.
          1   -1    0    0  501    0  0.00000000000E+00 -0.00000000000E+00 -0.19084801648E+04  0.19084801648E+04  0.00000000000E+00 0. -1.
         23    2    1    2    0    0  0.73797187307E+03 -0.11560149678E+04 -0.78999167041E+03  0.15855567658E+04  0.94500407804E+02 0.  0.
         11    1    3    3    0    0  0.71807706932E+02 -0.14698088610E+03 -0.12316287577E+03  0.20476528422E+03  0.00000000000E+00 0. -1.
        -11    1    3    3    0    0  0.66616416614E+03 -0.10090340817E+04 -0.66682879464E+03  0.13807914816E+04  0.00000000000E+00 0.  1.
         22    1    1    2    0    0 -0.73797187307E+03  0.11560149678E+04 -0.68230030513E+02  0.13731818628E+04  0.00000000000E+00 0.  1.
<mgrwt>
<rscale>  0 0.28315349E+04</rscale>
<asrwt>0</asrwt>
<pdfrwt beam="1">  1        1 0.29361233E+00 0.28315349E+04</pdfrwt>
<pdfrwt beam="2">  1       -1 0.16157823E+00 0.28315349E+04</pdfrwt>
<totfact> 0.84397607E-01</totfact>
</mgrwt>
</event>
<event>
 6    1  0.1603085E-006  0.2113518E+04  0.7818608E-02  0.8555312E-01
         -2   -1    0    0    0  501 -0.00000000000E+00  0.00000000000E+00  0.58846374727E+03  0.58846374727E+03  0.00000000000E+00 0.  1.
          2   -1    0    0  501    0  0.00000000000E+00 -0.00000000000E+00 -0.18977206838E+04  0.18977206838E+04  0.00000000000E+00 0. -1.
         23    2    1    2    0    0 -0.30625107145E+03  0.87475330092E+03 -0.12483584421E+04  0.15573724572E+04  0.89594162950E+02 0.  0.
         13    1    3    3    0    0 -0.19164821260E+03  0.64966994659E+03 -0.94381648209E+03  0.11617183948E+04  0.00000000000E+00 0. -1.
        -13    1    3    3    0    0 -0.11460285885E+03  0.22508335433E+03 -0.30454196006E+03  0.39565406239E+03  0.00000000000E+00 0.  1.
         22    1    1    2    0    0  0.30625107145E+03 -0.87475330092E+03 -0.60898494380E+02  0.92881197390E+03  0.00000000000E+00 0.  1.
<mgrwt>
<rscale>  0 0.21135182E+04</rscale>
<asrwt>0</asrwt>
<pdfrwt beam="1">  1        2 0.29195703E+00 0.21135182E+04</pdfrwt>
<pdfrwt beam="2">  1       -2 0.90532882E-01 0.21135182E+04</pdfrwt>
<totfact> 0.73078512E+00</totfact>
</mgrwt>
</event>
<event>
 6    1  0.1603085E-006  0.1627360E+04  0.7818608E-02  0.8803914E-01
         -3   -1    0    0    0  501 -0.00000000000E+00  0.00000000000E+00  0.15445605295E+04  0.15445605295E+04  0.00000000000E+00 0.  1.
          3   -1    0    0  501    0  0.00000000000E+00 -0.00000000000E+00 -0.42864973864E+03  0.42864973864E+03  0.00000000000E+00 0. -1.
         23    2    1    2    0    0  0.21578952956E+03 -0.52049150145E+03  0.12671813436E+04  0.13898070592E+04  0.91315825328E+02 0.  0.
         11    1    3    3    0    0  0.16397553324E+03 -0.31295170267E+03  0.71195658038E+03  0.79480118020E+03  0.00000000000E+00 0.  1.
        -11    1    3    3    0    0  0.51813996321E+02 -0.20753979879E+03  0.55522476326E+03  0.59500587899E+03  0.00000000000E+00 0. -1.
         22    1    1    2    0    0 -0.21578952956E+03  0.52049150145E+03 -0.15127055272E+03  0.58340320900E+03  0.00000000000E+00 0. -1.
<mgrwt>
<rscale>  0 0.16273604E+04</rscale>
<asrwt>0</asrwt>
<pdfrwt beam="1">  1        3 0.65946114E-01 0.16273604E+04</pdfrwt>
<pdfrwt beam="2">  1       -3 0.23762469E+00 0.16273604E+04</pdfrwt>
<totfact> 0.48088844E-01</totfact>
</mgrwt>
</event>
<event>
 6    1  0.1603085E-006  0.2940213E+04  0.7818608E-02  0.8261012E-01
         -2   -1    0    0    0  501 -0.00000000000E+00  0.00000000000E+00  0.12251318337E+04  0.12251318337E+04  0.00000000000E+00 0.  1.
          2   -1    0    0  501    0  0.00000000000E+00 -0.00000000000E+00 -0.17640660032E+04  0.17640660032E+04  0.00000000000E+00 0. -1.
         23    2    1    2    0    0 -0.22518558629E+03 -0.59261887581E+03  0.10771630783E+04  0.12532035989E+04  0.91286816550E+02 0.  0.
         11    1    3    3    0    0 -0.17929654595E+03 -0.36756750292E+03  0.73460015766E+03  0.84076781113E+03  0.00000000000E+00 0. -1.
        -11    1    3    3    0    0 -0.45889040346E+02 -0.22505137288E+03  0.34256292063E+03  0.41243578779E+03  0.00000000000E+00 0.  1.
         22    1    1    2    0    0  0.22518558629E+03  0.59261887581E+03 -0.16160972478E+04  0.17359942381E+04  0.00000000000E+00 0. -1.
<mgrwt>
<rscale>  0 0.29402132E+04</rscale>
<asrwt>0</asrwt>
<pdfrwt beam="1">  1        2 0.27139477E+00 0.29402132E+04</pdfrwt>
<pdfrwt beam="2">  1       -2 0.18848182E+00 0.29402132E+04</pdfrwt>
<totfact> 0.12334621E+00</totfact>
</mgrwt>
</event>
<event>
 6    1  0.1603085E-006  0.6581723E+03  0.7818608E-02  0.9791564E-01
         -2   -1    0    0    0  501 -0.00000000000E+00  0.00000000000E+00  0.12476122792E+03  0.12476122792E+03  0.00000000000E+00 0.  1.
          2   -1    0    0  501    0  0.00000000000E+00 -0.00000000000E+00 -0.86803961549E+03  0.86803961549E+03  0.00000000000E+00 0. -1.
         23    2    1    2    0    0  0.22738559843E+03 -0.22759892901E+03 -0.34085706397E+03  0.47758399145E+03  0.91637590384E+02 0.  0.
         13    1    3    3    0    0  0.12039515212E+03 -0.15687243781E+03 -0.25730573700E+03  0.32451532582E+03  0.00000000000E+00 0.  1.
        -13    1    3    3    0    0  0.10699044631E+03 -0.70726491203E+02 -0.83551326966E+02  0.15306866563E+03  0.00000000000E+00 0. -1.
         22    1    1    2    0    0 -0.22738559843E+03  0.22759892901E+03 -0.40242132360E+03  0.51521685196E+03  0.00000000000E+00 0. -1.
<mgrwt>
<rscale>  0 0.65817228E+03</rscale>
<asrwt>0</asrwt>
<pdfrwt beam="1">  1        2 0.13354456E+00 0.65817228E+03</pdfrwt>
<pdfrwt beam="2">  1       -2 0.19194035E-01 0.65817228E+03</pdfrwt>
<totfact> 0.71164662E+02</totfact>
</mgrwt>
</event>
<event>
 6    1  0.1603085E-006  0.1713302E+04  0.7818608E-02  0.8753814E-01
          1   -1    0    0  501    0  0.00000000000E+00  0.00000000000E+00  0.34075884296E+04  0.34075884296E+04  0.00000000000E+00 0. -1.
         -1   -1    0    0    0  501 -0.00000000000E+00 -0.00000000000E+00 -0.21535797622E+03  0.21535797622E+03  0.00000000000E+00 0.  1.
         23    2    1    2    0    0  0.81546818665E+03  0.13269184060E+03  0.20591344043E+04  0.22206261341E+04  0.92468613877E+02 0.  0.
         11    1    3    3    0    0  0.27134286702E+03  0.71167032607E+02  0.60738372678E+03  0.66903414679E+03  0.00000000000E+00 0. -1.
        -11    1    3    3    0    0  0.54412531963E+03  0.61524807989E+02  0.14517506775E+04  0.15515919873E+04  0.00000000000E+00 0.  1.
         22    1    1    2    0    0 -0.81546818665E+03 -0.13269184060E+03  0.11330960491E+04  0.14023202717E+04  0.00000000000E+00 0. -1.
<mgrwt>
<rscale>  0 0.17133025E+04</rscale>
<asrwt>0</asrwt>
<pdfrwt beam="1">  1        1 0.52424434E+00 0.17133025E+04</pdfrwt>
<pdfrwt beam="2">  1       -1 0.33131999E-01 0.17133025E+04</pdfrwt>
<totfact> 0.24183415E+00</totfact>
</mgrwt>
</event>
<event>
 6    1  0.1603085E-006  0.4230412E+04  0.7818608E-02  0.7959612E-01
         -2   -1    0    0    0  501 -0.00000000000E+00  0.00000000000E+00  0.23016495260E+04  0.23016495260E+04  0.00000000000E+00 0.  1.
          2   -1    0    0  501    0  0.00000000000E+00 -0.00000000000E+00 -0.19438655149E+04  0.19438655149E+04  0.00000000000E+00 0. -1.
         23    2    1    2    0    0 -0.15019433146E+04 -0.14602884377E+04 -0.10919546471E+03  0.20992751027E+04  0.82196507144E+02 0.  0.
         13    1    3    3    0    0 -0.20366377157E+03 -0.22945669390E+03 -0.34359143343E+02  0.30872294530E+03  0.00000000000E+00 0.  1.
        -13    1    3    3    0    0 -0.12982795430E+04 -0.12308317439E+04 -0.74836321372E+02  0.17905521574E+04  0.00000000000E+00 0. -1.
         22    1    1    2    0    0  0.15019433146E+04  0.14602884377E+04  0.46697947584E+03  0.21462399382E+04  0.00000000000E+00 0.  1.
<mgrwt>
<rscale>  0 0.42304123E+04</rscale>
<asrwt>0</asrwt>
<pdfrwt beam="1">  1        2 0.29905623E+00 0.42304123E+04</pdfrwt>
<pdfrwt beam="2">  1       -2 0.35409993E+00 0.42304123E+04</pdfrwt>
<totfact> 0.81472603E-02</totfact>
</mgrwt>
</event>
<event>
 6    1  0.1603085E-006  0.2990348E+04  0.7818608E-02  0.8246492E-01
          2   -1    0    0  501    0  0.00000000000E+00  0.00000000000E+00  0.23499988156E+04  0.23499988156E+04  0.00000000000E+00 0. -1.
         -2   -1    0    0    0  501 -0.00000000000E+00 -0.00000000000E+00 -0.95129650299E+03  0.95129650299E+03  0.00000000000E+00 0.  1.
         23    2    1    2    0    0 -0.31133125978E+03  0.13923726309E+04  0.11884009112E+04  0.18591249486E+04  0.91761387997E+02 0.  0.
         13    1    3    3    0    0 -0.11453739544E+03  0.41034242724E+03  0.40168358250E+03  0.58553345165E+03  0.00000000000E+00 0. -1.
        -13    1    3    3    0    0 -0.19679386434E+03  0.98203020365E+03  0.78671732870E+03  0.12735914970E+04  0.00000000000E+00 0.  1.
         22    1    1    2    0    0  0.31133125978E+03 -0.13923726309E+04  0.21030140142E+03  0.14421703700E+04  0.00000000000E+00 0.  1.
<mgrwt>
<rscale>  0 0.29903482E+04</rscale>
<asrwt>0</asrwt>
<pdfrwt beam="1">  1        2 0.36153828E+00 0.29903482E+04</pdfrwt>
<pdfrwt beam="2">  1       -2 0.14635331E+00 0.29903482E+04</pdfrwt>
<totfact> 0.11630489E+00</totfact>
</mgrwt>
</event>
<event>
 6    1  0.1603085E-006  0.1209553E+04  0.7818608E-02  0.9104535E-01
          2   -1    0    0  501    0  0.00000000000E+00  0.00000000000E+00  0.27791308170E+04  0.27791308170E+04  0.00000000000E+00 0. -1.
         -2   -1    0    0    0  501 -0.00000000000E+00 -0.00000000000E+00 -0.13160763715E+03  0.13160763715E+03  0.00000000000E+00 0.  1.
         23    2    1    2    0    0  0.23799062631E+03 -0.40565626403E+03  0.22312117724E+04  0.22826367660E+04  0.10453750114E+03 0.  0.
         13    1    3    3    0    0  0.59779262175E+02 -0.20352268362E+03  0.95045999843E+03  0.97384251886E+03  0.00000000000E+00 0.  1.
        -13    1    3    3    0    0  0.17821136414E+03 -0.20213358041E+03  0.12807517740E+04  0.13087942471E+04  0.00000000000E+00 0. -1.
         22    1    1    2    0    0 -0.23799062631E+03  0.40565626403E+03  0.41631140744E+03  0.62810168820E+03  0.00000000000E+00 0.  1.
<mgrwt>
<rscale>  0 0.12095534E+04</rscale>
<asrwt>0</asrwt>
<pdfrwt beam="1">  1        2 0.42755854E+00 0.12095534E+04</pdfrwt>
<pdfrwt beam="2">  1       -2 0.20247331E-01 0.12095534E+04</pdfrwt>
<totfact> 0.49613830E+01</totfact>
</mgrwt>
</event>
<event>
 6    1  0.1603085E-006  0.1762751E+04  0.7818608E-02  0.8726363E-01
         -2   -1    0    0    0  501 -0.00000000000E+00  0.00000000000E+00  0.37365103202E+03  0.37365103202E+03  0.00000000000E+00 0.  1.
          2   -1    0    0  501    0  0.00000000000E+00 -0.00000000000E+00 -0.20790065046E+04  0.20790065046E+04  0.00000000000E+00 0. -1.
         23    2    1    2    0    0 -0.29099368434E+03  0.67030822470E+03 -0.17513532724E+03  0.75690869506E+03  0.90818221592E+02 0.  0.
         13    1    3    3    0    0 -0.91930719650E+02  0.15336717662E+03 -0.75405869227E+02  0.19405873646E+03  0.00000000000E+00 0. -1.
        -13    1    3    3    0    0 -0.19906296469E+03  0.51694104808E+03 -0.99729458010E+02  0.56284995860E+03  0.00000000000E+00 0.  1.
         22    1    1    2    0    0  0.29099368434E+03 -0.67030822470E+03 -0.15302201454E+04  0.16957488416E+04  0.00000000000E+00 0. -1.
<mgrwt>
<rscale>  0 0.17627512E+04</rscale>
<asrwt>0</asrwt>
<pdfrwt beam="1">  1        2 0.31984715E+00 0.17627512E+04</pdfrwt>
<pdfrwt beam="2">  1       -2 0.57484775E-01 0.17627512E+04</pdfrwt>
<totfact> 0.16205055E+01</totfact>
</mgrwt>
</event>
<event>
 6    1  0.1603085E-006  0.3928126E+04  0.7818608E-02  0.8019205E-01
          2   -1    0    0  501    0  0.00000000000E+00  0.00000000000E+00  0.24543215531E+04  0.24543215531E+04  0.00000000000E+00 0. -1.
         -2   -1    0    0    0  501 -0.00000000000E+00 -0.00000000000E+00 -0.15717350933E+04  0.15717350933E+04  0.00000000000E+00 0.  1.
         23    2    1    2    0    0  0.18202785207E+04 -0.64868375985E+03  0.79516374600E+03  0.20916711512E+04  0.92727065426E+02 0.  0.
         13    1    3    3    0    0  0.82899339498E+03 -0.28515412438E+03  0.31199723079E+03  0.93052952429E+03  0.00000000000E+00 0. -1.
        -13    1    3    3    0    0  0.99128512569E+03 -0.36352963547E+03  0.48316651521E+03  0.11611416269E+04  0.00000000000E+00 0.  1.
         22    1    1    2    0    0 -0.18202785207E+04  0.64868375985E+03  0.87422713824E+02  0.19343854952E+04  0.00000000000E+00 0.  1.
<mgrwt>
<rscale>  0 0.39281259E+04</rscale>
<asrwt>0</asrwt>
<pdfrwt beam="1">  1        2 0.37758793E+00 0.39281259E+04</pdfrwt>
<pdfrwt beam="2">  1       -2 0.24180540E+00 0.39281259E+04</pdfrwt>
<totfact> 0.21192355E-01</totfact>
</mgrwt>
</event>
<event>
 6    1  0.1603085E-006  0.1178272E+04  0.7818608E-02  0.9132091E-01
          1   -1    0    0  501    0  0.00000000000E+00  0.00000000000E+00  0.39289688273E+03  0.39289688273E+03  0.00000000000E+00 0. -1.
         -1   -1    0    0    0  501 -0.00000000000E+00 -0.00000000000E+00 -0.88338971860E+03  0.88338971860E+03  0.00000000000E+00 0.  1.
         23    2    1    2    0    0  0.49197244362E+02 -0.58280108167E+03 -0.21594930138E+03  0.63018163929E+03  0.91745997651E+02 0.  0.
         13    1    3    3    0    0  0.84849489548E+01 -0.21276719453E+03 -0.12518979480E+03  0.24701084622E+03  0.00000000000E+00 0. -1.
        -13    1    3    3    0    0  0.40712295407E+02 -0.37003388714E+03 -0.90759506573E+02  0.38317079307E+03  0.00000000000E+00 0.  1.
         22    1    1    2    0    0 -0.49197244362E+02  0.58280108167E+03 -0.27454353449E+03  0.64610496205E+03  0.00000000000E+00 0. -1.
<mgrwt>
<rscale>  0 0.11782717E+04</rscale>
<asrwt>0</asrwt>
<pdfrwt beam="1">  1        1 0.60445675E-01 0.11782717E+04</pdfrwt>
<pdfrwt beam="2">  1       -1 0.13590611E+00 0.11782717E+04</pdfrwt>
<totfact> 0.27584246E+01</totfact>
</mgrwt>
</event>
<event>
 6    1  0.1603085E-006  0.1485055E+04  0.7818608E-02  0.8894452E-01
          2   -1    0    0  501    0  0.00000000000E+00  0.00000000000E+00  0.20618347498E+04  0.20618347498E+04  0.00000000000E+00 0. -1.
         -2   -1    0    0    0  501 -0.00000000000E+00 -0.00000000000E+00 -0.26740613104E+03  0.26740613104E+03  0.00000000000E+00 0.  1.
         23    2    1    2    0    0  0.21664949180E+03 -0.35411389099E+03 -0.59772797505E+02  0.42913653050E+03  0.90839002623E+02 0.  0.
         11    1    3    3    0    0  0.50765928952E+02 -0.13544765611E+03  0.12866278002E+02  0.14521979272E+03  0.00000000000E+00 0.  1.
        -11    1    3    3    0    0  0.16588356285E+03 -0.21866623487E+03 -0.72639075507E+02  0.28391673777E+03  0.00000000000E+00 0. -1.
         22    1    1    2    0    0 -0.21664949180E+03  0.35411389099E+03  0.18542014162E+04  0.19001043503E+04  0.00000000000E+00 0.  1.
<mgrwt>
<rscale>  0 0.14850552E+04</rscale>
<asrwt>0</asrwt>
<pdfrwt beam="1">  1        2 0.31720534E+00 0.14850552E+04</pdfrwt>
<pdfrwt beam="2">  1       -2 0.41139406E-01 0.14850552E+04</pdfrwt>
<totfact> 0.33429423E+01</totfact>
</mgrwt>
</event>
<event>
 6    1  0.1603085E-006  0.3742795E+04  0.7818608E-02  0.8058544E-01
         -2   -1    0    0    0  501 -0.00000000000E+00  0.00000000000E+00  0.11821521530E+04  0.11821521530E+04  0.00000000000E+00 0.  1.
          2   -1    0    0  501    0  0.00000000000E+00 -0.00000000000E+00 -0.29625024450E+04  0.29625024450E+04  0.00000000000E+00 0. -1.
         23    2    1    2    0    0  0.11293794266E+04 -0.29629497117E+03  0.72716357121E+03  0.13786259695E+04  0.92488407132E+02 0.  0.
         11    1    3    3    0    0  0.86889626692E+03 -0.25218878413E+03  0.59827449811E+03  0.10846715082E+04  0.00000000000E+00 0.  1.
        -11    1    3    3    0    0  0.26048315964E+03 -0.44106187036E+02  0.12888907310E+03  0.29395446136E+03  0.00000000000E+00 0. -1.
         22    1    1    2    0    0 -0.11293794266E+04  0.29629497117E+03 -0.25075138632E+04  0.27660286284E+04  0.00000000000E+00 0. -1.
<mgrwt>
<rscale>  0 0.37427950E+04</rscale>
<asrwt>0</asrwt>
<pdfrwt beam="1">  1        2 0.45576960E+00 0.37427950E+04</pdfrwt>
<pdfrwt beam="2">  1       -2 0.18186956E+00 0.37427950E+04</pdfrwt>
<totfact> 0.26043363E-01</totfact>
</mgrwt>
</event>
<event>
 6    1  0.1603085E-006  0.1730127E+04  0.7818608E-02  0.8744366E-01
         -2   -1    0    0    0  501 -0.00000000000E+00  0.00000000000E+00  0.17699300315E+04  0.17699300315E+04  0.00000000000E+00 0.  1.
          2   -1    0    0  501    0  0.00000000000E+00 -0.00000000000E+00 -0.42280476170E+03  0.42280476170E+03  0.00000000000E+00 0. -1.
         23    2    1    2    0    0  0.12493531158E+03 -0.77249138841E+03  0.11355075488E+04  0.13820968734E+04  0.91992373604E+02 0.  0.
         13    1    3    3    0    0  0.22797784910E+02 -0.22172211968E+03  0.25691831776E+03  0.34012859238E+03  0.00000000000E+00 0.  1.
        -13    1    3    3    0    0  0.10213752667E+03 -0.55076926873E+03  0.87858923105E+03  0.10419682810E+04  0.00000000000E+00 0. -1.
         22    1    1    2    0    0 -0.12493531158E+03  0.77249138841E+03  0.21161772103E+03  0.81063791985E+03  0.00000000000E+00 0. -1.
<mgrwt>
<rscale>  0 0.17301270E+04</rscale>
<asrwt>0</asrwt>
<pdfrwt beam="1">  1        2 0.65046887E-01 0.17301270E+04</pdfrwt>
<pdfrwt beam="2">  1       -2 0.27229692E+00 0.17301270E+04</pdfrwt>
<totfact> 0.33294127E+00</totfact>
</mgrwt>
</event>
<event>
 6    1  0.1603085E-006  0.2577697E+04  0.7818608E-02  0.8375817E-01
         -2   -1    0    0    0  501 -0.00000000000E+00  0.00000000000E+00  0.78804683298E+03  0.78804683298E+03  0.00000000000E+00 0.  1.
          2   -1    0    0  501    0  0.00000000000E+00 -0.00000000000E+00 -0.21079077093E+04  0.21079077093E+04  0.00000000000E+00 0. -1.
         23    2    1    2    0    0  0.12674230037E+04 -0.16513437453E+03 -0.48927145470E+03  0.13716483987E+04  0.91664285507E+02 0.  0.
         13    1    3    3    0    0  0.46572034045E+03 -0.10065802016E+03 -0.16091976128E+03  0.50291414983E+03  0.00000000000E+00 0. -1.
        -13    1    3    3    0    0  0.80170266328E+03 -0.64476354366E+02 -0.32835169342E+03  0.86873424887E+03  0.00000000000E+00 0.  1.
         22    1    1    2    0    0 -0.12674230037E+04  0.16513437453E+03 -0.83058942159E+03  0.15243061436E+04  0.00000000000E+00 0. -1.
<mgrwt>
<rscale>  0 0.25776966E+04</rscale>
<asrwt>0</asrwt>
<pdfrwt beam="1">  1        2 0.32429349E+00 0.25776966E+04</pdfrwt>
<pdfrwt beam="2">  1       -2 0.12123798E+00 0.25776966E+04</pdfrwt>
<totfact> 0.26677749E+00</totfact>
</mgrwt>
</event>
<event>
 6    1  0.1603085E-006  0.2914270E+04  0.7818608E-02  0.8268644E-01
          2   -1    0    0  501    0  0.00000000000E+00  0.00000000000E+00  0.30110824457E+04  0.30110824457E+04  0.00000000000E+00 0. -1.
         -2   -1    0    0    0  501 -0.00000000000E+00 -0.00000000000E+00 -0.70514277222E+03  0.70514277222E+03  0.00000000000E+00 0.  1.
         23    2    1    2    0    0 -0.11245213514E+04 -0.17456496987E+03 -0.30573375526E+01  0.11420285674E+04  0.95909869891E+02 0.  0.
         11    1    3    3    0    0 -0.18521096289E+03 -0.64576557892E+02  0.64688104631E+01  0.19625258753E+03  0.00000000000E+00 0.  1.
        -11    1    3    3    0    0 -0.93931038849E+03 -0.10998841198E+03 -0.95261480157E+01  0.94577597992E+03  0.00000000000E+00 0. -1.
         22    1    1    2    0    0  0.11245213514E+04  0.17456496987E+03  0.23089970111E+04  0.25741966505E+04  0.00000000000E+00 0. -1.
<mgrwt>
<rscale>  0 0.29142704E+04</rscale>
<asrwt>0</asrwt>
<pdfrwt beam="1">  1        2 0.46324345E+00 0.29142704E+04</pdfrwt>
<pdfrwt beam="2">  1       -2 0.10848350E+00 0.29142704E+04</pdfrwt>
<totfact> 0.10031116E+00</totfact>
</mgrwt>
</event>
<event>
 6    1  0.1603085E-006  0.1319661E+04  0.7818608E-02  0.9014117E-01
          2   -1    0    0  501    0  0.00000000000E+00  0.00000000000E+00  0.26487400193E+04  0.26487400193E+04  0.00000000000E+00 0. -1.
         -2   -1    0    0    0  501 -0.00000000000E+00 -0.00000000000E+00 -0.16437116269E+03  0.16437116269E+03  0.00000000000E+00 0.  1.
         23    2    1    2    0    0  0.40109580953E+03  0.51070540676E+03  0.10385639887E+04  0.12281665214E+04  0.89888735910E+02 0.  0.
         13    1    3    3    0    0  0.14737108542E+03  0.24870600376E+03  0.50427613535E+03  0.58126356656E+03  0.00000000000E+00 0. -1.
        -13    1    3    3    0    0  0.25372472410E+03  0.26199940300E+03  0.53428785332E+03  0.64690295485E+03  0.00000000000E+00 0.  1.
         22    1    1    2    0    0 -0.40109580953E+03 -0.51070540676E+03  0.14458048680E+04  0.15849446606E+04  0.00000000000E+00 0.  1.
<mgrwt>
<rscale>  0 0.13196613E+04</rscale>
<asrwt>0</asrwt>
<pdfrwt beam="1">  1        2 0.40749843E+00 0.13196613E+04</pdfrwt>
<pdfrwt beam="2">  1       -2 0.25287873E-01 0.13196613E+04</pdfrwt>
<totfact> 0.39416870E+01</totfact>
</mgrwt>
</event>
<event>
 6    1  0.2063255E-006  0.4825820E+04  0.7818608E-02  0.7855953E-01
          2   -1    0    0  501    0  0.00000000000E+00  0.00000000000E+00  0.27889273996E+04  0.27889273996E+04  0.00000000000E+00 0.  1.
         -2   -1    0    0    0  501 -0.00000000000E+00 -0.00000000000E+00 -0.20875887989E+04  0.20875887989E+04  0.00000000000E+00 0. -1.
         23    2    1    2    0    0  0.10020618909E+04  0.21847691192E+04  0.14760921609E+03  0.24099476572E+04  0.93354658535E+02 0.  0.
         11    1    3    3    0    0  0.50009177653E+03  0.98714013446E+03  0.85666167494E+02  0.11098991496E+04  0.00000000000E+00 0. -1.
        -11    1    3    3    0    0  0.50197011440E+03  0.11976289848E+04  0.61943048599E+02  0.13000485076E+04  0.00000000000E+00 0.  1.
         22    1    1    2    0    0 -0.10020618909E+04 -0.21847691192E+04  0.55372938463E+03  0.24665685413E+04  0.00000000000E+00 0.  1.
<mgrwt>
<rscale>  0 0.48258196E+04</rscale>
<asrwt>0</asrwt>
<pdfrwt beam="1">  1        2 0.42906575E+00 0.48258196E+04</pdfrwt>
<pdfrwt beam="2">  1       -2 0.32116751E+00 0.48258196E+04</pdfrwt>
<totfact> 0.40814579E-02</totfact>
</mgrwt>
</event>
<event>
 6    1  0.1603085E-006  0.2462987E+04  0.7818608E-02  0.8416291E-01
          3   -1    0    0  501    0  0.00000000000E+00  0.00000000000E+00  0.93354198552E+03  0.93354198552E+03  0.00000000000E+00 0. -1.
         -3   -1    0    0    0  501 -0.00000000000E+00 -0.00000000000E+00 -0.16245405597E+04  0.16245405597E+04  0.00000000000E+00 0.  1.
         23    2    1    2    0    0  0.11229338581E+03  0.30067677243E+03  0.88698125458E+03  0.94779168145E+03  0.92504051066E+02 0.  0.
         13    1    3    3    0    0  0.46297834186E+02  0.69382411615E+02  0.34319731305E+03  0.35318805780E+03  0.00000000000E+00 0. -1.
        -13    1    3    3    0    0  0.65995551624E+02  0.23129436081E+03  0.54378394153E+03  0.59460362364E+03  0.00000000000E+00 0.  1.
         22    1    1    2    0    0 -0.11229338581E+03 -0.30067677243E+03 -0.15779798288E+04  0.16102908638E+04  0.00000000000E+00 0.  1.
<mgrwt>
<rscale>  0 0.24629875E+04</rscale>
<asrwt>0</asrwt>
<pdfrwt beam="1">  1        3 0.14362185E+00 0.24629875E+04</pdfrwt>
<pdfrwt beam="2">  1       -3 0.24992931E+00 0.24629875E+04</pdfrwt>
<totfact> 0.61711982E-02</totfact>
</mgrwt>
</event>
<event>
 6    1  0.1603085E-006  0.3610044E+04  0.7818608E-02  0.8088195E-01
          2   -1    0    0  501    0  0.00000000000E+00  0.00000000000E+00  0.17807515019E+04  0.17807515019E+04  0.00000000000E+00 0. -1.
         -2   -1    0    0    0  501 -0.00000000000E+00 -0.00000000000E+00 -0.18296230396E+04  0.18296230396E+04  0.00000000000E+00 0.  1.
         23    2    1    2    0    0  0.90827701111E+03 -0.12443901528E+04 -0.96295955431E+03  0.18189977293E+04  0.89373680082E+02 0.  0.
         13    1    3    3    0    0  0.63594287343E+03 -0.79970032970E+03 -0.64036031594E+03  0.12058214171E+04  0.00000000000E+00 0. -1.
        -13    1    3    3    0    0  0.27233413768E+03 -0.44468982310E+03 -0.32259923836E+03  0.61317631225E+03  0.00000000000E+00 0.  1.
         22    1    1    2    0    0 -0.90827701111E+03  0.12443901528E+04  0.91408801661E+03  0.17913768122E+04  0.00000000000E+00 0. -1.
<mgrwt>
<rscale>  0 0.36100438E+04</rscale>
<asrwt>0</asrwt>
<pdfrwt beam="1">  1        2 0.27396177E+00 0.36100438E+04</pdfrwt>
<pdfrwt beam="2">  1       -2 0.28148046E+00 0.36100438E+04</pdfrwt>
<totfact> 0.29705646E-01</totfact>
</mgrwt>
</event>
<event>
 6    1  0.1603085E-006  0.2232091E+04  0.7818608E-02  0.8505189E-01
         -1   -1    0    0    0  501 -0.00000000000E+00  0.00000000000E+00  0.15734143630E+04  0.15734143630E+04  0.00000000000E+00 0.  1.
          1   -1    0    0  501    0  0.00000000000E+00 -0.00000000000E+00 -0.79162721446E+03  0.79162721446E+03  0.00000000000E+00 0. -1.
         23    2    1    2    0    0 -0.88323304014E+03 -0.52924285804E+03 -0.60531929450E+02  0.10347408464E+04  0.82618997350E+02 0.  0.
         11    1    3    3    0    0 -0.17538747660E+03 -0.82946969804E+02  0.14713316089E+02  0.19456990625E+03  0.00000000000E+00 0. -1.
        -11    1    3    3    0    0 -0.70784556354E+03 -0.44629588823E+03 -0.75245245539E+02  0.84017094014E+03  0.00000000000E+00 0.  1.
         22    1    1    2    0    0  0.88323304014E+03  0.52924285804E+03  0.84231907799E+03  0.13303007311E+04  0.00000000000E+00 0.  1.
<mgrwt>
<rscale>  0 0.22320911E+04</rscale>
<asrwt>0</asrwt>
<pdfrwt beam="1">  1        1 0.12178880E+00 0.22320911E+04</pdfrwt>
<pdfrwt beam="2">  1       -1 0.24206375E+00 0.22320911E+04</pdfrwt>
<totfact> 0.16064156E+00</totfact>
</mgrwt>
</event>
<event>
 6    1  0.1603085E-006  0.4102313E+04  0.7818608E-02  0.7984219E-01
         -2   -1    0    0    0  501 -0.00000000000E+00  0.00000000000E+00  0.31847037047E+04  0.31847037047E+04  0.00000000000E+00 0.  1.
          2   -1    0    0  501    0  0.00000000000E+00 -0.00000000000E+00 -0.13210782859E+04  0.13210782859E+04  0.00000000000E+00 0. -1.
         23    2    1    2    0    0  0.77849590390E+03 -0.54320702365E+03 -0.10635515493E+04  0.14285275738E+04  0.91757223970E+02 0.  0.
         13    1    3    3    0    0  0.24307767168E+03 -0.13039833670E+03 -0.26945317007E+03  0.38561054387E+03  0.00000000000E+00 0.  1.
        -13    1    3    3    0    0  0.53541823222E+03 -0.41280868695E+03 -0.79409837927E+03  0.10429170300E+04  0.00000000000E+00 0. -1.
         22    1    1    2    0    0 -0.77849590390E+03  0.54320702365E+03  0.29271769681E+04  0.30772544168E+04  0.00000000000E+00 0.  1.
<mgrwt>
<rscale>  0 0.41023130E+04</rscale>
<asrwt>0</asrwt>
<pdfrwt beam="1">  1        2 0.20324281E+00 0.41023130E+04</pdfrwt>
<pdfrwt beam="2">  1       -2 0.48995441E+00 0.41023130E+04</pdfrwt>
<totfact> 0.24014808E-02</totfact>
</mgrwt>
</event>
<event>
 6    1  0.1603085E-006  0.2710362E+04  0.7818608E-02  0.8331651E-01
         -1   -1    0    0    0  501 -0.00000000000E+00  0.00000000000E+00  0.73234785812E+03  0.73234785812E+03  0.00000000000E+00 0.  1.
          1   -1    0    0  501    0  0.00000000000E+00 -0.00000000000E+00 -0.25077088101E+04  0.25077088101E+04  0.00000000000E+00 0. -1.
         23    2    1    2    0    0  0.72077954931E+03 -0.84541421707E+03  0.35922790311E+02  0.11152044022E+04  0.90233335143E+02 0.  0.
         11    1    3    3    0    0  0.11422033116E+03 -0.18412854588E+03 -0.76144820247E+01  0.21681232851E+03  0.00000000000E+00 0.  1.
        -11    1    3    3    0    0  0.60655921815E+03 -0.66128567119E+03  0.43537272336E+02  0.89839207372E+03  0.00000000000E+00 0. -1.
         22    1    1    2    0    0 -0.72077954931E+03  0.84541421707E+03 -0.18112837423E+04  0.21248522659E+04  0.00000000000E+00 0. -1.
<mgrwt>
<rscale>  0 0.27103617E+04</rscale>
<asrwt>0</asrwt>
<pdfrwt beam="1">  1        1 0.38580137E+00 0.27103617E+04</pdfrwt>
<pdfrwt beam="2">  1       -1 0.11266890E+00 0.27103617E+04</pdfrwt>
<totfact> 0.84118778E-01</totfact>
</mgrwt>
</event>
<event>
 6    1  0.1603085E-006  0.5872521E+03  0.7818608E-02  0.9932213E-01
         -1   -1    0    0    0  501 -0.00000000000E+00  0.00000000000E+00  0.14003929206E+03  0.14003929206E+03  0.00000000000E+00 0.  1.
          1   -1    0    0  501    0  0.00000000000E+00 -0.00000000000E+00 -0.61565757216E+03  0.61565757216E+03  0.00000000000E+00 0. -1.
         23    2    1    2    0    0  0.15146477011E+03  0.13921812574E+03 -0.50005341252E+03  0.54852461991E+03  0.92209436346E+02 0.  0.
         11    1    3    3    0    0  0.23873226958E+02  0.45432128343E+02 -0.50935339215E+02  0.72307800631E+02  0.00000000000E+00 0.  1.
        -11    1    3    3    0    0  0.12759154315E+03  0.93785997401E+02 -0.44911807330E+03  0.47621681927E+03  0.00000000000E+00 0. -1.
         22    1    1    2    0    0 -0.15146477011E+03 -0.13921812574E+03  0.24435132414E+02  0.20717224432E+03  0.00000000000E+00 0.  1.
<mgrwt>
<rscale>  0 0.58725208E+03</rscale>
<asrwt>0</asrwt>
<pdfrwt beam="1">  1        1 0.94716551E-01 0.58725208E+03</pdfrwt>
<pdfrwt beam="2">  1       -1 0.21544506E-01 0.58725208E+03</pdfrwt>
<totfact> 0.60088273E+02</totfact>
</mgrwt>
</event>
<event>
 6    1  0.1603085E-006  0.7248221E+03  0.7818608E-02  0.9675700E-01
         -1   -1    0    0    0  501 -0.00000000000E+00  0.00000000000E+00  0.15910955776E+03  0.15910955776E+03  0.00000000000E+00 0.  1.
          1   -1    0    0  501    0  0.00000000000E+00 -0.00000000000E+00 -0.82548006680E+03  0.82548006680E+03  0.00000000000E+00 0. -1.
         23    2    1    2    0    0 -0.21567047046E+03 -0.12934048972E+03  0.54133264363E+01  0.26727781251E+03  0.90362662902E+02 0.  0.
         11    1    3    3    0    0 -0.12658130869E+03 -0.72118031579E+02  0.47653681786E+02  0.15327984726E+03  0.00000000000E+00 0.  1.
        -11    1    3    3    0    0 -0.89089161773E+02 -0.57222458145E+02 -0.42240355350E+02  0.11399796525E+03  0.00000000000E+00 0. -1.
         22    1    1    2    0    0  0.21567047046E+03  0.12934048972E+03 -0.67178383547E+03  0.71731181206E+03  0.00000000000E+00 0. -1.
<mgrwt>
<rscale>  0 0.72482210E+03</rscale>
<asrwt>0</asrwt>
<pdfrwt beam="1">  1        1 0.12699693E+00 0.72482210E+03</pdfrwt>
<pdfrwt beam="2">  1       -1 0.24478394E-01 0.72482210E+03</pdfrwt>
<totfact> 0.30853850E+02</totfact>
</mgrwt>
</event>
<event>
 6    1  0.1603085E-006  0.2483814E+04  0.7818608E-02  0.8408775E-01
          1   -1    0    0  501    0  0.00000000000E+00  0.00000000000E+00  0.11809245173E+04  0.11809245173E+04  0.00000000000E+00 0. -1.
         -1   -1    0    0    0  501 -0.00000000000E+00 -0.00000000000E+00 -0.13060389424E+04  0.13060389424E+04  0.00000000000E+00 0.  1.
         23    2    1    2    0    0  0.35995090468E+03 -0.70782066859E+03  0.89125760335E+03  0.11971623693E+04  0.91010275764E+02 0.  0.
         13    1    3    3    0    0  0.18576009774E+03 -0.37976342768E+03  0.54136511601E+03  0.68687936623E+03  0.00000000000E+00 0. -1.
        -13    1    3    3    0    0  0.17419080694E+03 -0.32805724091E+03  0.34989248733E+03  0.51028300308E+03  0.00000000000E+00 0.  1.
         22    1    1    2    0    0 -0.35995090468E+03  0.70782066859E+03 -0.10163720284E+04  0.12898010904E+04  0.00000000000E+00 0.  1.
<mgrwt>
<rscale>  0 0.24838143E+04</rscale>
<asrwt>0</asrwt>
<pdfrwt beam="1">  1        1 0.18168069E+00 0.24838143E+04</pdfrwt>
<pdfrwt beam="2">  1       -1 0.20092907E+00 0.24838143E+04</pdfrwt>
<totfact> 0.14560352E+00</totfact>
</mgrwt>
</event>
<event>
 6    1  0.1603085E-006  0.1901365E+04  0.7818608E-02  0.8654177E-01
          1   -1    0    0  501    0  0.00000000000E+00  0.00000000000E+00  0.15146848713E+04  0.15146848713E+04  0.00000000000E+00 0. -1.
         -1   -1    0    0    0  501 -0.00000000000E+00 -0.00000000000E+00 -0.59668971250E+03  0.59668971250E+03  0.00000000000E+00 0.  1.
         23    2    1    2    0    0 -0.86180960933E+03 -0.27533089951E+03  0.77697375045E+03  0.11957273021E+04  0.86906070487E+02 0.  0.
         13    1    3    3    0    0 -0.69797204090E+03 -0.23686542633E+03  0.58962063692E+03  0.94388701419E+03  0.00000000000E+00 0.  1.
        -13    1    3    3    0    0 -0.16383756843E+03 -0.38465473184E+02  0.18735311353E+03  0.25184028789E+03  0.00000000000E+00 0. -1.
         22    1    1    2    0    0  0.86180960933E+03  0.27533089951E+03  0.14102140839E+03  0.91564728176E+03  0.00000000000E+00 0.  1.
<mgrwt>
<rscale>  0 0.19013646E+04</rscale>
<asrwt>0</asrwt>
<pdfrwt beam="1">  1        1 0.23302844E+00 0.19013646E+04</pdfrwt>
<pdfrwt beam="2">  1       -1 0.91798417E-01 0.19013646E+04</pdfrwt>
<totfact> 0.69107665E+00</totfact>
</mgrwt>
</event>
<event>
 6    1  0.2071701E-006  0.3080734E+04  0.7818608E-02  0.8221045E-01
          2   -1    0    0  501    0  0.00000000000E+00  0.00000000000E+00  0.28491931876E+04  0.28491931876E+04  0.00000000000E+00 0. -1.
         -2   -1    0    0    0  501 -0.00000000000E+00 -0.00000000000E+00 -0.83277255880E+03  0.83277255880E+03  0.00000000000E+00 0.  1.
         23    2    1    2    0    0 -0.87250690908E+03 -0.11371720019E+02 -0.50603440956E+03  0.10128503418E+04  0.91637158695E+02 0.  0.
         13    1    3    3    0    0 -0.33140747821E+03 -0.40154666608E+02 -0.22360679680E+03  0.40180009138E+03  0.00000000000E+00 0.  1.
        -13    1    3    3    0    0 -0.54109943087E+03  0.28782946589E+02 -0.28242761276E+03  0.61105025043E+03  0.00000000000E+00 0. -1.
         22    1    1    2    0    0  0.87250690908E+03  0.11371720019E+02  0.25224550384E+04  0.26691154046E+04  0.00000000000E+00 0. -1.
<mgrwt>
<rscale>  0 0.30807336E+04</rscale>
<asrwt>0</asrwt>
<pdfrwt beam="1">  1        2 0.43833741E+00 0.30807336E+04</pdfrwt>
<pdfrwt beam="2">  1       -2 0.12811886E+00 0.30807336E+04</pdfrwt>
<totfact> 0.82668739E-01</totfact>
</mgrwt>
</event>
<event>
 6    1  0.1603085E-006  0.1544188E+04  0.7818608E-02  0.8855589E-01
         -1   -1    0    0    0  501 -0.00000000000E+00  0.00000000000E+00  0.45069223400E+03  0.45069223400E+03  0.00000000000E+00 0.  1.
          1   -1    0    0  501    0  0.00000000000E+00 -0.00000000000E+00 -0.13226960856E+04  0.13226960856E+04  0.00000000000E+00 0. -1.
         23    2    1    2    0    0 -0.67151855940E+03  0.20030996259E+03 -0.72796730394E+02  0.71047097601E+03  0.91697257654E+02 0.  0.
         11    1    3    3    0    0 -0.23562026337E+02 -0.20657286974E+01 -0.17450834932E+02  0.29393331896E+02  0.00000000000E+00 0. -1.
        -11    1    3    3    0    0 -0.64795653307E+03  0.20237569129E+03 -0.55345895463E+02  0.68107764412E+03  0.00000000000E+00 0.  1.
         22    1    1    2    0    0  0.67151855940E+03 -0.20030996259E+03 -0.79920712122E+03  0.10629173436E+04  0.00000000000E+00 0. -1.
<mgrwt>
<rscale>  0 0.15441876E+04</rscale>
<asrwt>0</asrwt>
<pdfrwt beam="1">  1        1 0.20349171E+00 0.15441876E+04</pdfrwt>
<pdfrwt beam="2">  1       -1 0.69337266E-01 0.15441876E+04</pdfrwt>
<totfact> 0.17672488E+01</totfact>
</mgrwt>
</event>
<event>
 6    1  0.4101355E-006  0.3683030E+04  0.7818608E-02  0.8071733E-01
          1   -1    0    0  501    0  0.00000000000E+00  0.00000000000E+00  0.23688636479E+04  0.23688636479E+04  0.00000000000E+00 0. -1.
         -1   -1    0    0    0  501 -0.00000000000E+00 -0.00000000000E+00 -0.14315631399E+04  0.14315631399E+04  0.00000000000E+00 0.  1.
         23    2    1    2    0    0  0.11038021766E+03 -0.33208619425E+03  0.23336941431E+04  0.23608503859E+04  0.70860130751E+02 0.  0.
         11    1    3    3    0    0  0.39303605742E+02 -0.67364088021E+02  0.37098651092E+03  0.37909587846E+03  0.00000000000E+00 0.  1.
        -11    1    3    3    0    0  0.71076611916E+02 -0.26472210622E+03  0.19627076322E+04  0.19817545074E+04  0.00000000000E+00 0. -1.
         22    1    1    2    0    0 -0.11038021766E+03  0.33208619425E+03 -0.13963936350E+04  0.14395764019E+04  0.00000000000E+00 0.  1.
<mgrwt>
<rscale>  0 0.36830302E+04</rscale>
<asrwt>0</asrwt>
<pdfrwt beam="1">  1        1 0.36444056E+00 0.36830302E+04</pdfrwt>
<pdfrwt beam="2">  1       -1 0.22024048E+00 0.36830302E+04</pdfrwt>
<totfact> 0.14704107E-01</totfact>
</mgrwt>
</event>
<event>
 6    1  0.1603085E-006  0.1697716E+04  0.7818608E-02  0.8762668E-01
         -1   -1    0    0    0  501 -0.00000000000E+00  0.00000000000E+00  0.68046003239E+03  0.68046003239E+03  0.00000000000E+00 0.  1.
          1   -1    0    0  501    0  0.00000000000E+00 -0.00000000000E+00 -0.10589306884E+04  0.10589306884E+04  0.00000000000E+00 0. -1.
         23    2    1    2    0    0 -0.23500674677E+03  0.51007129358E+03  0.45883597516E+03  0.73118276101E+03  0.93257076574E+02 0.  0.
         11    1    3    3    0    0 -0.14806688455E+03  0.23794052158E+03  0.26693552960E+03  0.38703239021E+03  0.00000000000E+00 0.  1.
        -11    1    3    3    0    0 -0.86939862219E+02  0.27213077200E+03  0.19190044556E+03  0.34415037080E+03  0.00000000000E+00 0. -1.
         22    1    1    2    0    0  0.23500674677E+03 -0.51007129358E+03 -0.83730663118E+03  0.10082079598E+04  0.00000000000E+00 0. -1.
<mgrwt>
<rscale>  0 0.16977161E+04</rscale>
<asrwt>0</asrwt>
<pdfrwt beam="1">  1        1 0.16291241E+00 0.16977161E+04</pdfrwt>
<pdfrwt beam="2">  1       -1 0.10468616E+00 0.16977161E+04</pdfrwt>
<totfact> 0.11118266E+01</totfact>
</mgrwt>
</event>
<event>
 6    1  0.1603085E-006  0.1628958E+04  0.7818608E-02  0.8802953E-01
          2   -1    0    0  501    0  0.00000000000E+00  0.00000000000E+00  0.22471030487E+04  0.22471030487E+04  0.00000000000E+00 0. -1.
         -2   -1    0    0    0  501 -0.00000000000E+00 -0.00000000000E+00 -0.29521398517E+03  0.29521398517E+03  0.00000000000E+00 0.  1.
         23    2    1    2    0    0 -0.40991420113E+03  0.56933082825E+02 -0.11107189976E+03  0.43825454329E+03  0.91973091680E+02 0.  0.
         11    1    3    3    0    0 -0.15440737218E+03  0.64093234063E+02 -0.28158806683E+02  0.16953612485E+03  0.00000000000E+00 0.  1.
        -11    1    3    3    0    0 -0.25550682895E+03 -0.71601512386E+01 -0.82913093074E+02  0.26871841844E+03  0.00000000000E+00 0. -1.
         22    1    1    2    0    0  0.40991420113E+03 -0.56933082825E+02  0.20629609633E+04  0.21040624906E+04  0.00000000000E+00 0. -1.
<mgrwt>
<rscale>  0 0.16289583E+04</rscale>
<asrwt>0</asrwt>
<pdfrwt beam="1">  1        2 0.34570815E+00 0.16289583E+04</pdfrwt>
<pdfrwt beam="2">  1       -2 0.45417538E-01 0.16289583E+04</pdfrwt>
<totfact> 0.21384531E+01</totfact>
</mgrwt>
</event>
<event>
 6    1  0.1603085E-006  0.1548764E+04  0.7818608E-02  0.8852657E-01
         -1   -1    0    0    0  501 -0.00000000000E+00  0.00000000000E+00  0.51421034838E+03  0.51421034838E+03  0.00000000000E+00 0.  1.
          1   -1    0    0  501    0  0.00000000000E+00 -0.00000000000E+00 -0.11661913202E+04  0.11661913202E+04  0.00000000000E+00 0. -1.
         23    2    1    2    0    0  0.20799471547E+02 -0.28152006052E+03 -0.11064137021E+04  0.11454294555E+04  0.90394662603E+02 0.  0.
         11    1    3    3    0    0 -0.28727024334E+02 -0.16513273674E+03 -0.55872631277E+03  0.58332594255E+03  0.00000000000E+00 0.  1.
        -11    1    3    3    0    0  0.49526495882E+02 -0.11638732377E+03 -0.54768738930E+03  0.56210351300E+03  0.00000000000E+00 0. -1.
         22    1    1    2    0    0 -0.20799471547E+02  0.28152006052E+03  0.45443273020E+03  0.53497221308E+03  0.00000000000E+00 0.  1.
<mgrwt>
<rscale>  0 0.15487642E+04</rscale>
<asrwt>0</asrwt>
<pdfrwt beam="1">  1        1 0.17941405E+00 0.15487642E+04</pdfrwt>
<pdfrwt beam="2">  1       -1 0.79109285E-01 0.15487642E+04</pdfrwt>
<totfact> 0.17419779E+01</totfact>
</mgrwt>
</event>
<event>
 6    1  0.1603085E-006  0.2585508E+04  0.7818608E-02  0.8373141E-01
         -2   -1    0    0    0  501 -0.00000000000E+00  0.00000000000E+00  0.56187936679E+03  0.56187936679E+03  0.00000000000E+00 0.  1.
          2   -1    0    0  501    0  0.00000000000E+00 -0.00000000000E+00 -0.29743258030E+04  0.29743258030E+04  0.00000000000E+00 0. -1.
         23    2    1    2    0    0  0.11500445154E+04  0.58587254967E+03 -0.11587147296E+04  0.17368463328E+04  0.90367735731E+02 0.  0.
         11    1    3    3    0    0  0.89723397082E+03  0.42595348733E+03 -0.92487942646E+03  0.13571540536E+04  0.00000000000E+00 0.  1.
        -11    1    3    3    0    0  0.25281054455E+03  0.15991906235E+03 -0.23383530309E+03  0.37969227923E+03  0.00000000000E+00 0. -1.
         22    1    1    2    0    0 -0.11500445154E+04 -0.58587254967E+03 -0.12537317066E+04  0.17993588369E+04  0.00000000000E+00 0.  1.
<mgrwt>
<rscale>  0 0.25855075E+04</rscale>
<asrwt>0</asrwt>
<pdfrwt beam="1">  1        2 0.45758858E+00 0.25855075E+04</pdfrwt>
<pdfrwt beam="2">  1       -2 0.86442980E-01 0.25855075E+04</pdfrwt>
<totfact> 0.18551415E+00</totfact>
</mgrwt>
</event>
<event>
 6    1  0.1854595E-006  0.2581567E+04  0.7818608E-02  0.8374490E-01
         -2   -1    0    0    0  501 -0.00000000000E+00  0.00000000000E+00  0.74348594840E+03  0.74348594840E+03  0.00000000000E+00 0.  1.
          2   -1    0    0  501    0  0.00000000000E+00 -0.00000000000E+00 -0.22409590721E+04  0.22409590721E+04  0.00000000000E+00 0. -1.
         23    2    1    2    0    0  0.84085510618E+03  0.18343562891E+03 -0.18594588190E+04  0.20507857769E+04  0.86309116147E+02 0.  0.
         13    1    3    3    0    0  0.57252433976E+03  0.14868003714E+03 -0.11961866370E+04  0.13344483293E+04  0.00000000000E+00 0.  1.
        -13    1    3    3    0    0  0.26833076641E+03  0.34755591771E+02 -0.66327218200E+03  0.71633744756E+03  0.00000000000E+00 0. -1.
         22    1    1    2    0    0 -0.84085510618E+03 -0.18343562891E+03  0.36198569532E+03  0.93365924360E+03  0.00000000000E+00 0.  1.
<mgrwt>
<rscale>  0 0.25815666E+04</rscale>
<asrwt>0</asrwt>
<pdfrwt beam="1">  1        2 0.34476293E+00 0.25815666E+04</pdfrwt>
<pdfrwt beam="2">  1       -2 0.11438245E+00 0.25815666E+04</pdfrwt>
<totfact> 0.25912843E+00</totfact>
</mgrwt>
</event>
<event>
 6    1  0.1603085E-006  0.2015160E+04  0.7818608E-02  0.8599565E-01
         -2   -1    0    0    0  501 -0.00000000000E+00  0.00000000000E+00  0.28865460351E+03  0.28865460351E+03  0.00000000000E+00 0.  1.
          2   -1    0    0  501    0  0.00000000000E+00 -0.00000000000E+00 -0.35170676288E+04  0.35170676288E+04  0.00000000000E+00 0. -1.
         23    2    1    2    0    0 -0.84724155388E+03  0.32572930847E+03 -0.80076251965E+03  0.12139265593E+04  0.92082818830E+02 0.  0.
         11    1    3    3    0    0 -0.65873758888E+03  0.23926055849E+03 -0.56745753901E+03  0.90176986223E+03  0.00000000000E+00 0.  1.
        -11    1    3    3    0    0 -0.18850396500E+03  0.86468749982E+02 -0.23330498064E+03  0.31215669708E+03  0.00000000000E+00 0. -1.
         22    1    1    2    0    0  0.84724155388E+03 -0.32572930847E+03 -0.24276505057E+04  0.25917956730E+04  0.00000000000E+00 0. -1.
<mgrwt>
<rscale>  0 0.20151603E+04</rscale>
<asrwt>0</asrwt>
<pdfrwt beam="1">  1        2 0.54108736E+00 0.20151603E+04</pdfrwt>
<pdfrwt beam="2">  1       -2 0.44408398E-01 0.20151603E+04</pdfrwt>
<totfact> 0.35487731E+00</totfact>
</mgrwt>
</event>
<event>
 6    1  0.1603085E-006  0.2498845E+04  0.7818608E-02  0.8403397E-01
          2   -1    0    0  501    0  0.00000000000E+00  0.00000000000E+00  0.10165535404E+04  0.10165535404E+04  0.00000000000E+00 0. -1.
         -2   -1    0    0    0  501 -0.00000000000E+00 -0.00000000000E+00 -0.15356359490E+04  0.15356359490E+04  0.00000000000E+00 0.  1.
         23    2    1    2    0    0  0.92202392232E+03  0.42021892417E+03 -0.10035761329E+04  0.14290482577E+04  0.91114272333E+02 0.  0.
         13    1    3    3    0    0  0.20752821401E+03  0.11353079595E+03 -0.18735433748E+03  0.30175958810E+03  0.00000000000E+00 0. -1.
        -13    1    3    3    0    0  0.71449570831E+03  0.30668812822E+03 -0.81622179545E+03  0.11272886696E+04  0.00000000000E+00 0.  1.
         22    1    1    2    0    0 -0.92202392232E+03 -0.42021892417E+03  0.48449372424E+03  0.11231412317E+04  0.00000000000E+00 0. -1.
<mgrwt>
<rscale>  0 0.24988447E+04</rscale>
<asrwt>0</asrwt>
<pdfrwt beam="1">  1        2 0.15639285E+00 0.24988447E+04</pdfrwt>
<pdfrwt beam="2">  1       -2 0.23625169E+00 0.24988447E+04</pdfrwt>
<totfact> 0.17132279E+00</totfact>
</mgrwt>
</event>
<event>
 6    1  0.1603085E-006  0.1097362E+04  0.7818608E-02  0.9207767E-01
          2   -1    0    0  501    0  0.00000000000E+00  0.00000000000E+00  0.68546345920E+03  0.68546345920E+03  0.00000000000E+00 0.  1.
         -2   -1    0    0    0  501 -0.00000000000E+00 -0.00000000000E+00 -0.43919339871E+03  0.43919339871E+03  0.00000000000E+00 0. -1.
         23    2    1    2    0    0 -0.40368223830E+03 -0.36028977917E+03  0.57272922568E+02  0.55151813767E+03  0.90133201565E+02 0.  0.
         11    1    3    3    0    0 -0.82327343272E+02 -0.29828189664E+02  0.72896754223E+01  0.87867239155E+02  0.00000000000E+00 0.  1.
        -11    1    3    3    0    0 -0.32135489503E+03 -0.33046158951E+03  0.49983247145E+02  0.46365089851E+03  0.00000000000E+00 0. -1.
         22    1    1    2    0    0  0.40368223830E+03  0.36028977917E+03  0.18899713792E+03  0.57313872024E+03  0.00000000000E+00 0.  1.
<mgrwt>
<rscale>  0 0.10973623E+04</rscale>
<asrwt>0</asrwt>
<pdfrwt beam="1">  1        2 0.10545592E+00 0.10973623E+04</pdfrwt>
<pdfrwt beam="2">  1       -2 0.67568215E-01 0.10973623E+04</pdfrwt>
<totfact> 0.83935025E+01</totfact>
</mgrwt>
</event>
<event>
 6    1  0.1603085E-006  0.2662580E+04  0.7818608E-02  0.8347250E-01
         -2   -1    0    0    0  501 -0.00000000000E+00  0.00000000000E+00  0.54750125358E+03  0.54750125358E+03  0.00000000000E+00 0. -1.
          2   -1    0    0  501    0  0.00000000000E+00 -0.00000000000E+00 -0.32371294734E+04  0.32371294734E+04  0.00000000000E+00 0.  1.
         23    2    1    2    0    0  0.39765210727E+03 -0.12071333990E+04 -0.19020336402E+04  0.22894372735E+04  0.92156495897E+02 0.  0.
         13    1    3    3    0    0  0.35453418857E+02 -0.17894886969E+03 -0.23256742950E+03  0.29557951914E+03  0.00000000000E+00 0.  1.
        -13    1    3    3    0    0  0.36219868842E+03 -0.10281845293E+04 -0.16694662107E+04  0.19938577544E+04  0.00000000000E+00 0. -1.
         22    1    1    2    0    0 -0.39765210727E+03  0.12071333990E+04 -0.78759457962E+03  0.14951934534E+04  0.00000000000E+00 0. -1.
<mgrwt>
<rscale>  0 0.26625795E+04</rscale>
<asrwt>0</asrwt>
<pdfrwt beam="1">  1        2 0.49801991E+00 0.26625795E+04</pdfrwt>
<pdfrwt beam="2">  1       -2 0.84230963E-01 0.26625795E+04</pdfrwt>
<totfact> 0.13271790E+00</totfact>
</mgrwt>
</event>
<event>
 6    1  0.1603085E-006  0.3705419E+04  0.7818608E-02  0.8066762E-01
          2   -1    0    0  501    0  0.00000000000E+00  0.00000000000E+00  0.22571441643E+04  0.22571441643E+04  0.00000000000E+00 0. -1.
         -2   -1    0    0    0  501 -0.00000000000E+00 -0.00000000000E+00 -0.15207412240E+04  0.15207412240E+04  0.00000000000E+00 0.  1.
         23    2    1    2    0    0  0.90910803522E+03  0.13612360286E+04 -0.51382316005E+03  0.17181508794E+04  0.92667466595E+02 0.  0.
         11    1    3    3    0    0  0.59179355612E+03  0.95991161413E+03 -0.36680643718E+03  0.11858317260E+04  0.00000000000E+00 0. -1.
        -11    1    3    3    0    0  0.31731447910E+03  0.40132441442E+03 -0.14701672287E+03  0.53231915338E+03  0.00000000000E+00 0.  1.
         22    1    1    2    0    0 -0.90910803522E+03 -0.13612360286E+04  0.12502261004E+04  0.20597345089E+04  0.00000000000E+00 0. -1.
<mgrwt>
<rscale>  0 0.37054188E+04</rscale>
<asrwt>0</asrwt>
<pdfrwt beam="1">  1        2 0.34725295E+00 0.37054188E+04</pdfrwt>
<pdfrwt beam="2">  1       -2 0.23396019E+00 0.37054188E+04</pdfrwt>
<totfact> 0.31289141E-01</totfact>
</mgrwt>
</event>
<event>
 6    1  0.1603085E-006  0.5620911E+04  0.7818608E-02  0.7739267E-01
          2   -1    0    0  501    0  0.00000000000E+00  0.00000000000E+00  0.19156746912E+04  0.19156746912E+04  0.00000000000E+00 0. -1.
         -2   -1    0    0    0  501 -0.00000000000E+00 -0.00000000000E+00 -0.41231741059E+04  0.41231741059E+04  0.00000000000E+00 0.  1.
         23    2    1    2    0    0  0.81432031997E+03 -0.94095402143E+03  0.16023849100E+04  0.20308903866E+04  0.91467527988E+02 0.  0.
         11    1    3    3    0    0  0.73538420652E+02 -0.12092588493E+03  0.15550896944E+03  0.21027127368E+03  0.00000000000E+00 0.  1.
        -11    1    3    3    0    0  0.74078189932E+03 -0.82002813650E+03  0.14468759405E+04  0.18206191129E+04  0.00000000000E+00 0. -1.
         22    1    1    2    0    0 -0.81432031997E+03  0.94095402143E+03 -0.38098843246E+04  0.40079584106E+04  0.00000000000E+00 0.  1.
<mgrwt>
<rscale>  0 0.56209111E+04</rscale>
<asrwt>0</asrwt>
<pdfrwt beam="1">  1        2 0.29471919E+00 0.56209111E+04</pdfrwt>
<pdfrwt beam="2">  1       -2 0.63433447E+00 0.56209111E+04</pdfrwt>
<totfact> 0.19937067E-03</totfact>
</mgrwt>
</event>
<event>
 6    1  0.1603085E-006  0.1745720E+04  0.7818608E-02  0.8735710E-01
          1   -1    0    0  501    0  0.00000000000E+00  0.00000000000E+00  0.57569403045E+03  0.57569403045E+03  0.00000000000E+00 0. -1.
         -1   -1    0    0    0  501 -0.00000000000E+00 -0.00000000000E+00 -0.13234185765E+04  0.13234185765E+04  0.00000000000E+00 0.  1.
         23    2    1    2    0    0 -0.14624311210E+03 -0.74702416929E+03  0.84834582121E+02  0.77102269065E+03  0.88582875529E+02 0.  0.
         13    1    3    3    0    0 -0.10337691820E+03 -0.30207077480E+03  0.40006675350E+02  0.32176711187E+03  0.00000000000E+00 0. -1.
        -13    1    3    3    0    0 -0.42866193903E+02 -0.44495339448E+03  0.44827906770E+02  0.44925557878E+03  0.00000000000E+00 0.  1.
         22    1    1    2    0    0  0.14624311210E+03  0.74702416929E+03 -0.83255912813E+03  0.11280899163E+04  0.00000000000E+00 0.  1.
<mgrwt>
<rscale>  0 0.17457195E+04</rscale>
<asrwt>0</asrwt>
<pdfrwt beam="1">  1        1 0.88568314E-01 0.17457195E+04</pdfrwt>
<pdfrwt beam="2">  1       -1 0.20360286E+00 0.17457195E+04</pdfrwt>
<totfact> 0.48974297E+00</totfact>
</mgrwt>
</event>
<event>
 6    1  0.1603085E-006  0.1627336E+04  0.7818608E-02  0.8803929E-01
          1   -1    0    0  501    0  0.00000000000E+00  0.00000000000E+00  0.16417695159E+04  0.16417695159E+04  0.00000000000E+00 0. -1.
         -1   -1    0    0    0  501 -0.00000000000E+00 -0.00000000000E+00 -0.40325711335E+03  0.40325711335E+03  0.00000000000E+00 0.  1.
         23    2    1    2    0    0  0.41851206093E+03 -0.44762152855E+03  0.12890565398E+04  0.14301509607E+04  0.90264221332E+02 0.  0.
         13    1    3    3    0    0  0.18216060858E+03 -0.17781844370E+03  0.63641441713E+03  0.68543795968E+03  0.00000000000E+00 0. -1.
        -13    1    3    3    0    0  0.23635145235E+03 -0.26980308485E+03  0.65264212271E+03  0.74471300107E+03  0.00000000000E+00 0.  1.
         22    1    1    2    0    0 -0.41851206093E+03  0.44762152855E+03 -0.50544137247E+02  0.61487566855E+03  0.00000000000E+00 0.  1.
<mgrwt>
<rscale>  0 0.16273355E+04</rscale>
<asrwt>0</asrwt>
<pdfrwt beam="1">  1        1 0.25257992E+00 0.16273355E+04</pdfrwt>
<pdfrwt beam="2">  1       -1 0.62039557E-01 0.16273355E+04</pdfrwt>
<totfact> 0.13178789E+01</totfact>
</mgrwt>
</event>
<event>
 6    1  0.1603085E-006  0.1461038E+04  0.7818608E-02  0.8910784E-01
          3   -1    0    0  501    0  0.00000000000E+00  0.00000000000E+00  0.16184499959E+04  0.16184499959E+04  0.00000000000E+00 0. -1.
         -3   -1    0    0    0  501 -0.00000000000E+00 -0.00000000000E+00 -0.32973389574E+03  0.32973389574E+03  0.00000000000E+00 0.  1.
         23    2    1    2    0    0  0.59261295732E+03  0.17725871376E+03  0.11578143267E+04  0.13159291621E+04  0.92329712261E+02 0.  0.
         11    1    3    3    0    0  0.29789980376E+03  0.68917806615E+02  0.48316888056E+03  0.57179202888E+03  0.00000000000E+00 0.  1.
        -11    1    3    3    0    0  0.29471315356E+03  0.10834090714E+03  0.67464544609E+03  0.74413713318E+03  0.00000000000E+00 0. -1.
         22    1    1    2    0    0 -0.59261295732E+03 -0.17725871376E+03  0.13090177352E+03  0.63225472960E+03  0.00000000000E+00 0.  1.
<mgrwt>
<rscale>  0 0.14610377E+04</rscale>
<asrwt>0</asrwt>
<pdfrwt beam="1">  1        3 0.24899230E+00 0.14610377E+04</pdfrwt>
<pdfrwt beam="2">  1       -3 0.50728293E-01 0.14610377E+04</pdfrwt>
<totfact> 0.73377155E-01</totfact>
</mgrwt>
</event>
<event>
 6    1  0.1603085E-006  0.2134311E+04  0.7818608E-02  0.8546278E-01
         -1   -1    0    0    0  501 -0.00000000000E+00  0.00000000000E+00  0.63569361448E+03  0.63569361448E+03  0.00000000000E+00 0.  1.
          1   -1    0    0  501    0  0.00000000000E+00 -0.00000000000E+00 -0.17914622253E+04  0.17914622253E+04  0.00000000000E+00 0. -1.
         23    2    1    2    0    0 -0.35890207737E+03 -0.25502948222E+03  0.52416388605E+03  0.69048548188E+03  0.90397363334E+02 0.  0.
         13    1    3    3    0    0 -0.21768979880E+03 -0.15975385347E+03  0.38643030488E+03  0.47142180977E+03  0.00000000000E+00 0.  1.
        -13    1    3    3    0    0 -0.14121227857E+03 -0.95275628744E+02  0.13773358118E+03  0.21906367211E+03  0.00000000000E+00 0. -1.
         22    1    1    2    0    0  0.35890207737E+03  0.25502948222E+03 -0.16799324969E+04  0.17366703579E+04  0.00000000000E+00 0. -1.
<mgrwt>
<rscale>  0 0.21343112E+04</rscale>
<asrwt>0</asrwt>
<pdfrwt beam="1">  1        1 0.27560957E+00 0.21343112E+04</pdfrwt>
<pdfrwt beam="2">  1       -1 0.97799019E-01 0.21343112E+04</pdfrwt>
<totfact> 0.37958440E+00</totfact>
</mgrwt>
</event>
<event>
 6    1  0.1603085E-006  0.6823930E+04  0.7818608E-02  0.7595871E-01
         -2   -1    0    0    0  501 -0.00000000000E+00  0.00000000000E+00  0.27527690818E+04  0.27527690818E+04  0.00000000000E+00 0.  1.
          2   -1    0    0  501    0  0.00000000000E+00 -0.00000000000E+00 -0.42290162558E+04  0.42290162558E+04  0.00000000000E+00 0. -1.
         23    2    1    2    0    0  0.29329585266E+04 -0.55121527290E+03 -0.24290708991E+04  0.38490617547E+04  0.93845420034E+02 0.  0.
         13    1    3    3    0    0  0.15949411146E+04 -0.31472366218E+03 -0.13802537547E+04  0.21326013622E+04  0.00000000000E+00 0.  1.
        -13    1    3    3    0    0  0.13380174120E+04 -0.23649161072E+03 -0.10488171444E+04  0.17164603925E+04  0.00000000000E+00 0. -1.
         22    1    1    2    0    0 -0.29329585266E+04  0.55121527290E+03  0.95282372515E+03  0.31327235829E+04  0.00000000000E+00 0.  1.
<mgrwt>
<rscale>  0 0.68239300E+04</rscale>
<asrwt>0</asrwt>
<pdfrwt beam="1">  1        2 0.65061788E+00 0.68239300E+04</pdfrwt>
<pdfrwt beam="2">  1       -2 0.42350294E+00 0.68239300E+04</pdfrwt>
<totfact> 0.71667789E-04</totfact>
</mgrwt>
</event>
<event>
 6    1  0.1603085E-006  0.1948080E+04  0.7818608E-02  0.8631287E-01
          1   -1    0    0  501    0  0.00000000000E+00  0.00000000000E+00  0.32044132047E+04  0.32044132047E+04  0.00000000000E+00 0. -1.
         -1   -1    0    0    0  501 -0.00000000000E+00 -0.00000000000E+00 -0.29607735947E+03  0.29607735947E+03  0.00000000000E+00 0.  1.
         23    2    1    2    0    0 -0.80171542321E+02  0.68929924718E+03  0.26801242331E+04  0.27699828857E+04  0.90434252353E+02 0.  0.
         13    1    3    3    0    0  0.18195394985E+02  0.18028369428E+03  0.72207123480E+03  0.74445963688E+03  0.00000000000E+00 0. -1.
        -13    1    3    3    0    0 -0.98366937306E+02  0.50901555290E+03  0.19580529983E+04  0.20255232488E+04  0.00000000000E+00 0.  1.
         22    1    1    2    0    0  0.80171542321E+02 -0.68929924718E+03  0.22821161214E+03  0.73050767845E+03  0.00000000000E+00 0.  1.
<mgrwt>
<rscale>  0 0.19480803E+04</rscale>
<asrwt>0</asrwt>
<pdfrwt beam="1">  1        1 0.49298662E+00 0.19480803E+04</pdfrwt>
<pdfrwt beam="2">  1       -1 0.45550365E-01 0.19480803E+04</pdfrwt>
<totfact> 0.18876465E+00</totfact>
</mgrwt>
</event>
<event>
 6    1  0.1620618E-006  0.4132086E+04  0.7818608E-02  0.7978418E-01
          2   -1    0    0  501    0  0.00000000000E+00  0.00000000000E+00  0.24969612619E+04  0.24969612619E+04  0.00000000000E+00 0. -1.
         -2   -1    0    0    0  501 -0.00000000000E+00 -0.00000000000E+00 -0.17094913229E+04  0.17094913229E+04  0.00000000000E+00 0.  1.
         23    2    1    2    0    0 -0.93636573681E+03 -0.71888304148E+03  0.21187696047E+04  0.24271458601E+04  0.90987737340E+02 0.  0.
         13    1    3    3    0    0 -0.23610461692E+03 -0.13317290460E+03  0.48177420383E+03  0.55279905583E+03  0.00000000000E+00 0. -1.
        -13    1    3    3    0    0 -0.70026111988E+03 -0.58571013688E+03  0.16369954008E+04  0.18743468043E+04  0.00000000000E+00 0.  1.
         22    1    1    2    0    0  0.93636573681E+03  0.71888304148E+03 -0.13312996657E+04  0.17793067246E+04  0.00000000000E+00 0.  1.
<mgrwt>
<rscale>  0 0.41320860E+04</rscale>
<asrwt>0</asrwt>
<pdfrwt beam="1">  1        2 0.38414789E+00 0.41320860E+04</pdfrwt>
<pdfrwt beam="2">  1       -2 0.26299866E+00 0.41320860E+04</pdfrwt>
<totfact> 0.14591849E-01</totfact>
</mgrwt>
</event>
<event>
 6    1  0.1603085E-006  0.3101072E+04  0.7818608E-02  0.8215444E-01
          2   -1    0    0  501    0  0.00000000000E+00  0.00000000000E+00  0.11291982186E+04  0.11291982186E+04  0.00000000000E+00 0. -1.
         -2   -1    0    0    0  501 -0.00000000000E+00 -0.00000000000E+00 -0.21290875039E+04  0.21290875039E+04  0.00000000000E+00 0.  1.
         23    2    1    2    0    0 -0.10338094861E+04 -0.87336462811E+03  0.29183762355E+03  0.13874339821E+04  0.90972683280E+02 0.  0.
         11    1    3    3    0    0 -0.74614904958E+03 -0.67605331899E+03  0.23611855218E+03  0.10341849278E+04  0.00000000000E+00 0. -1.
        -11    1    3    3    0    0 -0.28766043652E+03 -0.19731130912E+03  0.55719071365E+02  0.35324905429E+03  0.00000000000E+00 0.  1.
         22    1    1    2    0    0  0.10338094861E+04  0.87336462811E+03 -0.12917269088E+04  0.18708517403E+04  0.00000000000E+00 0.  1.
<mgrwt>
<rscale>  0 0.31010720E+04</rscale>
<asrwt>0</asrwt>
<pdfrwt beam="1">  1        2 0.17372280E+00 0.31010720E+04</pdfrwt>
<pdfrwt beam="2">  1       -2 0.32755192E+00 0.31010720E+04</pdfrwt>
<totfact> 0.38144230E-01</totfact>
</mgrwt>
</event>
<event>
 6    1  0.1603085E-006  0.2108540E+04  0.7818608E-02  0.8557491E-01
          2   -1    0    0  501    0  0.00000000000E+00  0.00000000000E+00  0.23186208711E+04  0.23186208711E+04  0.00000000000E+00 0. -1.
         -2   -1    0    0    0  501 -0.00000000000E+00 -0.00000000000E+00 -0.47937323177E+03  0.47937323177E+03  0.00000000000E+00 0.  1.
         23    2    1    2    0    0  0.64316139366E+03  0.58649318699E+03  0.13655118435E+03  0.88571638913E+03  0.90644687387E+02 0.  0.
         13    1    3    3    0    0  0.31021617341E+03  0.34411008023E+03  0.72727923498E+02  0.46897246445E+03  0.00000000000E+00 0. -1.
        -13    1    3    3    0    0  0.33294522025E+03  0.24238310676E+03  0.63823260853E+02  0.41674392468E+03  0.00000000000E+00 0.  1.
         22    1    1    2    0    0 -0.64316139366E+03 -0.58649318699E+03  0.17026964550E+04  0.19122777138E+04  0.00000000000E+00 0. -1.
<mgrwt>
<rscale>  0 0.21085396E+04</rscale>
<asrwt>0</asrwt>
<pdfrwt beam="1">  1        2 0.35671090E+00 0.21085396E+04</pdfrwt>
<pdfrwt beam="2">  1       -2 0.73749729E-01 0.21085396E+04</pdfrwt>
<totfact> 0.67533373E+00</totfact>
</mgrwt>
</event>
<event>
 6    1  0.1603085E-006  0.5307816E+03  0.7818608E-02  0.1006043E+00
          2   -1    0    0  501    0  0.00000000000E+00  0.00000000000E+00  0.45224048071E+03  0.45224048071E+03  0.00000000000E+00 0. -1.
         -2   -1    0    0    0  501 -0.00000000000E+00 -0.00000000000E+00 -0.15574076809E+03  0.15574076809E+03  0.00000000000E+00 0.  1.
         23    2    1    2    0    0 -0.25725330858E+02  0.21389401517E+03 -0.91105359913E+01  0.23406940567E+03  0.91066143177E+02 0.  0.
         13    1    3    3    0    0  0.15423862676E+02  0.17806838125E+03  0.11695059730E+00  0.17873516055E+03  0.00000000000E+00 0.  1.
        -13    1    3    3    0    0 -0.41149193534E+02  0.35825633920E+02 -0.92274865886E+01  0.55334245120E+02  0.00000000000E+00 0. -1.
         22    1    1    2    0    0  0.25725330858E+02 -0.21389401517E+03  0.30561024862E+03  0.37391184313E+03  0.00000000000E+00 0. -1.
<mgrwt>
<rscale>  0 0.53078161E+03</rscale>
<asrwt>0</asrwt>
<pdfrwt beam="1">  1        2 0.69575458E-01 0.53078161E+03</pdfrwt>
<pdfrwt beam="2">  1       -2 0.23960118E-01 0.53078161E+03</pdfrwt>
<totfact> 0.10723102E+03</totfact>
</mgrwt>
</event>
<event>
 6    1  0.1603085E-006  0.1645401E+04  0.7818608E-02  0.8793132E-01
         -2   -1    0    0    0  501 -0.00000000000E+00  0.00000000000E+00  0.27074712577E+03  0.27074712577E+03  0.00000000000E+00 0.  1.
          2   -1    0    0  501    0  0.00000000000E+00 -0.00000000000E+00 -0.24998838907E+04  0.24998838907E+04  0.00000000000E+00 0. -1.
         23    2    1    2    0    0 -0.10936350031E+03  0.11645418281E+03 -0.24726618116E+04  0.24793812950E+04  0.88052366435E+02 0.  0.
         13    1    3    3    0    0 -0.25684630707E+02 -0.38270514847E+01 -0.76632559585E+03  0.76676545660E+03  0.00000000000E+00 0. -1.
        -13    1    3    3    0    0 -0.83678869603E+02  0.12028123430E+03 -0.17063362158E+04  0.17126158384E+04  0.00000000000E+00 0.  1.
         22    1    1    2    0    0  0.10936350031E+03 -0.11645418281E+03  0.24352504671E+03  0.29124972149E+03  0.00000000000E+00 0.  1.
<mgrwt>
<rscale>  0 0.16454013E+04</rscale>
<asrwt>0</asrwt>
<pdfrwt beam="1">  1        2 0.38459752E+00 0.16454013E+04</pdfrwt>
<pdfrwt beam="2">  1       -2 0.41653404E-01 0.16454013E+04</pdfrwt>
<totfact> 0.18204410E+01</totfact>
</mgrwt>
</event>
<event>
 6    1  0.1603085E-006  0.1593458E+04  0.7818608E-02  0.8824577E-01
         -1   -1    0    0    0  501 -0.00000000000E+00  0.00000000000E+00  0.23728607621E+03  0.23728607621E+03  0.00000000000E+00 0.  1.
          1   -1    0    0  501    0  0.00000000000E+00 -0.00000000000E+00 -0.26751565566E+04  0.26751565566E+04  0.00000000000E+00 0. -1.
         23    2    1    2    0    0  0.20761343973E+03 -0.76049578467E+03 -0.13980219166E+04  0.16075509843E+04  0.91091760280E+02 0.  0.
         13    1    3    3    0    0  0.90014770357E+02 -0.19914062532E+03 -0.34286204063E+03  0.40658827632E+03  0.00000000000E+00 0. -1.
        -13    1    3    3    0    0  0.11759866937E+03 -0.56135515935E+03 -0.10551598760E+04  0.12009627080E+04  0.00000000000E+00 0.  1.
         22    1    1    2    0    0 -0.20761343973E+03  0.76049578467E+03 -0.10398485637E+04  0.13048916485E+04  0.00000000000E+00 0.  1.
<mgrwt>
<rscale>  0 0.15934584E+04</rscale>
<asrwt>0</asrwt>
<pdfrwt beam="1">  1        1 0.41156252E+00 0.15934584E+04</pdfrwt>
<pdfrwt beam="2">  1       -1 0.36505552E-01 0.15934584E+04</pdfrwt>
<totfact> 0.70769760E+00</totfact>
</mgrwt>
</event>
<event>
 6    1  0.1603085E-006  0.1319925E+04  0.7818608E-02  0.9013912E-01
         -2   -1    0    0    0  501 -0.00000000000E+00  0.00000000000E+00  0.21460270947E+03  0.21460270947E+03  0.00000000000E+00 0. -1.
          2   -1    0    0  501    0  0.00000000000E+00 -0.00000000000E+00 -0.20295659004E+04  0.20295659004E+04  0.00000000000E+00 0.  1.
         23    2    1    2    0    0  0.48520479170E+03  0.27031084086E+03 -0.31608647671E+03  0.64569338486E+03  0.92291093392E+02 0.  0.
         13    1    3    3    0    0  0.18122640399E+03  0.10106995980E+03 -0.17041107519E+03  0.26851085793E+03  0.00000000000E+00 0. -1.
        -13    1    3    3    0    0  0.30397838771E+03  0.16924088107E+03 -0.14567540152E+03  0.37718252694E+03  0.00000000000E+00 0.  1.
         22    1    1    2    0    0 -0.48520479170E+03 -0.27031084086E+03 -0.14988767142E+04  0.15984752250E+04  0.00000000000E+00 0. -1.
<mgrwt>
<rscale>  0 0.13199248E+04</rscale>
<asrwt>0</asrwt>
<pdfrwt beam="1">  1        2 0.31224091E+00 0.13199248E+04</pdfrwt>
<pdfrwt beam="2">  1       -2 0.33015802E-01 0.13199248E+04</pdfrwt>
<totfact> 0.53965351E+01</totfact>
</mgrwt>
</event>
<event>
 6    1  0.1603085E-006  0.1160007E+04  0.7818608E-02  0.9148601E-01
         -2   -1    0    0    0  501 -0.00000000000E+00  0.00000000000E+00  0.37893168460E+03  0.37893168460E+03  0.00000000000E+00 0.  1.
          2   -1    0    0  501    0  0.00000000000E+00 -0.00000000000E+00 -0.88776938160E+03  0.88776938160E+03  0.00000000000E+00 0. -1.
         23    2    1    2    0    0  0.43716309114E+03  0.29475350330E+03 -0.17801985560E+01  0.53519679233E+03  0.91876228947E+02 0.  0.
         13    1    3    3    0    0  0.13489287574E+03  0.73468873059E+02  0.38703322596E+02  0.15840363132E+03  0.00000000000E+00 0.  1.
        -13    1    3    3    0    0  0.30227021540E+03  0.22128463024E+03 -0.40483521152E+02  0.37679316101E+03  0.00000000000E+00 0. -1.
         22    1    1    2    0    0 -0.43716309114E+03 -0.29475350330E+03 -0.50705749845E+03  0.73150427387E+03  0.00000000000E+00 0. -1.
<mgrwt>
<rscale>  0 0.11600068E+04</rscale>
<asrwt>0</asrwt>
<pdfrwt beam="1">  1        2 0.13657990E+00 0.11600068E+04</pdfrwt>
<pdfrwt beam="2">  1       -2 0.58297184E-01 0.11600068E+04</pdfrwt>
<totfact> 0.81392120E+01</totfact>
</mgrwt>
</event>
<event>
 6    1  0.1603085E-006  0.2792712E+04  0.7818608E-02  0.8305534E-01
          1   -1    0    0  501    0  0.00000000000E+00  0.00000000000E+00  0.43602015616E+04  0.43602015616E+04  0.00000000000E+00 0. -1.
         -1   -1    0    0    0  501 -0.00000000000E+00 -0.00000000000E+00 -0.44718358419E+03  0.44718358419E+03  0.00000000000E+00 0.  1.
         23    2    1    2    0    0 -0.50614973694E+03  0.57308847976E+03  0.39668777659E+04  0.40408873711E+04  0.89630211288E+02 0.  0.
         11    1    3    3    0    0 -0.15561189456E+03  0.21372449160E+03  0.15556542019E+04  0.15779585597E+04  0.00000000000E+00 0.  1.
        -11    1    3    3    0    0 -0.35053784238E+03  0.35936398816E+03  0.24112235639E+04  0.24629288114E+04  0.00000000000E+00 0. -1.
         22    1    1    2    0    0  0.50614973694E+03 -0.57308847976E+03 -0.53859788435E+02  0.76649777471E+03  0.00000000000E+00 0.  1.
<mgrwt>
<rscale>  0 0.27927123E+04</rscale>
<asrwt>0</asrwt>
<pdfrwt beam="1">  1        1 0.67080021E+00 0.27927123E+04</pdfrwt>
<pdfrwt beam="2">  1       -1 0.68797477E-01 0.27927123E+04</pdfrwt>
<totfact> 0.82481880E-02</totfact>
</mgrwt>
</event>
<event>
 6    1  0.1603085E-006  0.1722658E+04  0.7818608E-02  0.8748546E-01
         -2   -1    0    0    0  501 -0.00000000000E+00  0.00000000000E+00  0.52993845954E+03  0.52993845954E+03  0.00000000000E+00 0.  1.
          2   -1    0    0  501    0  0.00000000000E+00 -0.00000000000E+00 -0.13999506719E+04  0.13999506719E+04  0.00000000000E+00 0. -1.
         23    2    1    2    0    0  0.11035731050E+03 -0.75190947608E+03  0.12256981420E+02  0.76543839118E+03  0.90548886858E+02 0.  0.
         11    1    3    3    0    0  0.11117752204E+03 -0.51201651894E+03  0.30623139987E+02  0.52484200840E+03  0.00000000000E+00 0. -1.
        -11    1    3    3    0    0 -0.82021153746E+00 -0.23989295713E+03 -0.18366158568E+02  0.24059638279E+03  0.00000000000E+00 0.  1.
         22    1    1    2    0    0 -0.11035731050E+03  0.75190947608E+03 -0.88226919379E+03  0.11644507403E+04  0.00000000000E+00 0.  1.
<mgrwt>
<rscale>  0 0.17226581E+04</rscale>
<asrwt>0</asrwt>
<pdfrwt beam="1">  1        2 0.21537703E+00 0.17226581E+04</pdfrwt>
<pdfrwt beam="2">  1       -2 0.81528994E-01 0.17226581E+04</pdfrwt>
<totfact> 0.18207378E+01</totfact>
</mgrwt>
</event>
<event>
 6    1  0.1603085E-006  0.1847172E+04  0.7818608E-02  0.8681609E-01
          2   -1    0    0  501    0  0.00000000000E+00  0.00000000000E+00  0.10287424591E+04  0.10287424591E+04  0.00000000000E+00 0. -1.
         -2   -1    0    0    0  501 -0.00000000000E+00 -0.00000000000E+00 -0.82917845804E+03  0.82917845804E+03  0.00000000000E+00 0.  1.
         23    2    1    2    0    0 -0.38801050510E+03 -0.19548696340E+03  0.91723479548E+03  0.10189819002E+04  0.90758679761E+02 0.  0.
         13    1    3    3    0    0 -0.29051081531E+03 -0.16495299441E+03  0.61404301870E+03  0.69903852039E+03  0.00000000000E+00 0. -1.
        -13    1    3    3    0    0 -0.97499689792E+02 -0.30533968992E+02  0.30319177678E+03  0.31994337980E+03  0.00000000000E+00 0.  1.
         22    1    1    2    0    0  0.38801050510E+03  0.19548696340E+03 -0.71767079444E+03  0.83893901693E+03  0.00000000000E+00 0.  1.
<mgrwt>
<rscale>  0 0.18471720E+04</rscale>
<asrwt>0</asrwt>
<pdfrwt beam="1">  1        2 0.15826807E+00 0.18471720E+04</pdfrwt>
<pdfrwt beam="2">  1       -2 0.12756592E+00 0.18471720E+04</pdfrwt>
<totfact> 0.10345689E+01</totfact>
</mgrwt>
</event>
<event>
 6    1  0.1603085E-006  0.3282608E+04  0.7818608E-02  0.8167335E-01
         -2   -1    0    0    0  501 -0.00000000000E+00  0.00000000000E+00  0.15486056880E+04  0.15486056880E+04  0.00000000000E+00 0.  1.
          2   -1    0    0  501    0  0.00000000000E+00 -0.00000000000E+00 -0.17395509859E+04  0.17395509859E+04  0.00000000000E+00 0. -1.
         23    2    1    2    0    0 -0.52947606335E+02 -0.16234467751E+04 -0.32241924849E+03  0.16585345458E+04  0.91650353210E+02 0.  0.
         11    1    3    3    0    0  0.11975804198E+02 -0.30324525508E+03 -0.31594815860E+02  0.30512183960E+03  0.00000000000E+00 0.  1.
        -11    1    3    3    0    0 -0.64923410533E+02 -0.13202015201E+04 -0.29082443263E+03  0.13534127062E+04  0.00000000000E+00 0. -1.
         22    1    1    2    0    0  0.52947606335E+02  0.16234467751E+04  0.13147395060E+03  0.16296221281E+04  0.00000000000E+00 0.  1.
<mgrwt>
<rscale>  0 0.32826078E+04</rscale>
<asrwt>0</asrwt>
<pdfrwt beam="1">  1        2 0.26762323E+00 0.32826078E+04</pdfrwt>
<pdfrwt beam="2">  1       -2 0.23824703E+00 0.32826078E+04</pdfrwt>
<totfact> 0.59225813E-01</totfact>
</mgrwt>
</event>
<event>
 6    1  0.1603085E-006  0.1190831E+04  0.7818608E-02  0.9120921E-01
         -4   -1    0    0    0  501 -0.00000000000E+00  0.00000000000E+00  0.35546920694E+03  0.35546920694E+03  0.00000000000E+00 0.  1.
          4   -1    0    0  501    0  0.00000000000E+00 -0.00000000000E+00 -0.99732791649E+03  0.99732791649E+03  0.00000000000E+00 0. -1.
         23    2    1    2    0    0  0.53078937639E+03 -0.14401470802E+03 -0.57083936243E+03  0.79825105151E+03  0.94178369753E+02 0.  0.
         11    1    3    3    0    0  0.20156419601E+03 -0.90083737723E+02 -0.18378697453E+03  0.28726443727E+03  0.00000000000E+00 0. -1.
        -11    1    3    3    0    0  0.32922518038E+03 -0.53930970297E+02 -0.38705238790E+03  0.51098661424E+03  0.00000000000E+00 0.  1.
         22    1    1    2    0    0 -0.53078937639E+03  0.14401470802E+03 -0.71019347125E+02  0.55454607192E+03  0.00000000000E+00 0.  1.
<mgrwt>
<rscale>  0 0.11908306E+04</rscale>
<asrwt>0</asrwt>
<pdfrwt beam="1">  1        4 0.15343506E+00 0.11908306E+04</pdfrwt>
<pdfrwt beam="2">  1       -4 0.54687570E-01 0.11908306E+04</pdfrwt>
<totfact> 0.17643100E+00</totfact>
</mgrwt>
</event>
<event>
 6    1  0.1603085E-006  0.2231740E+04  0.7818608E-02  0.8505332E-01
          1   -1    0    0  501    0  0.00000000000E+00  0.00000000000E+00  0.14978903460E+04  0.14978903460E+04  0.00000000000E+00 0. -1.
         -1   -1    0    0    0  501 -0.00000000000E+00 -0.00000000000E+00 -0.83127942039E+03  0.83127942039E+03  0.00000000000E+00 0.  1.
         23    2    1    2    0    0 -0.31520588608E+03 -0.10684358636E+04  0.33683433481E+03  0.11674199891E+04  0.92206921753E+02 0.  0.
         13    1    3    3    0    0 -0.14631928277E+03 -0.34370396142E+03  0.11866932534E+03  0.39194917321E+03  0.00000000000E+00 0. -1.
        -13    1    3    3    0    0 -0.16888660331E+03 -0.72473190223E+03  0.21816500947E+03  0.77547081585E+03  0.00000000000E+00 0.  1.
         22    1    1    2    0    0  0.31520588608E+03  0.10684358636E+04  0.32977659085E+03  0.11617497774E+04  0.00000000000E+00 0. -1.
<mgrwt>
<rscale>  0 0.22317396E+04</rscale>
<asrwt>0</asrwt>
<pdfrwt beam="1">  1        1 0.23044467E+00 0.22317396E+04</pdfrwt>
<pdfrwt beam="2">  1       -1 0.12788914E+00 0.22317396E+04</pdfrwt>
<totfact> 0.31541460E+00</totfact>
</mgrwt>
</event>
<event>
 6    1  0.1603085E-006  0.1403566E+04  0.7818608E-02  0.8951241E-01
         -2   -1    0    0    0  501 -0.00000000000E+00  0.00000000000E+00  0.14160359138E+03  0.14160359138E+03  0.00000000000E+00 0.  1.
          2   -1    0    0  501    0  0.00000000000E+00 -0.00000000000E+00 -0.34780171402E+04  0.34780171402E+04  0.00000000000E+00 0. -1.
         23    2    1    2    0    0  0.30213863730E+03 -0.54331688386E+03 -0.84772732811E+03  0.10544618481E+04  0.82262833712E+02 0.  0.
         13    1    3    3    0    0  0.21969823256E+03 -0.32841694382E+03 -0.49654846667E+03  0.63457496178E+03  0.00000000000E+00 0. -1.
        -13    1    3    3    0    0  0.82440404747E+02 -0.21489994005E+03 -0.35117886145E+03  0.41988688631E+03  0.00000000000E+00 0.  1.
         22    1    1    2    0    0 -0.30213863730E+03  0.54331688386E+03 -0.24886862207E+04  0.25651588835E+04  0.00000000000E+00 0. -1.
<mgrwt>
<rscale>  0 0.14035665E+04</rscale>
<asrwt>0</asrwt>
<pdfrwt beam="1">  1        2 0.53507950E+00 0.14035665E+04</pdfrwt>
<pdfrwt beam="2">  1       -2 0.21785170E-01 0.14035665E+04</pdfrwt>
<totfact> 0.15311970E+01</totfact>
</mgrwt>
</event>
<event>
 6    1  0.1603085E-006  0.2158122E+04  0.7818608E-02  0.8536064E-01
          1   -1    0    0  501    0  0.00000000000E+00  0.00000000000E+00  0.12685471259E+04  0.12685471259E+04  0.00000000000E+00 0. -1.
         -1   -1    0    0    0  501 -0.00000000000E+00 -0.00000000000E+00 -0.91787899588E+03  0.91787899588E+03  0.00000000000E+00 0.  1.
         23    2    1    2    0    0  0.41847012052E+03  0.39299017968E+03 -0.74769990119E+03  0.94708320914E+03  0.91394418357E+02 0.  0.
         11    1    3    3    0    0  0.20335033860E+03  0.18967631137E+03 -0.43687235053E+03  0.51786669516E+03  0.00000000000E+00 0. -1.
        -11    1    3    3    0    0  0.21511978193E+03  0.20331386831E+03 -0.31082755066E+03  0.42921651398E+03  0.00000000000E+00 0.  1.
         22    1    1    2    0    0 -0.41847012052E+03 -0.39299017968E+03  0.10983680312E+04  0.12393429126E+04  0.00000000000E+00 0. -1.
<mgrwt>
<rscale>  0 0.21581221E+04</rscale>
<asrwt>0</asrwt>
<pdfrwt beam="1">  1        1 0.19516110E+00 0.21581221E+04</pdfrwt>
<pdfrwt beam="2">  1       -1 0.14121215E+00 0.21581221E+04</pdfrwt>
<totfact> 0.35732034E+00</totfact>
</mgrwt>
</event>
<event>
 6    1  0.1603085E-006  0.6573507E+04  0.7818608E-02  0.7623094E-01
         -2   -1    0    0    0  501 -0.00000000000E+00  0.00000000000E+00  0.27083022883E+04  0.27083022883E+04  0.00000000000E+00 0.  1.
          2   -1    0    0  501    0  0.00000000000E+00 -0.00000000000E+00 -0.39887525973E+04  0.39887525973E+04  0.00000000000E+00 0. -1.
         23    2    1    2    0    0  0.20261894448E+04 -0.72803048893E+03  0.18886459891E+04  0.28657831117E+04  0.10127740433E+03 0.  0.
         11    1    3    3    0    0  0.10407058034E+04 -0.32030977584E+03  0.95961840505E+03  0.14513905074E+04  0.00000000000E+00 0. -1.
        -11    1    3    3    0    0  0.98548364137E+03 -0.40772071309E+03  0.92902758400E+03  0.14143926043E+04  0.00000000000E+00 0.  1.
         22    1    1    2    0    0 -0.20261894448E+04  0.72803048893E+03 -0.31690962981E+04  0.38312717739E+04  0.00000000000E+00 0. -1.
<mgrwt>
<rscale>  0 0.65735068E+04</rscale>
<asrwt>0</asrwt>
<pdfrwt beam="1">  1        2 0.61365424E+00 0.65735068E+04</pdfrwt>
<pdfrwt beam="2">  1       -2 0.41666189E+00 0.65735068E+04</pdfrwt>
<totfact> 0.12940151E-03</totfact>
</mgrwt>
</event>
<event>
 6    1  0.1603085E-006  0.2076574E+04  0.7818608E-02  0.8571634E-01
         -2   -1    0    0    0  501 -0.00000000000E+00  0.00000000000E+00  0.39092158978E+03  0.39092158978E+03  0.00000000000E+00 0.  1.
          2   -1    0    0  501    0  0.00000000000E+00 -0.00000000000E+00 -0.27576873111E+04  0.27576873111E+04  0.00000000000E+00 0. -1.
         23    2    1    2    0    0 -0.38815431012E+03  0.63072359837E+03 -0.22847075458E+04  0.24034850386E+04  0.91519041436E+02 0.  0.
         11    1    3    3    0    0 -0.13352099601E+03  0.26291053622E+03 -0.10318160410E+04  0.10731235479E+04  0.00000000000E+00 0. -1.
        -11    1    3    3    0    0 -0.25463331411E+03  0.36781306215E+03 -0.12528915048E+04  0.13303614908E+04  0.00000000000E+00 0.  1.
         22    1    1    2    0    0  0.38815431012E+03 -0.63072359837E+03 -0.82058175554E+02  0.74512386231E+03  0.00000000000E+00 0.  1.
<mgrwt>
<rscale>  0 0.20765736E+04</rscale>
<asrwt>0</asrwt>
<pdfrwt beam="1">  1        2 0.42425959E+00 0.20765736E+04</pdfrwt>
<pdfrwt beam="2">  1       -2 0.60141783E-01 0.20765736E+04</pdfrwt>
<totfact> 0.58413414E+00</totfact>
</mgrwt>
</event>
<event>
 6    1  0.1603085E-006  0.6108408E+03  0.7818608E-02  0.9883167E-01
         -1   -1    0    0    0  501 -0.00000000000E+00  0.00000000000E+00  0.20612475910E+03  0.20612475910E+03  0.00000000000E+00 0.  1.
          1   -1    0    0  501    0  0.00000000000E+00 -0.00000000000E+00 -0.45254933977E+03  0.45254933977E+03  0.00000000000E+00 0. -1.
         23    2    1    2    0    0  0.20071011235E+03  0.66503051803E+02  0.10178433578E+03  0.25129632016E+03  0.89903194693E+02 0.  0.
         13    1    3    3    0    0  0.15305319093E+03  0.38765846051E+02  0.29889465883E+02  0.16069054186E+03  0.00000000000E+00 0. -1.
        -13    1    3    3    0    0  0.47656921417E+02  0.27737205752E+02  0.71894869902E+02  0.90605778293E+02  0.00000000000E+00 0.  1.
         22    1    1    2    0    0 -0.20071011235E+03 -0.66503051803E+02 -0.34820891645E+03  0.40737777872E+03  0.00000000000E+00 0.  1.
<mgrwt>
<rscale>  0 0.61084081E+03</rscale>
<asrwt>0</asrwt>
<pdfrwt beam="1">  1        1 0.69622975E-01 0.61084081E+03</pdfrwt>
<pdfrwt beam="2">  1       -1 0.31711501E-01 0.61084081E+03</pdfrwt>
<totfact> 0.47528401E+02</totfact>
</mgrwt>
</event>
<event>
 6    1  0.1603085E-006  0.1853440E+04  0.7818608E-02  0.8678386E-01
          2   -1    0    0  501    0  0.00000000000E+00  0.00000000000E+00  0.34855277829E+04  0.34855277829E+04  0.00000000000E+00 0. -1.
         -2   -1    0    0    0  501 -0.00000000000E+00 -0.00000000000E+00 -0.24639307005E+03  0.24639307005E+03  0.00000000000E+00 0.  1.
         23    2    1    2    0    0 -0.59169255997E+03 -0.17004644380E+03  0.30120811536E+04  0.30757431352E+04  0.92450414830E+02 0.  0.
         11    1    3    3    0    0 -0.23226177474E+03 -0.98514791706E+02  0.13977094786E+04  0.14202966179E+04  0.00000000000E+00 0.  1.
        -11    1    3    3    0    0 -0.35943078524E+03 -0.71531652090E+02  0.16143716750E+04  0.16554465173E+04  0.00000000000E+00 0. -1.
         22    1    1    2    0    0  0.59169255997E+03  0.17004644380E+03  0.22705355930E+03  0.65617771782E+03  0.00000000000E+00 0.  1.
<mgrwt>
<rscale>  0 0.18534399E+04</rscale>
<asrwt>0</asrwt>
<pdfrwt beam="1">  1        2 0.53623501E+00 0.18534399E+04</pdfrwt>
<pdfrwt beam="2">  1       -2 0.37906629E-01 0.18534399E+04</pdfrwt>
<totfact> 0.51757192E+00</totfact>
</mgrwt>
</event>
<event>
 6    1  0.1603085E-006  0.8397740E+03  0.7818608E-02  0.9504166E-01
         -3   -1    0    0    0  501 -0.00000000000E+00  0.00000000000E+00  0.28090732862E+03  0.28090732862E+03  0.00000000000E+00 0.  1.
          3   -1    0    0  501    0  0.00000000000E+00 -0.00000000000E+00 -0.62762720906E+03  0.62762720906E+03  0.00000000000E+00 0. -1.
         23    2    1    2    0    0 -0.21406892410E+03 -0.26680320827E+02  0.20825900566E+03  0.31310283899E+03  0.90134513720E+02 0.  0.
         11    1    3    3    0    0 -0.56492200577E+02 -0.42946968653E+02  0.37817282184E+02  0.80411178789E+02  0.00000000000E+00 0. -1.
        -11    1    3    3    0    0 -0.15757672352E+03  0.16266647826E+02  0.17044172348E+03  0.23269166020E+03  0.00000000000E+00 0.  1.
         22    1    1    2    0    0  0.21406892410E+03  0.26680320827E+02 -0.55497888611E+03  0.59543169869E+03  0.00000000000E+00 0. -1.
<mgrwt>
<rscale>  0 0.83977398E+03</rscale>
<asrwt>0</asrwt>
<pdfrwt beam="1">  1        3 0.96558031E-01 0.83977398E+03</pdfrwt>
<pdfrwt beam="2">  1       -3 0.43216513E-01 0.83977398E+03</pdfrwt>
<totfact> 0.13316891E+01</totfact>
</mgrwt>
</event>
<event>
 6    1  0.1603085E-006  0.1389594E+04  0.7818608E-02  0.8961386E-01
         -2   -1    0    0    0  501 -0.00000000000E+00  0.00000000000E+00  0.41498025480E+03  0.41498025480E+03  0.00000000000E+00 0. -1.
          2   -1    0    0  501    0  0.00000000000E+00 -0.00000000000E+00 -0.11632907938E+04  0.11632907938E+04  0.00000000000E+00 0.  1.
         23    2    1    2    0    0 -0.20906203799E+02 -0.63909775565E+03 -0.67590888643E+03  0.93474559459E+03  0.89518116700E+02 0.  0.
         11    1    3    3    0    0 -0.39424154087E+02 -0.18697419619E+03 -0.23590216026E+03  0.30358432632E+03  0.00000000000E+00 0.  1.
        -11    1    3    3    0    0  0.18517950287E+02 -0.45212355946E+03 -0.44000672617E+03  0.63116126828E+03  0.00000000000E+00 0. -1.
         22    1    1    2    0    0  0.20906203799E+02  0.63909775565E+03 -0.72401652545E+02  0.64352545399E+03  0.00000000000E+00 0. -1.
<mgrwt>
<rscale>  0 0.13895938E+04</rscale>
<asrwt>0</asrwt>
<pdfrwt beam="1">  1        2 0.17896782E+00 0.13895938E+04</pdfrwt>
<pdfrwt beam="2">  1       -2 0.63843116E-01 0.13895938E+04</pdfrwt>
<totfact> 0.44048319E+01</totfact>
</mgrwt>
</event>
<event>
 6    1  0.1603085E-006  0.3893698E+04  0.7818608E-02  0.8026341E-01
          1   -1    0    0  501    0  0.00000000000E+00  0.00000000000E+00  0.35195838830E+04  0.35195838830E+04  0.00000000000E+00 0. -1.
         -1   -1    0    0    0  501 -0.00000000000E+00 -0.00000000000E+00 -0.10768948797E+04  0.10768948797E+04  0.00000000000E+00 0.  1.
         23    2    1    2    0    0  0.10125573394E+04  0.16410226161E+04  0.91463935637E+03  0.21361610361E+04  0.91603645428E+02 0.  0.
         11    1    3    3    0    0  0.34932413047E+03  0.49308796169E+03  0.30662512482E+03  0.67762973169E+03  0.00000000000E+00 0. -1.
        -11    1    3    3    0    0  0.66323320893E+03  0.11479346545E+04  0.60801423154E+03  0.14585313045E+04  0.00000000000E+00 0.  1.
         22    1    1    2    0    0 -0.10125573394E+04 -0.16410226161E+04  0.15280496469E+04  0.24603177266E+04  0.00000000000E+00 0. -1.
<mgrwt>
<rscale>  0 0.38936984E+04</rscale>
<asrwt>0</asrwt>
<pdfrwt beam="1">  1        1 0.54147444E+00 0.38936984E+04</pdfrwt>
<pdfrwt beam="2">  1       -1 0.16567614E+00 0.38936984E+04</pdfrwt>
<totfact> 0.50346508E-02</totfact>
</mgrwt>
</event>
<event>
 6    1  0.1603085E-006  0.1286560E+04  0.7818608E-02  0.9040292E-01
          2   -1    0    0  501    0  0.00000000000E+00  0.00000000000E+00  0.26202711166E+04  0.26202711166E+04  0.00000000000E+00 0. -1.
         -2   -1    0    0    0  501 -0.00000000000E+00 -0.00000000000E+00 -0.15792608679E+03  0.15792608679E+03  0.00000000000E+00 0.  1.
         23    2    1    2    0    0  0.50392875444E+01  0.63916042806E+03  0.13073302123E+04  0.14581174043E+04  0.91883804863E+02 0.  0.
         11    1    3    3    0    0  0.33941820663E+02  0.13264605061E+03  0.23899201817E+03  0.27543457786E+03  0.00000000000E+00 0.  1.
        -11    1    3    3    0    0 -0.28902533119E+02  0.50651437745E+03  0.10683381941E+04  0.11826828265E+04  0.00000000000E+00 0. -1.
         22    1    1    2    0    0 -0.50392875444E+01 -0.63916042806E+03  0.11550148175E+04  0.13200797990E+04  0.00000000000E+00 0.  1.
<mgrwt>
<rscale>  0 0.12865600E+04</rscale>
<asrwt>0</asrwt>
<pdfrwt beam="1">  1        2 0.40311860E+00 0.12865600E+04</pdfrwt>
<pdfrwt beam="2">  1       -2 0.24296323E-01 0.12865600E+04</pdfrwt>
<totfact> 0.44163571E+01</totfact>
</mgrwt>
</event>
<event>
 6    1  0.1603085E-006  0.2549672E+04  0.7818608E-02  0.8385500E-01
         -2   -1    0    0    0  501 -0.00000000000E+00  0.00000000000E+00  0.12108256949E+04  0.12108256949E+04  0.00000000000E+00 0. -1.
          2   -1    0    0  501    0  0.00000000000E+00 -0.00000000000E+00 -0.13422300202E+04  0.13422300202E+04  0.00000000000E+00 0.  1.
         23    2    1    2    0    0  0.72344819001E+03  0.11015909004E+02 -0.11148442434E+04  0.13321328238E+04  0.90562351109E+02 0.  0.
         13    1    3    3    0    0  0.37328565753E+03 -0.39559332514E+02 -0.57128649984E+03  0.68357544412E+03  0.00000000000E+00 0. -1.
        -13    1    3    3    0    0  0.35016253248E+03  0.50575241518E+02 -0.54355774353E+03  0.64855737969E+03  0.00000000000E+00 0.  1.
         22    1    1    2    0    0 -0.72344819001E+03 -0.11015909004E+02  0.98343991804E+03  0.12209228912E+04  0.00000000000E+00 0. -1.
<mgrwt>
<rscale>  0 0.25496718E+04</rscale>
<asrwt>0</asrwt>
<pdfrwt beam="1">  1        2 0.20649693E+00 0.25496718E+04</pdfrwt>
<pdfrwt beam="2">  1       -2 0.18628088E+00 0.25496718E+04</pdfrwt>
<totfact> 0.22790996E+00</totfact>
</mgrwt>
</event>
<event>
 6    1  0.1603085E-006  0.2344784E+04  0.7818608E-02  0.8460470E-01
         -2   -1    0    0    0  501 -0.00000000000E+00  0.00000000000E+00  0.48211763719E+03  0.48211763719E+03  0.00000000000E+00 0.  1.
          2   -1    0    0  501    0  0.00000000000E+00 -0.00000000000E+00 -0.28509699571E+04  0.28509699571E+04  0.00000000000E+00 0. -1.
         23    2    1    2    0    0 -0.43258718330E+03  0.12161635976E+03  0.34962531105E+03  0.57772140445E+03  0.97989555135E+02 0.  0.
         13    1    3    3    0    0 -0.10655032160E+03  0.58920370328E+01  0.12890281401E+03  0.16734282952E+03  0.00000000000E+00 0.  1.
        -13    1    3    3    0    0 -0.32603686170E+03  0.11572432273E+03  0.22072249704E+03  0.41037857493E+03  0.00000000000E+00 0. -1.
         22    1    1    2    0    0  0.43258718330E+03 -0.12161635976E+03 -0.27184776310E+04  0.27553661899E+04  0.00000000000E+00 0. -1.
<mgrwt>
<rscale>  0 0.23447839E+04</rscale>
<asrwt>0</asrwt>
<pdfrwt beam="1">  1        2 0.43861077E+00 0.23447839E+04</pdfrwt>
<pdfrwt beam="2">  1       -2 0.74171943E-01 0.23447839E+04</pdfrwt>
<totfact> 0.31841346E+00</totfact>
</mgrwt>
</event>
<event>
 6    1  0.1603085E-006  0.5439991E+04  0.7818608E-02  0.7764001E-01
         -2   -1    0    0    0  501 -0.00000000000E+00  0.00000000000E+00  0.33376872753E+04  0.33376872753E+04  0.00000000000E+00 0.  1.
          2   -1    0    0  501    0  0.00000000000E+00 -0.00000000000E+00 -0.22166175544E+04  0.22166175544E+04  0.00000000000E+00 0. -1.
         23    2    1    2    0    0 -0.20740638389E+04  0.30215471075E+01 -0.12347471574E+04  0.24155752935E+04  0.93024289684E+02 0.  0.
         13    1    3    3    0    0 -0.73832452577E+03 -0.37667333737E+02 -0.41429358296E+03  0.84745566625E+03  0.00000000000E+00 0. -1.
        -13    1    3    3    0    0 -0.13357393131E+04  0.40688880845E+02 -0.82045357445E+03  0.15681196273E+04  0.00000000000E+00 0.  1.
         22    1    1    2    0    0  0.20740638389E+04 -0.30215471075E+01  0.23558168783E+04  0.31387295362E+04  0.00000000000E+00 0.  1.
<mgrwt>
<rscale>  0 0.54399913E+04</rscale>
<asrwt>0</asrwt>
<pdfrwt beam="1">  1        2 0.34101808E+00 0.54399913E+04</pdfrwt>
<pdfrwt beam="2">  1       -2 0.51349035E+00 0.54399913E+04</pdfrwt>
<totfact> 0.49021539E-03</totfact>
</mgrwt>
</event>
<event>
 6    1  0.1603085E-006  0.3180464E+04  0.7818608E-02  0.8193996E-01
          1   -1    0    0  501    0  0.00000000000E+00  0.00000000000E+00  0.12586144530E+04  0.12586144530E+04  0.00000000000E+00 0. -1.
         -1   -1    0    0    0  501 -0.00000000000E+00 -0.00000000000E+00 -0.20092239445E+04  0.20092239445E+04  0.00000000000E+00 0.  1.
         23    2    1    2    0    0  0.13596445229E+04  0.41063446740E+03  0.35627248936E+03  0.14671602992E+04  0.91517005497E+02 0.  0.
         13    1    3    3    0    0  0.47454405692E+03  0.16866528333E+03  0.88836126265E+02  0.51140189390E+03  0.00000000000E+00 0.  1.
        -13    1    3    3    0    0  0.88510046600E+03  0.24196918408E+03  0.26743636310E+03  0.95575840528E+03  0.00000000000E+00 0. -1.
         22    1    1    2    0    0 -0.13596445229E+04 -0.41063446740E+03 -0.11068819809E+04  0.18006780984E+04  0.00000000000E+00 0.  1.
<mgrwt>
<rscale>  0 0.31804643E+04</rscale>
<asrwt>0</asrwt>
<pdfrwt beam="1">  1        1 0.19363299E+00 0.31804643E+04</pdfrwt>
<pdfrwt beam="2">  1       -1 0.30911138E+00 0.31804643E+04</pdfrwt>
<totfact> 0.23390330E-01</totfact>
</mgrwt>
</event>
<event>
 6    1  0.1603085E-006  0.1438282E+04  0.7818608E-02  0.8926565E-01
         -2   -1    0    0    0  501 -0.00000000000E+00  0.00000000000E+00  0.30728007508E+03  0.30728007508E+03  0.00000000000E+00 0.  1.
          2   -1    0    0  501    0  0.00000000000E+00 -0.00000000000E+00 -0.16830382250E+04  0.16830382250E+04  0.00000000000E+00 0. -1.
         23    2    1    2    0    0 -0.41508577754E+03  0.52636022331E+03 -0.10407344374E+04  0.12409237609E+04  0.86094853211E+02 0.  0.
         11    1    3    3    0    0 -0.26852261392E+03  0.31113785460E+03 -0.70499078885E+03  0.81604115773E+03  0.00000000000E+00 0.  1.
        -11    1    3    3    0    0 -0.14656316362E+03  0.21522236871E+03 -0.33574364858E+03  0.42488260319E+03  0.00000000000E+00 0. -1.
         22    1    1    2    0    0  0.41508577754E+03 -0.52636022331E+03 -0.33502371247E+03  0.74939453916E+03  0.00000000000E+00 0.  1.
<mgrwt>
<rscale>  0 0.14382825E+04</rscale>
<asrwt>0</asrwt>
<pdfrwt beam="1">  1        2 0.25892896E+00 0.14382825E+04</pdfrwt>
<pdfrwt beam="2">  1       -2 0.47273857E-01 0.14382825E+04</pdfrwt>
<totfact> 0.41250287E+01</totfact>
</mgrwt>
</event>
<event>
 6    1  0.1603085E-006  0.1037338E+04  0.7818608E-02  0.9268515E-01
         -1   -1    0    0    0  501 -0.00000000000E+00  0.00000000000E+00  0.29271956224E+03  0.29271956224E+03  0.00000000000E+00 0.  1.
          1   -1    0    0  501    0  0.00000000000E+00 -0.00000000000E+00 -0.91902779097E+03  0.91902779097E+03  0.00000000000E+00 0. -1.
         23    2    1    2    0    0  0.12909508250E+03 -0.15420630860E+03  0.23752196078E+03  0.32481571985E+03  0.92970124614E+02 0.  0.
         11    1    3    3    0    0  0.12607680738E+03 -0.12491489339E+03  0.14968340708E+03  0.23217281130E+03  0.00000000000E+00 0. -1.
        -11    1    3    3    0    0  0.30182751216E+01 -0.29291415213E+02  0.87838553693E+02  0.92642908551E+02  0.00000000000E+00 0.  1.
         22    1    1    2    0    0 -0.12909508250E+03  0.15420630860E+03 -0.86383018951E+03  0.88693163336E+03  0.00000000000E+00 0. -1.
<mgrwt>
<rscale>  0 0.10373378E+04</rscale>
<asrwt>0</asrwt>
<pdfrwt beam="1">  1        1 0.14138889E+00 0.10373378E+04</pdfrwt>
<pdfrwt beam="2">  1       -1 0.45033779E-01 0.10373378E+04</pdfrwt>
<totfact> 0.85842329E+01</totfact>
</mgrwt>
</event>
<event>
 6    1  0.1603085E-006  0.4411105E+04  0.7818608E-02  0.7926387E-01
         -1   -1    0    0    0  501 -0.00000000000E+00  0.00000000000E+00  0.19060615049E+04  0.19060615049E+04  0.00000000000E+00 0.  1.
          1   -1    0    0  501    0  0.00000000000E+00 -0.00000000000E+00 -0.25521016736E+04  0.25521016736E+04  0.00000000000E+00 0. -1.
         23    2    1    2    0    0 -0.47178436004E+03 -0.92305992180E+03  0.16432582708E+04  0.19450958403E+04  0.92086815963E+02 0.  0.
         11    1    3    3    0    0 -0.64683231063E+02 -0.19305501879E+03  0.36127826974E+03  0.41470007095E+03  0.00000000000E+00 0.  1.
        -11    1    3    3    0    0 -0.40710112898E+03 -0.73000490301E+03  0.12819800011E+04  0.15303957693E+04  0.00000000000E+00 0. -1.
         22    1    1    2    0    0  0.47178436004E+03  0.92305992180E+03 -0.22892984395E+04  0.25130673383E+04  0.00000000000E+00 0. -1.
<mgrwt>
<rscale>  0 0.44111054E+04</rscale>
<asrwt>0</asrwt>
<pdfrwt beam="1">  1        1 0.39263103E+00 0.44111054E+04</pdfrwt>
<pdfrwt beam="2">  1       -1 0.29324023E+00 0.44111054E+04</pdfrwt>
<totfact> 0.34460133E-02</totfact>
</mgrwt>
</event>
<event>
 6    1  0.1603085E-006  0.3175227E+04  0.7818608E-02  0.8195391E-01
         -2   -1    0    0    0  501 -0.00000000000E+00  0.00000000000E+00  0.70580810024E+03  0.70580810024E+03  0.00000000000E+00 0.  1.
          2   -1    0    0  501    0  0.00000000000E+00 -0.00000000000E+00 -0.35711068419E+04  0.35711068419E+04  0.00000000000E+00 0. -1.
         23    2    1    2    0    0 -0.83593603767E+03  0.75629266041E+03 -0.29368494232E+04  0.31473631959E+04  0.10021429574E+03 0.  0.
         11    1    3    3    0    0 -0.51656503452E+03  0.41328288999E+03 -0.16382256076E+04  0.17667555924E+04  0.00000000000E+00 0. -1.
        -11    1    3    3    0    0 -0.31937100314E+03  0.34300977041E+03 -0.12986238157E+04  0.13806076035E+04  0.00000000000E+00 0.  1.
         22    1    1    2    0    0  0.83593603767E+03 -0.75629266041E+03  0.71550681609E+02  0.11295517462E+04  0.00000000000E+00 0.  1.
<mgrwt>
<rscale>  0 0.31752267E+04</rscale>
<asrwt>0</asrwt>
<pdfrwt beam="1">  1        2 0.54940106E+00 0.31752267E+04</pdfrwt>
<pdfrwt beam="2">  1       -2 0.10858586E+00 0.31752267E+04</pdfrwt>
<totfact> 0.41366495E-01</totfact>
</mgrwt>
</event>
<event>
 6    1  0.1603085E-006  0.3571889E+04  0.7818608E-02  0.8096961E-01
         -2   -1    0    0    0  501 -0.00000000000E+00  0.00000000000E+00  0.23928713428E+04  0.23928713428E+04  0.00000000000E+00 0.  1.
          2   -1    0    0  501    0  0.00000000000E+00 -0.00000000000E+00 -0.13329584788E+04  0.13329584788E+04  0.00000000000E+00 0. -1.
         23    2    1    2    0    0  0.39752396872E+03 -0.15037844292E+04 -0.38275963563E+03  0.16043452338E+04  0.89586691428E+02 0.  0.
         13    1    3    3    0    0  0.13096112218E+03 -0.41955193354E+03 -0.71897850372E+02  0.44535821689E+03  0.00000000000E+00 0. -1.
        -13    1    3    3    0    0  0.26656284655E+03 -0.10842324956E+04 -0.31086178526E+03  0.11589870169E+04  0.00000000000E+00 0.  1.
         22    1    1    2    0    0 -0.39752396872E+03  0.15037844292E+04  0.14426724997E+04  0.21214845878E+04  0.00000000000E+00 0.  1.
<mgrwt>
<rscale>  0 0.35718892E+04</rscale>
<asrwt>0</asrwt>
<pdfrwt beam="1">  1        2 0.20507054E+00 0.35718892E+04</pdfrwt>
<pdfrwt beam="2">  1       -2 0.36813405E+00 0.35718892E+04</pdfrwt>
<totfact> 0.15410844E-01</totfact>
</mgrwt>
</event>
<event>
 6    1  0.1603085E-006  0.3634638E+04  0.7818608E-02  0.8082603E-01
         -2   -1    0    0    0  501 -0.00000000000E+00  0.00000000000E+00  0.87071210612E+03  0.87071210612E+03  0.00000000000E+00 0.  1.
          2   -1    0    0  501    0  0.00000000000E+00 -0.00000000000E+00 -0.37930419928E+04  0.37930419928E+04  0.00000000000E+00 0. -1.
         23    2    1    2    0    0 -0.11898023866E+04  0.59812492810E+03  0.12254478429E+03  0.13404056503E+04  0.91032600712E+02 0.  0.
         11    1    3    3    0    0 -0.69594025489E+03  0.30117155016E+03  0.57702633791E+02  0.76050426359E+03  0.00000000000E+00 0. -1.
        -11    1    3    3    0    0 -0.49386213176E+03  0.29695337794E+03  0.64842150495E+02  0.57990138673E+03  0.00000000000E+00 0.  1.
         22    1    1    2    0    0  0.11898023866E+04 -0.59812492810E+03 -0.30448746710E+04  0.33233484486E+04  0.00000000000E+00 0. -1.
<mgrwt>
<rscale>  0 0.36346376E+04</rscale>
<asrwt>0</asrwt>
<pdfrwt beam="1">  1        2 0.58354492E+00 0.36346376E+04</pdfrwt>
<pdfrwt beam="2">  1       -2 0.13395571E+00 0.36346376E+04</pdfrwt>
<totfact> 0.16220145E-01</totfact>
</mgrwt>
</event>
<event>
 6    1  0.1603085E-006  0.3182814E+04  0.7818608E-02  0.8193371E-01
          1   -1    0    0  501    0  0.00000000000E+00  0.00000000000E+00  0.19567107994E+04  0.19567107994E+04  0.00000000000E+00 0. -1.
         -1   -1    0    0    0  501 -0.00000000000E+00 -0.00000000000E+00 -0.12943030899E+04  0.12943030899E+04  0.00000000000E+00 0.  1.
         23    2    1    2    0    0  0.93533827733E+03 -0.12790961338E+04  0.19721910084E+03  0.15995463437E+04  0.93319448147E+02 0.  0.
         13    1    3    3    0    0  0.51099651253E+03 -0.76077761865E+03  0.14217166667E+03  0.92742266721E+03  0.00000000000E+00 0. -1.
        -13    1    3    3    0    0  0.42434176480E+03 -0.51831851517E+03  0.55047434168E+02  0.67212367652E+03  0.00000000000E+00 0.  1.
         22    1    1    2    0    0 -0.93533827733E+03  0.12790961338E+04  0.46518860869E+03  0.16514675456E+04  0.00000000000E+00 0. -1.
<mgrwt>
<rscale>  0 0.31828144E+04</rscale>
<asrwt>0</asrwt>
<pdfrwt beam="1">  1        1 0.30103243E+00 0.31828144E+04</pdfrwt>
<pdfrwt beam="2">  1       -1 0.19912355E+00 0.31828144E+04</pdfrwt>
<totfact> 0.40776153E-01</totfact>
</mgrwt>
</event>
<event>
 6    1  0.1603085E-006  0.5726755E+03  0.7818608E-02  0.9963775E-01
          1   -1    0    0  501    0  0.00000000000E+00  0.00000000000E+00  0.10910021323E+03  0.10910021323E+03  0.00000000000E+00 0. -1.
         -1   -1    0    0    0  501 -0.00000000000E+00 -0.00000000000E+00 -0.75150463401E+03  0.75150463401E+03  0.00000000000E+00 0.  1.
         23    2    1    2    0    0 -0.89014162078E+01 -0.29594054900E+02 -0.74621949383E+03  0.75228766168E+03  0.90211693517E+02 0.  0.
         11    1    3    3    0    0 -0.43353114130E+02  0.83035096975E+01 -0.34428325665E+03  0.34710142839E+03  0.00000000000E+00 0. -1.
        -11    1    3    3    0    0  0.34451697922E+02 -0.37897564597E+02 -0.40193623718E+03  0.40518623329E+03  0.00000000000E+00 0.  1.
         22    1    1    2    0    0  0.89014162078E+01  0.29594054900E+02  0.10381507305E+03  0.10831718556E+03  0.00000000000E+00 0. -1.
<mgrwt>
<rscale>  0 0.57267553E+03</rscale>
<asrwt>0</asrwt>
<pdfrwt beam="1">  1        1 0.16784649E-01 0.57267553E+03</pdfrwt>
<pdfrwt beam="2">  1       -1 0.11561609E+00 0.57267553E+03</pdfrwt>
<totfact> 0.22906119E+02</totfact>
</mgrwt>
</event>
<event>
 6    1  0.1603085E-006  0.3443949E+04  0.7818608E-02  0.8127203E-01
          1   -1    0    0  501    0  0.00000000000E+00  0.00000000000E+00  0.21014783359E+04  0.21014783359E+04  0.00000000000E+00 0. -1.
         -1   -1    0    0    0  501 -0.00000000000E+00 -0.00000000000E+00 -0.14110049509E+04  0.14110049509E+04  0.00000000000E+00 0.  1.
         23    2    1    2    0    0  0.12665019860E+04 -0.84182089823E+03  0.11667697552E+04  0.19188873726E+04  0.89929871735E+02 0.  0.
         11    1    3    3    0    0  0.70919763999E+03 -0.42090021665E+03  0.65124271405E+03  0.10508260358E+04  0.00000000000E+00 0. -1.
        -11    1    3    3    0    0  0.55730434604E+03 -0.42092068158E+03  0.51552704116E+03  0.86806133681E+03  0.00000000000E+00 0.  1.
         22    1    1    2    0    0 -0.12665019860E+04  0.84182089823E+03 -0.47629637019E+03  0.15935959141E+04  0.00000000000E+00 0. -1.
<mgrwt>
<rscale>  0 0.34439491E+04</rscale>
<asrwt>0</asrwt>
<pdfrwt beam="1">  1        1 0.32330436E+00 0.34439491E+04</pdfrwt>
<pdfrwt beam="2">  1       -1 0.21707768E+00 0.34439491E+04</pdfrwt>
<totfact> 0.23997392E-01</totfact>
</mgrwt>
</event>
<event>
 6    1  0.1603085E-006  0.3963747E+04  0.7818608E-02  0.8011900E-01
         -1   -1    0    0    0  501 -0.00000000000E+00  0.00000000000E+00  0.11123154373E+04  0.11123154373E+04  0.00000000000E+00 0.  1.
          1   -1    0    0  501    0  0.00000000000E+00 -0.00000000000E+00 -0.35312121042E+04  0.35312121042E+04  0.00000000000E+00 0. -1.
         23    2    1    2    0    0  0.93241150149E+03 -0.44770196198E+03  0.76895936448E+03  0.12920719874E+04  0.91231910515E+02 0.  0.
         11    1    3    3    0    0  0.23120700747E+03 -0.95881903260E+02  0.23294901310E+03  0.34192873875E+03  0.00000000000E+00 0. -1.
        -11    1    3    3    0    0  0.70120449402E+03 -0.35182005872E+03  0.53601035138E+03  0.95014324864E+03  0.00000000000E+00 0.  1.
         22    1    1    2    0    0 -0.93241150149E+03  0.44770196198E+03 -0.31878560314E+04  0.33514555542E+04  0.00000000000E+00 0. -1.
<mgrwt>
<rscale>  0 0.39637466E+04</rscale>
<asrwt>0</asrwt>
<pdfrwt beam="1">  1        1 0.54326339E+00 0.39637466E+04</pdfrwt>
<pdfrwt beam="2">  1       -1 0.17112546E+00 0.39637466E+04</pdfrwt>
<totfact> 0.44664153E-02</totfact>
</mgrwt>
</event>
<event>
 6    1  0.1603085E-006  0.4145040E+04  0.7818608E-02  0.7975910E-01
          2   -1    0    0  501    0  0.00000000000E+00  0.00000000000E+00  0.37767845367E+04  0.37767845367E+04  0.00000000000E+00 0. -1.
         -2   -1    0    0    0  501 -0.00000000000E+00 -0.00000000000E+00 -0.11373006005E+04  0.11373006005E+04  0.00000000000E+00 0.  1.
         23    2    1    2    0    0  0.19026042988E+04  0.81591698534E+03  0.14089755737E+04  0.25058130440E+04  0.90902140634E+02 0.  0.
         13    1    3    3    0    0  0.10927089637E+04  0.49710702130E+03  0.77258758904E+03  0.14275923272E+04  0.00000000000E+00 0.  1.
        -13    1    3    3    0    0  0.80989533515E+03  0.31880996404E+03  0.63638798463E+03  0.10782207168E+04  0.00000000000E+00 0. -1.
         22    1    1    2    0    0 -0.19026042988E+04 -0.81591698534E+03  0.12305083625E+04  0.24082720933E+04  0.00000000000E+00 0.  1.
<mgrwt>
<rscale>  0 0.41450401E+04</rscale>
<asrwt>0</asrwt>
<pdfrwt beam="1">  1        2 0.58104377E+00 0.41450401E+04</pdfrwt>
<pdfrwt beam="2">  1       -2 0.17496933E+00 0.41450401E+04</pdfrwt>
<totfact> 0.78167871E-02</totfact>
</mgrwt>
</event>
<event>
 6    1  0.1603085E-006  0.2932350E+04  0.7818608E-02  0.8263317E-01
         -2   -1    0    0    0  501 -0.00000000000E+00  0.00000000000E+00  0.11373862592E+04  0.11373862592E+04  0.00000000000E+00 0. -1.
          2   -1    0    0  501    0  0.00000000000E+00 -0.00000000000E+00 -0.18900073738E+04  0.18900073738E+04  0.00000000000E+00 0.  1.
         23    2    1    2    0    0  0.93835275251E+03 -0.73679856488E+03  0.50057841618E+03  0.12971083741E+04  0.92376242021E+02 0.  0.
         13    1    3    3    0    0  0.40844789521E+03 -0.28190388703E+03  0.17148135386E+03  0.52507650809E+03  0.00000000000E+00 0.  1.
        -13    1    3    3    0    0  0.52990485730E+03 -0.45489467785E+03  0.32909706232E+03  0.77203186602E+03  0.00000000000E+00 0. -1.
         22    1    1    2    0    0 -0.93835275251E+03  0.73679856488E+03 -0.12531995307E+04  0.17302852589E+04  0.00000000000E+00 0.  1.
<mgrwt>
<rscale>  0 0.29323495E+04</rscale>
<asrwt>0</asrwt>
<pdfrwt beam="1">  1        2 0.29077036E+00 0.29323495E+04</pdfrwt>
<pdfrwt beam="2">  1       -2 0.17498250E+00 0.29323495E+04</pdfrwt>
<totfact> 0.13012731E+00</totfact>
</mgrwt>
</event>
<event>
 6    1  0.1603085E-006  0.7976663E+03  0.7818608E-02  0.9563401E-01
         -2   -1    0    0    0  501 -0.00000000000E+00  0.00000000000E+00  0.13733261093E+03  0.13733261093E+03  0.00000000000E+00 0.  1.
          2   -1    0    0  501    0  0.00000000000E+00 -0.00000000000E+00 -0.11582674455E+04  0.11582674455E+04  0.00000000000E+00 0. -1.
         23    2    1    2    0    0 -0.61372268086E+02 -0.46837445801E+02 -0.11441064284E+04  0.11502331305E+04  0.89980183690E+02 0.  0.
         13    1    3    3    0    0 -0.38517305589E+02 -0.61436297852E+02 -0.46810851356E+03  0.47369144175E+03  0.00000000000E+00 0. -1.
        -13    1    3    3    0    0 -0.22854962498E+02  0.14598852051E+02 -0.67599791483E+03  0.67654168877E+03  0.00000000000E+00 0.  1.
         22    1    1    2    0    0  0.61372268086E+02  0.46837445801E+02  0.12317159383E+03  0.14536692590E+03  0.00000000000E+00 0.  1.
<mgrwt>
<rscale>  0 0.79766633E+03</rscale>
<asrwt>0</asrwt>
<pdfrwt beam="1">  1        2 0.17819499E+00 0.79766633E+03</pdfrwt>
<pdfrwt beam="2">  1       -2 0.21128095E-01 0.79766633E+03</pdfrwt>
<totfact> 0.39101485E+02</totfact>
</mgrwt>
</event>
<event>
 6    1  0.1603085E-006  0.4929870E+04  0.7818608E-02  0.7839417E-01
          2   -1    0    0  501    0  0.00000000000E+00  0.00000000000E+00  0.25500908797E+04  0.25500908797E+04  0.00000000000E+00 0.  1.
         -2   -1    0    0    0  501 -0.00000000000E+00 -0.00000000000E+00 -0.23826223683E+04  0.23826223683E+04  0.00000000000E+00 0. -1.
         23    2    1    2    0    0  0.61936720877E+03  0.74013313944E+03 -0.21847346327E+04  0.23902198981E+04  0.93128635919E+02 0.  0.
         11    1    3    3    0    0  0.23915610686E+03  0.29048810775E+03 -0.96572222757E+03  0.10364354321E+04  0.00000000000E+00 0.  1.
        -11    1    3    3    0    0  0.38021110192E+03  0.44964503168E+03 -0.12190124051E+04  0.13537844660E+04  0.00000000000E+00 0. -1.
         22    1    1    2    0    0 -0.61936720877E+03 -0.74013313944E+03  0.23522031440E+04  0.25424933499E+04  0.00000000000E+00 0.  1.
<mgrwt>
<rscale>  0 0.49298696E+04</rscale>
<asrwt>0</asrwt>
<pdfrwt beam="1">  1        2 0.39232167E+00 0.49298696E+04</pdfrwt>
<pdfrwt beam="2">  1       -2 0.36655729E+00 0.49298696E+04</pdfrwt>
<totfact> 0.29110719E-02</totfact>
</mgrwt>
</event>
<event>
 6    1  0.1603085E-006  0.3001636E+04  0.7818608E-02  0.8243264E-01
         -1   -1    0    0    0  501 -0.00000000000E+00  0.00000000000E+00  0.83306509407E+03  0.83306509407E+03  0.00000000000E+00 0.  1.
          1   -1    0    0  501    0  0.00000000000E+00 -0.00000000000E+00 -0.27038165160E+04  0.27038165160E+04  0.00000000000E+00 0. -1.
         23    2    1    2    0    0  0.98161319274E+03  0.84317969790E+03 -0.18286535251E+04  0.22421659285E+04  0.93903530354E+02 0.  0.
         13    1    3    3    0    0  0.65962363671E+03  0.50743449152E+03 -0.11667788619E+04  0.14331664307E+04  0.00000000000E+00 0.  1.
        -13    1    3    3    0    0  0.32198955603E+03  0.33574520638E+03 -0.66187466313E+03  0.80899949783E+03  0.00000000000E+00 0. -1.
         22    1    1    2    0    0 -0.98161319274E+03 -0.84317969790E+03 -0.42097896817E+02  0.12947156815E+04  0.00000000000E+00 0.  1.
<mgrwt>
<rscale>  0 0.30016363E+04</rscale>
<asrwt>0</asrwt>
<pdfrwt beam="1">  1        1 0.41597177E+00 0.30016363E+04</pdfrwt>
<pdfrwt beam="2">  1       -1 0.12816386E+00 0.30016363E+04</pdfrwt>
<totfact> 0.43602662E-01</totfact>
</mgrwt>
</event>
<event>
 6    1  0.1603085E-006  0.6248552E+03  0.7818608E-02  0.9855140E-01
         -1   -1    0    0    0  501 -0.00000000000E+00  0.00000000000E+00  0.81599488686E+02  0.81599488686E+02  0.00000000000E+00 0.  1.
          1   -1    0    0  501    0  0.00000000000E+00 -0.00000000000E+00 -0.11962207033E+04  0.11962207033E+04  0.00000000000E+00 0. -1.
         23    2    1    2    0    0  0.12116930393E+01  0.29573444294E+03 -0.40204397037E+03  0.50631085442E+03  0.85152793550E+02 0.  0.
         13    1    3    3    0    0 -0.24160284508E+02  0.44540056156E+02 -0.38226503987E+02  0.63472841097E+02  0.00000000000E+00 0.  1.
        -13    1    3    3    0    0  0.25371977547E+02  0.25119438679E+03 -0.36381746638E+03  0.44283801332E+03  0.00000000000E+00 0. -1.
         22    1    1    2    0    0 -0.12116930393E+01 -0.29573444294E+03 -0.71257724429E+03  0.77150933761E+03  0.00000000000E+00 0. -1.
<mgrwt>
<rscale>  0 0.62485518E+03</rscale>
<asrwt>0</asrwt>
<pdfrwt beam="1">  1        1 0.18403396E+00 0.62485518E+03</pdfrwt>
<pdfrwt beam="2">  1       -1 0.12553767E-01 0.62485518E+03</pdfrwt>
<totfact> 0.48053104E+02</totfact>
</mgrwt>
</event>
<event>
 6    1  0.1603085E-006  0.1021267E+04  0.7818608E-02  0.9285522E-01
          1   -1    0    0  501    0  0.00000000000E+00  0.00000000000E+00  0.31664457607E+04  0.31664457607E+04  0.00000000000E+00 0. -1.
         -1   -1    0    0    0  501 -0.00000000000E+00 -0.00000000000E+00 -0.82346783335E+02  0.82346783335E+02  0.00000000000E+00 0.  1.
         23    2    1    2    0    0  0.46468348605E+03 -0.58946850294E+02  0.21687783004E+04  0.22205817606E+04  0.89322819626E+02 0.  0.
         11    1    3    3    0    0  0.16319094433E+03  0.15661929455E+02  0.64843113209E+03  0.66883444394E+03  0.00000000000E+00 0. -1.
        -11    1    3    3    0    0  0.30149254173E+03 -0.74608779750E+02  0.15203471683E+04  0.15517473167E+04  0.00000000000E+00 0.  1.
         22    1    1    2    0    0 -0.46468348605E+03  0.58946850294E+02  0.91532067695E+03  0.10282107834E+04  0.00000000000E+00 0.  1.
<mgrwt>
<rscale>  0 0.10212671E+04</rscale>
<asrwt>0</asrwt>
<pdfrwt beam="1">  1        1 0.48714541E+00 0.10212671E+04</pdfrwt>
<pdfrwt beam="2">  1       -1 0.12668738E-01 0.10212671E+04</pdfrwt>
<totfact> 0.20009862E+01</totfact>
</mgrwt>
</event>
<event>
 6    1  0.1603085E-006  0.1391831E+04  0.7818608E-02  0.8959753E-01
         -2   -1    0    0    0  501 -0.00000000000E+00  0.00000000000E+00  0.11320258888E+04  0.11320258888E+04  0.00000000000E+00 0.  1.
          2   -1    0    0  501    0  0.00000000000E+00 -0.00000000000E+00 -0.42781588081E+03  0.42781588081E+03  0.00000000000E+00 0. -1.
         23    2    1    2    0    0 -0.67906092944E+03 -0.11578154947E+03  0.43795266624E+03  0.82131479983E+03  0.90699225193E+02 0.  0.
         11    1    3    3    0    0 -0.49317583837E+03 -0.61195114261E+02  0.35412297686E+03  0.61022154363E+03  0.00000000000E+00 0.  1.
        -11    1    3    3    0    0 -0.18588509107E+03 -0.54586435209E+02  0.83829689377E+02  0.21109325620E+03  0.00000000000E+00 0. -1.
         22    1    1    2    0    0  0.67906092944E+03  0.11578154947E+03  0.26625734178E+03  0.73852696982E+03  0.00000000000E+00 0. -1.
<mgrwt>
<rscale>  0 0.13918314E+04</rscale>
<asrwt>0</asrwt>
<pdfrwt beam="1">  1        2 0.65817828E-01 0.13918314E+04</pdfrwt>
<pdfrwt beam="2">  1       -2 0.17415783E+00 0.13918314E+04</pdfrwt>
<totfact> 0.14275559E+01</totfact>
</mgrwt>
</event>
<event>
 6    1  0.1603085E-006  0.1896924E+04  0.7818608E-02  0.8656389E-01
         -1   -1    0    0    0  501 -0.00000000000E+00  0.00000000000E+00  0.49248409855E+03  0.49248409855E+03  0.00000000000E+00 0.  1.
          1   -1    0    0  501    0  0.00000000000E+00 -0.00000000000E+00 -0.18266184510E+04  0.18266184510E+04  0.00000000000E+00 0. -1.
         23    2    1    2    0    0  0.14335880489E+03  0.84033736188E+03 -0.11706731306E+04  0.14510943700E+04  0.92090516495E+02 0.  0.
         13    1    3    3    0    0  0.63426097741E+02  0.17682361676E+03 -0.22511918179E+03  0.29320318437E+03  0.00000000000E+00 0.  1.
        -13    1    3    3    0    0  0.79932707151E+02  0.66351374513E+03 -0.94555394886E+03  0.11578911857E+04  0.00000000000E+00 0. -1.
         22    1    1    2    0    0 -0.14335880489E+03 -0.84033736188E+03 -0.16346122185E+03  0.86800817955E+03  0.00000000000E+00 0.  1.
<mgrwt>
<rscale>  0 0.18969244E+04</rscale>
<asrwt>0</asrwt>
<pdfrwt beam="1">  1        1 0.28101823E+00 0.18969244E+04</pdfrwt>
<pdfrwt beam="2">  1       -1 0.75766783E-01 0.18969244E+04</pdfrwt>
<totfact> 0.64000231E+00</totfact>
</mgrwt>
</event>
<event>
 6    1  0.1603085E-006  0.4550710E+04  0.7818608E-02  0.7901819E-01
          2   -1    0    0  501    0  0.00000000000E+00  0.00000000000E+00  0.24039447671E+04  0.24039447671E+04  0.00000000000E+00 0. -1.
         -2   -1    0    0    0  501 -0.00000000000E+00 -0.00000000000E+00 -0.21536439653E+04  0.21536439653E+04  0.00000000000E+00 0.  1.
         23    2    1    2    0    0  0.12414412495E+04 -0.12230983455E+04  0.15888964477E+04  0.23600937398E+04  0.91129581362E+02 0.  0.
         13    1    3    3    0    0  0.88178180912E+03 -0.82227225652E+03  0.11331632943E+04  0.16546086771E+04  0.00000000000E+00 0.  1.
        -13    1    3    3    0    0  0.35965944042E+03 -0.40082608899E+03  0.45573315334E+03  0.70548506275E+03  0.00000000000E+00 0. -1.
         22    1    1    2    0    0 -0.12414412495E+04  0.12230983455E+04 -0.13385956459E+04  0.21974949925E+04  0.00000000000E+00 0.  1.
<mgrwt>
<rscale>  0 0.45507103E+04</rscale>
<asrwt>0</asrwt>
<pdfrwt beam="1">  1        2 0.36983765E+00 0.45507103E+04</pdfrwt>
<pdfrwt beam="2">  1       -2 0.33132984E+00 0.45507103E+04</pdfrwt>
<totfact> 0.60783117E-02</totfact>
</mgrwt>
</event>
<event>
 6    1  0.1603085E-006  0.2226875E+04  0.7818608E-02  0.8507325E-01
          3   -1    0    0  501    0  0.00000000000E+00  0.00000000000E+00  0.60187291962E+03  0.60187291962E+03  0.00000000000E+00 0. -1.
         -3   -1    0    0    0  501 -0.00000000000E+00 -0.00000000000E+00 -0.20598085509E+04  0.20598085509E+04  0.00000000000E+00 0.  1.
         23    2    1    2    0    0 -0.18207378754E+03  0.71696151268E+03 -0.17219201379E+04  0.18762691620E+04  0.90511501733E+02 0.  0.
         11    1    3    3    0    0 -0.10287163566E+03  0.40463089199E+03 -0.10832324127E+04  0.11609053329E+04  0.00000000000E+00 0. -1.
        -11    1    3    3    0    0 -0.79202151884E+02  0.31233062069E+03 -0.63868772525E+03  0.71536382901E+03  0.00000000000E+00 0.  1.
         22    1    1    2    0    0  0.18207378754E+03 -0.71696151268E+03  0.26398450661E+03  0.78541230860E+03  0.00000000000E+00 0. -1.
<mgrwt>
<rscale>  0 0.22268749E+04</rscale>
<asrwt>0</asrwt>
<pdfrwt beam="1">  1        3 0.92595833E-01 0.22268749E+04</pdfrwt>
<pdfrwt beam="2">  1       -3 0.31689363E+00 0.22268749E+04</pdfrwt>
<totfact> 0.76126900E-02</totfact>
</mgrwt>
</event>
<event>
 6    1  0.1603085E-006  0.2055444E+04  0.7818608E-02  0.8581129E-01
          2   -1    0    0  501    0  0.00000000000E+00  0.00000000000E+00  0.95770242588E+03  0.95770242588E+03  0.00000000000E+00 0. -1.
         -2   -1    0    0    0  501 -0.00000000000E+00 -0.00000000000E+00 -0.11028605293E+04  0.11028605293E+04  0.00000000000E+00 0.  1.
         23    2    1    2    0    0 -0.14681095701E+03 -0.93908630324E+03  0.31376835334E+03  0.10050772685E+04  0.91066975876E+02 0.  0.
         11    1    3    3    0    0 -0.13095673580E+02 -0.35531525307E+03  0.13097754341E+03  0.37891363476E+03  0.00000000000E+00 0. -1.
        -11    1    3    3    0    0 -0.13371528343E+03 -0.58377105018E+03  0.18279080993E+03  0.62616363376E+03  0.00000000000E+00 0.  1.
         22    1    1    2    0    0  0.14681095701E+03  0.93908630324E+03 -0.45892645674E+03  0.10554856867E+04  0.00000000000E+00 0.  1.
<mgrwt>
<rscale>  0 0.20554437E+04</rscale>
<asrwt>0</asrwt>
<pdfrwt beam="1">  1        2 0.14733883E+00 0.20554437E+04</pdfrwt>
<pdfrwt beam="2">  1       -2 0.16967085E+00 0.20554437E+04</pdfrwt>
<totfact> 0.53172063E+00</totfact>
</mgrwt>
</event>
<event>
 6    1  0.1603085E-006  0.2688549E+04  0.7818608E-02  0.8338730E-01
         -2   -1    0    0    0  501 -0.00000000000E+00  0.00000000000E+00  0.13122708339E+04  0.13122708339E+04  0.00000000000E+00 0.  1.
          2   -1    0    0  501    0  0.00000000000E+00 -0.00000000000E+00 -0.13770584631E+04  0.13770584631E+04  0.00000000000E+00 0. -1.
         23    2    1    2    0    0 -0.98508682689E+03  0.71882628473E+02  0.87759573208E+03  0.13241737863E+04  0.87742684028E+02 0.  0.
         13    1    3    3    0    0 -0.37007322942E+03  0.16758497337E+02  0.38496058222E+03  0.53425620467E+03  0.00000000000E+00 0.  1.
        -13    1    3    3    0    0 -0.61501359748E+03  0.55124131135E+02  0.49263514986E+03  0.78991758164E+03  0.00000000000E+00 0. -1.
         22    1    1    2    0    0  0.98508682689E+03 -0.71882628473E+02 -0.94238336130E+03  0.13651555107E+04  0.00000000000E+00 0. -1.
<mgrwt>
<rscale>  0 0.26885488E+04</rscale>
<asrwt>0</asrwt>
<pdfrwt beam="1">  1        2 0.21185515E+00 0.26885488E+04</pdfrwt>
<pdfrwt beam="2">  1       -2 0.20188782E+00 0.26885488E+04</pdfrwt>
<totfact> 0.16932279E+00</totfact>
</mgrwt>
</event>
<event>
 6    1  0.1603085E-006  0.4268212E+03  0.7818608E-02  0.1034869E+00
         -1   -1    0    0    0  501 -0.00000000000E+00  0.00000000000E+00  0.47379790846E+03  0.47379790846E+03  0.00000000000E+00 0.  1.
          1   -1    0    0  501    0  0.00000000000E+00 -0.00000000000E+00 -0.96125535489E+02  0.96125535489E+02  0.00000000000E+00 0. -1.
         23    2    1    2    0    0 -0.48549044170E+02 -0.14320917453E+03  0.18575204577E+02  0.18028687776E+03  0.96397316919E+02 0.  0.
         11    1    3    3    0    0 -0.43681277500E+02 -0.14925135339E+03  0.37382351363E+02  0.15994205415E+03  0.00000000000E+00 0.  1.
        -11    1    3    3    0    0 -0.48677666700E+01  0.60421788566E+01 -0.18807146786E+02  0.20344823615E+02  0.00000000000E+00 0. -1.
         22    1    1    2    0    0  0.48549044170E+02  0.14320917453E+03  0.35909716839E+03  0.38963656618E+03  0.00000000000E+00 0.  1.
<mgrwt>
<rscale>  0 0.42682117E+03</rscale>
<asrwt>0</asrwt>
<pdfrwt beam="1">  1        1 0.14788544E-01 0.42682117E+03</pdfrwt>
<pdfrwt beam="2">  1       -1 0.72891985E-01 0.42682117E+03</pdfrwt>
<totfact> 0.75201078E+02</totfact>
</mgrwt>
</event>
<event>
 6    1  0.1603085E-006  0.4297694E+04  0.7818608E-02  0.7947045E-01
         -1   -1    0    0    0  501 -0.00000000000E+00  0.00000000000E+00  0.13235893146E+04  0.13235893146E+04  0.00000000000E+00 0.  1.
          1   -1    0    0  501    0  0.00000000000E+00 -0.00000000000E+00 -0.34886523088E+04  0.34886523088E+04  0.00000000000E+00 0. -1.
         23    2    1    2    0    0  0.92187519350E+03  0.89374208300E+03 -0.30110077722E+04  0.32746293996E+04  0.91657610168E+02 0.  0.
         13    1    3    3    0    0  0.81719245847E+03  0.82551554783E+03 -0.26847851011E+04  0.29252949378E+04  0.00000000000E+00 0. -1.
        -13    1    3    3    0    0  0.10468273503E+03  0.68226535168E+02 -0.32622267109E+03  0.34933446187E+03  0.00000000000E+00 0.  1.
         22    1    1    2    0    0 -0.92187519350E+03 -0.89374208300E+03  0.84594477795E+03  0.15376122238E+04  0.00000000000E+00 0.  1.
<mgrwt>
<rscale>  0 0.42976938E+04</rscale>
<asrwt>0</asrwt>
<pdfrwt beam="1">  1        1 0.53671573E+00 0.42976938E+04</pdfrwt>
<pdfrwt beam="2">  1       -1 0.20362913E+00 0.42976938E+04</pdfrwt>
<totfact> 0.27649455E-02</totfact>
</mgrwt>
</event>
<event>
 6    1  0.1603085E-006  0.2384200E+04  0.7818608E-02  0.8445443E-01
         -1   -1    0    0    0  501 -0.00000000000E+00  0.00000000000E+00  0.11504732066E+04  0.11504732066E+04  0.00000000000E+00 0.  1.
          1   -1    0    0  501    0  0.00000000000E+00 -0.00000000000E+00 -0.12352325304E+04  0.12352325304E+04  0.00000000000E+00 0. -1.
         23    2    1    2    0    0  0.46758349188E+03 -0.94691046476E+03 -0.59166050208E+03  0.12142867024E+04  0.95688535477E+02 0.  0.
         11    1    3    3    0    0  0.26152662549E+03 -0.56426579603E+03 -0.39888509174E+03  0.73885139292E+03  0.00000000000E+00 0. -1.
        -11    1    3    3    0    0  0.20605686640E+03 -0.38264466872E+03 -0.19277541034E+03  0.47543530950E+03  0.00000000000E+00 0.  1.
         22    1    1    2    0    0 -0.46758349188E+03  0.94691046476E+03  0.50690117821E+03  0.11714190346E+04  0.00000000000E+00 0.  1.
<mgrwt>
<rscale>  0 0.23841996E+04</rscale>
<asrwt>0</asrwt>
<pdfrwt beam="1">  1        1 0.19003577E+00 0.23841996E+04</pdfrwt>
<pdfrwt beam="2">  1       -1 0.17699588E+00 0.23841996E+04</pdfrwt>
<totfact> 0.19773050E+00</totfact>
</mgrwt>
</event>
<event>
 6    1  0.1877664E-006  0.2790157E+04  0.7818608E-02  0.8306331E-01
          2   -1    0    0  501    0  0.00000000000E+00  0.00000000000E+00  0.24725219130E+04  0.24725219130E+04  0.00000000000E+00 0. -1.
         -2   -1    0    0    0  501 -0.00000000000E+00 -0.00000000000E+00 -0.78714946545E+03  0.78714946545E+03  0.00000000000E+00 0.  1.
         23    2    1    2    0    0 -0.12161956125E+04 -0.45386234618E+03  0.14358229093E+04  0.19377796397E+04  0.90992901177E+02 0.  0.
         11    1    3    3    0    0 -0.49768961469E+03 -0.17942069601E+03  0.51977342789E+03  0.74165433665E+03  0.00000000000E+00 0. -1.
        -11    1    3    3    0    0 -0.71850599777E+03 -0.27444165017E+03  0.91604948141E+03  0.11961253030E+04  0.00000000000E+00 0.  1.
         22    1    1    2    0    0  0.12161956125E+04  0.45386234618E+03  0.24954953830E+03  0.13218917388E+04  0.00000000000E+00 0. -1.
<mgrwt>
<rscale>  0 0.27901572E+04</rscale>
<asrwt>0</asrwt>
<pdfrwt beam="1">  1        2 0.38038798E+00 0.27901572E+04</pdfrwt>
<pdfrwt beam="2">  1       -2 0.12109992E+00 0.27901572E+04</pdfrwt>
<totfact> 0.16319757E+00</totfact>
</mgrwt>
</event>
<event>
 6    1  0.1603085E-006  0.2865916E+04  0.7818608E-02  0.8283091E-01
         -2   -1    0    0    0  501 -0.00000000000E+00  0.00000000000E+00  0.92993806255E+03  0.92993806255E+03  0.00000000000E+00 0.  1.
          2   -1    0    0  501    0  0.00000000000E+00 -0.00000000000E+00 -0.22080708647E+04  0.22080708647E+04  0.00000000000E+00 0. -1.
         23    2    1    2    0    0  0.43477787196E+03  0.13554883612E+04 -0.47473951010E+03  0.15034382567E+04  0.92566161039E+02 0.  0.
         11    1    3    3    0    0  0.48749719061E+02  0.11405267800E+03 -0.17276317969E+02  0.12523186348E+03  0.00000000000E+00 0.  1.
        -11    1    3    3    0    0  0.38602815290E+03  0.12414356832E+04 -0.45746319213E+03  0.13782063933E+04  0.00000000000E+00 0. -1.
         22    1    1    2    0    0 -0.43477787196E+03 -0.13554883612E+04 -0.80339329205E+03  0.16345706705E+04  0.00000000000E+00 0. -1.
<mgrwt>
<rscale>  0 0.28659164E+04</rscale>
<asrwt>0</asrwt>
<pdfrwt beam="1">  1        2 0.33970321E+00 0.28659164E+04</pdfrwt>
<pdfrwt beam="2">  1       -2 0.14306740E+00 0.28659164E+04</pdfrwt>
<totfact> 0.15010344E+00</totfact>
</mgrwt>
</event>
<event>
 6    1  0.1603085E-006  0.1591522E+04  0.7818608E-02  0.8825773E-01
          1   -1    0    0  501    0  0.00000000000E+00  0.00000000000E+00  0.14904731307E+04  0.14904731307E+04  0.00000000000E+00 0. -1.
         -1   -1    0    0    0  501 -0.00000000000E+00 -0.00000000000E+00 -0.42485529792E+03  0.42485529792E+03  0.00000000000E+00 0.  1.
         23    2    1    2    0    0  0.32141177328E+03 -0.67616488963E+03  0.21932334556E+03  0.78540858853E+03  0.90881434114E+02 0.  0.
         11    1    3    3    0    0  0.18913193665E+03 -0.46813420091E+03  0.11565896672E+03  0.51797443577E+03  0.00000000000E+00 0.  1.
        -11    1    3    3    0    0  0.13227983663E+03 -0.20803068872E+03  0.10366437884E+03  0.26743415277E+03  0.00000000000E+00 0. -1.
         22    1    1    2    0    0 -0.32141177328E+03  0.67616488963E+03  0.84629448726E+03  0.11299198401E+04  0.00000000000E+00 0.  1.
<mgrwt>
<rscale>  0 0.15915218E+04</rscale>
<asrwt>0</asrwt>
<pdfrwt beam="1">  1        1 0.22930356E+00 0.15915218E+04</pdfrwt>
<pdfrwt beam="2">  1       -1 0.65362354E-01 0.15915218E+04</pdfrwt>
<totfact> 0.15132746E+01</totfact>
</mgrwt>
</event>
<event>
 6    1  0.1603085E-006  0.2672927E+04  0.7818608E-02  0.8343843E-01
          2   -1    0    0  501    0  0.00000000000E+00  0.00000000000E+00  0.12829486710E+04  0.12829486710E+04  0.00000000000E+00 0. -1.
         -2   -1    0    0    0  501 -0.00000000000E+00 -0.00000000000E+00 -0.13922101868E+04  0.13922101868E+04  0.00000000000E+00 0.  1.
         23    2    1    2    0    0 -0.45309663035E+03 -0.11197624303E+04  0.51392701603E+03  0.13159206877E+04  0.91442996703E+02 0.  0.
         11    1    3    3    0    0 -0.20137831686E+03 -0.54084019058E+03  0.29189752728E+03  0.64673449319E+03  0.00000000000E+00 0. -1.
        -11    1    3    3    0    0 -0.25171831349E+03 -0.57892223972E+03  0.22202948875E+03  0.66918619446E+03  0.00000000000E+00 0.  1.
         22    1    1    2    0    0  0.45309663035E+03  0.11197624303E+04 -0.62318853184E+03  0.13592381701E+04  0.00000000000E+00 0.  1.
<mgrwt>
<rscale>  0 0.26729266E+04</rscale>
<asrwt>0</asrwt>
<pdfrwt beam="1">  1        2 0.19737672E+00 0.26729266E+04</pdfrwt>
<pdfrwt beam="2">  1       -2 0.21418618E+00 0.26729266E+04</pdfrwt>
<totfact> 0.16008564E+00</totfact>
</mgrwt>
</event>
<event>
 6    1  0.1603085E-006  0.1805464E+04  0.7818608E-02  0.8703399E-01
         -1   -1    0    0    0  501 -0.00000000000E+00  0.00000000000E+00  0.28953228125E+03  0.28953228125E+03  0.00000000000E+00 0.  1.
          1   -1    0    0  501    0  0.00000000000E+00 -0.00000000000E+00 -0.28146260583E+04  0.28146260583E+04  0.00000000000E+00 0. -1.
         23    2    1    2    0    0  0.23206359669E+02 -0.89432098411E+03 -0.10905984251E+04  0.14135591936E+04  0.91630295525E+02 0.  0.
         11    1    3    3    0    0 -0.27580298413E+02 -0.22930827479E+03 -0.31572707888E+03  0.39118607604E+03  0.00000000000E+00 0. -1.
        -11    1    3    3    0    0  0.50786658082E+02 -0.66501270932E+03 -0.77487134626E+03  0.10223731175E+04  0.00000000000E+00 0.  1.
         22    1    1    2    0    0 -0.23206359669E+02  0.89432098411E+03 -0.14344953519E+04  0.16905991460E+04  0.00000000000E+00 0.  1.
<mgrwt>
<rscale>  0 0.18054640E+04</rscale>
<asrwt>0</asrwt>
<pdfrwt beam="1">  1        1 0.43301941E+00 0.18054640E+04</pdfrwt>
<pdfrwt beam="2">  1       -1 0.44543427E-01 0.18054640E+04</pdfrwt>
<totfact> 0.38388460E+00</totfact>
</mgrwt>
</event>
<event>
 6    1  0.1603085E-006  0.1542657E+04  0.7818608E-02  0.8856572E-01
         -3   -1    0    0    0  501 -0.00000000000E+00  0.00000000000E+00  0.93114517253E+03  0.93114517253E+03  0.00000000000E+00 0.  1.
          3   -1    0    0  501    0  0.00000000000E+00 -0.00000000000E+00 -0.63894190474E+03  0.63894190474E+03  0.00000000000E+00 0. -1.
         23    2    1    2    0    0 -0.44668554663E+01  0.61187750410E+03  0.62029384195E+03  0.87578349981E+03  0.88420898926E+02 0.  0.
         13    1    3    3    0    0  0.16438850440E+02  0.10084871738E+03  0.66344063526E+02  0.12182870912E+03  0.00000000000E+00 0. -1.
        -13    1    3    3    0    0 -0.20905705906E+02  0.51102878672E+03  0.55394977842E+03  0.75395479069E+03  0.00000000000E+00 0.  1.
         22    1    1    2    0    0  0.44668554663E+01 -0.61187750410E+03 -0.32809057416E+03  0.69430357746E+03  0.00000000000E+00 0. -1.
<mgrwt>
<rscale>  0 0.15426570E+04</rscale>
<asrwt>0</asrwt>
<pdfrwt beam="1">  1        3 0.98298755E-01 0.15426570E+04</pdfrwt>
<pdfrwt beam="2">  1       -3 0.14325310E+00 0.15426570E+04</pdfrwt>
<totfact> 0.83412599E-01</totfact>
</mgrwt>
</event>
<event>
 6    1  0.1953789E-006  0.3536548E+04  0.7818608E-02  0.8105183E-01
         -1   -1    0    0    0  501 -0.00000000000E+00  0.00000000000E+00  0.13937787536E+04  0.13937787536E+04  0.00000000000E+00 0.  1.
          1   -1    0    0  501    0  0.00000000000E+00 -0.00000000000E+00 -0.22433927239E+04  0.22433927239E+04  0.00000000000E+00 0. -1.
         23    2    1    2    0    0  0.53572433340E+03 -0.97777324259E+03 -0.18350643600E+04  0.21491682698E+04  0.91771297743E+02 0.  0.
         13    1    3    3    0    0  0.33708466555E+03 -0.70272400226E+03 -0.12724717124E+04  0.14921901199E+04  0.00000000000E+00 0. -1.
        -13    1    3    3    0    0  0.19863966784E+03 -0.27504924033E+03 -0.56259264760E+03  0.65697814985E+03  0.00000000000E+00 0.  1.
         22    1    1    2    0    0 -0.53572433340E+03  0.97777324259E+03  0.98545038982E+03  0.14880032077E+04  0.00000000000E+00 0.  1.
<mgrwt>
<rscale>  0 0.35365481E+04</rscale>
<asrwt>0</asrwt>
<pdfrwt beam="1">  1        1 0.34513734E+00 0.35365481E+04</pdfrwt>
<pdfrwt beam="2">  1       -1 0.21442750E+00 0.35365481E+04</pdfrwt>
<totfact> 0.19857306E-01</totfact>
</mgrwt>
</event>
<event>
 6    1  0.1603085E-006  0.2048338E+04  0.7818608E-02  0.8584349E-01
          1   -1    0    0  501    0  0.00000000000E+00  0.00000000000E+00  0.57674969026E+03  0.57674969026E+03  0.00000000000E+00 0. -1.
         -1   -1    0    0    0  501 -0.00000000000E+00 -0.00000000000E+00 -0.18186784989E+04  0.18186784989E+04  0.00000000000E+00 0.  1.
         23    2    1    2    0    0 -0.93839057966E+03  0.91369085927E+02 -0.10838855840E+04  0.14394455268E+04  0.90941054630E+02 0.  0.
         11    1    3    3    0    0 -0.65429212759E+03  0.81261540037E+02 -0.81332571563E+03  0.10469958672E+04  0.00000000000E+00 0. -1.
        -11    1    3    3    0    0 -0.28409845207E+03  0.10107545890E+02 -0.27055986841E+03  0.39244965963E+03  0.00000000000E+00 0.  1.
         22    1    1    2    0    0  0.93839057966E+03 -0.91369085927E+02 -0.15804322456E+03  0.95598266234E+03  0.00000000000E+00 0.  1.
<mgrwt>
<rscale>  0 0.20483381E+04</rscale>
<asrwt>0</asrwt>
<pdfrwt beam="1">  1        1 0.88730721E-01 0.20483381E+04</pdfrwt>
<pdfrwt beam="2">  1       -1 0.27979669E+00 0.20483381E+04</pdfrwt>
<totfact> 0.14955916E+00</totfact>
</mgrwt>
</event>
<event>
 6    1  0.1603085E-006  0.1447916E+04  0.7818608E-02  0.8919846E-01
          2   -1    0    0  501    0  0.00000000000E+00  0.00000000000E+00  0.35573144601E+03  0.35573144601E+03  0.00000000000E+00 0. -1.
         -2   -1    0    0    0  501 -0.00000000000E+00 -0.00000000000E+00 -0.14733452756E+04  0.14733452756E+04  0.00000000000E+00 0.  1.
         23    2    1    2    0    0  0.43523019092E+03  0.10706194921E+03  0.15269264398E+03  0.48201840184E+03  0.90217050135E+02 0.  0.
         13    1    3    3    0    0  0.42256879746E+02  0.36746531434E+02  0.34084630508E+02  0.65556948489E+02  0.00000000000E+00 0.  1.
        -13    1    3    3    0    0  0.39297331117E+03  0.70315417778E+02  0.11860801347E+03  0.41646145336E+03  0.00000000000E+00 0. -1.
         22    1    1    2    0    0 -0.43523019092E+03 -0.10706194921E+03 -0.12703064735E+04  0.13470583197E+04  0.00000000000E+00 0.  1.
<mgrwt>
<rscale>  0 0.14479161E+04</rscale>
<asrwt>0</asrwt>
<pdfrwt beam="1">  1        2 0.54727915E-01 0.14479161E+04</pdfrwt>
<pdfrwt beam="2">  1       -2 0.22666851E+00 0.14479161E+04</pdfrwt>
<totfact> 0.78936826E+00</totfact>
</mgrwt>
</event>
<event>
 6    1  0.1603085E-006  0.3808581E+04  0.7818608E-02  0.8044316E-01
         -1   -1    0    0    0  501 -0.00000000000E+00  0.00000000000E+00  0.11953030006E+04  0.11953030006E+04  0.00000000000E+00 0.  1.
          1   -1    0    0  501    0  0.00000000000E+00 -0.00000000000E+00 -0.30338097296E+04  0.30338097296E+04  0.00000000000E+00 0. -1.
         23    2    1    2    0    0 -0.11734050268E+04  0.93750084706E+03 -0.22177839393E+04  0.26800361028E+04  0.90778388383E+02 0.  0.
         11    1    3    3    0    0 -0.94870309620E+03  0.71679432486E+03 -0.17850380016E+04  0.21448058971E+04  0.00000000000E+00 0. -1.
        -11    1    3    3    0    0 -0.22470193062E+03  0.22070652220E+03 -0.43274593770E+03  0.53523020576E+03  0.00000000000E+00 0.  1.
         22    1    1    2    0    0  0.11734050268E+04 -0.93750084706E+03  0.37927721029E+03  0.15490766274E+04  0.00000000000E+00 0.  1.
<mgrwt>
<rscale>  0 0.38085808E+04</rscale>
<asrwt>0</asrwt>
<pdfrwt beam="1">  1        1 0.46673996E+00 0.38085808E+04</pdfrwt>
<pdfrwt beam="2">  1       -1 0.18389277E+00 0.38085808E+04</pdfrwt>
<totfact> 0.87565623E-02</totfact>
</mgrwt>
</event>
<event>
 6    1  0.1603085E-006  0.1768487E+04  0.7818608E-02  0.8723239E-01
         -2   -1    0    0    0  501 -0.00000000000E+00  0.00000000000E+00  0.53678318765E+03  0.53678318765E+03  0.00000000000E+00 0.  1.
          2   -1    0    0  501    0  0.00000000000E+00 -0.00000000000E+00 -0.14566157301E+04  0.14566157301E+04  0.00000000000E+00 0. -1.
         23    2    1    2    0    0 -0.97906845373E+02 -0.87613686278E+03 -0.45143341421E+03  0.99510071778E+03  0.96082039744E+02 0.  0.
         11    1    3    3    0    0 -0.48830301276E+02 -0.24591005022E+03 -0.86641898389E+02  0.26526019241E+03  0.00000000000E+00 0. -1.
        -11    1    3    3    0    0 -0.49076544097E+02 -0.63022681256E+03 -0.36479151582E+03  0.72984052536E+03  0.00000000000E+00 0.  1.
         22    1    1    2    0    0  0.97906845373E+02  0.87613686278E+03 -0.46839912823E+03  0.99829819995E+03  0.00000000000E+00 0. -1.
<mgrwt>
<rscale>  0 0.17684873E+04</rscale>
<asrwt>0</asrwt>
<pdfrwt beam="1">  1        2 0.22409473E+00 0.17684873E+04</pdfrwt>
<pdfrwt beam="2">  1       -2 0.82582029E-01 0.17684873E+04</pdfrwt>
<totfact> 0.16357540E+01</totfact>
</mgrwt>
</event>
<event>
 6    1  0.3127813E-006  0.2691896E+04  0.7818608E-02  0.8337639E-01
          1   -1    0    0  501    0  0.00000000000E+00  0.00000000000E+00  0.16278512309E+04  0.16278512309E+04  0.00000000000E+00 0. -1.
         -1   -1    0    0    0  501 -0.00000000000E+00 -0.00000000000E+00 -0.11128631316E+04  0.11128631316E+04  0.00000000000E+00 0.  1.
         23    2    1    2    0    0 -0.21092497175E+03  0.72195608439E+03  0.13922892430E+04  0.15851334574E+04  0.92026138669E+02 0.  0.
         13    1    3    3    0    0 -0.92785910997E+02  0.24741039398E+03  0.40867454902E+03  0.48665800655E+03  0.00000000000E+00 0. -1.
        -13    1    3    3    0    0 -0.11813906075E+03  0.47454569041E+03  0.98361469394E+03  0.10984754508E+04  0.00000000000E+00 0.  1.
         22    1    1    2    0    0  0.21092497175E+03 -0.72195608439E+03 -0.87730114370E+03  0.11555809051E+04  0.00000000000E+00 0.  1.
<mgrwt>
<rscale>  0 0.26918957E+04</rscale>
<asrwt>0</asrwt>
<pdfrwt beam="1">  1        1 0.25043865E+00 0.26918957E+04</pdfrwt>
<pdfrwt beam="2">  1       -1 0.17120971E+00 0.26918957E+04</pdfrwt>
<totfact> 0.11248381E+00</totfact>
</mgrwt>
</event>
<event>
 6    1  0.1603085E-006  0.2940408E+04  0.7818608E-02  0.8260956E-01
          1   -1    0    0  501    0  0.00000000000E+00  0.00000000000E+00  0.17924587699E+04  0.17924587699E+04  0.00000000000E+00 0. -1.
         -1   -1    0    0    0  501 -0.00000000000E+00 -0.00000000000E+00 -0.12058851729E+04  0.12058851729E+04  0.00000000000E+00 0.  1.
         23    2    1    2    0    0  0.11376291969E+04  0.86965422094E+03 -0.40617029231E+02  0.14350567858E+04  0.85085731480E+02 0.  0.
         11    1    3    3    0    0  0.71687180406E+03  0.50044856417E+03 -0.75777615969E+01  0.87430622284E+03  0.00000000000E+00 0. -1.
        -11    1    3    3    0    0  0.42075739283E+03  0.36920565678E+03 -0.33039267634E+02  0.56075056293E+03  0.00000000000E+00 0.  1.
         22    1    1    2    0    0 -0.11376291969E+04 -0.86965422094E+03  0.62719062629E+03  0.15632871570E+04  0.00000000000E+00 0. -1.
<mgrwt>
<rscale>  0 0.29404078E+04</rscale>
<asrwt>0</asrwt>
<pdfrwt beam="1">  1        1 0.27576289E+00 0.29404078E+04</pdfrwt>
<pdfrwt beam="2">  1       -1 0.18552079E+00 0.29404078E+04</pdfrwt>
<totfact> 0.67019406E-01</totfact>
</mgrwt>
</event>
<event>
 6    1  0.1603085E-006  0.2385482E+04  0.7818608E-02  0.8444959E-01
          2   -1    0    0  501    0  0.00000000000E+00  0.00000000000E+00  0.29860941562E+04  0.29860941562E+04  0.00000000000E+00 0.  1.
         -2   -1    0    0    0  501 -0.00000000000E+00 -0.00000000000E+00 -0.47641877055E+03  0.47641877055E+03  0.00000000000E+00 0. -1.
         23    2    1    2    0    0  0.21719982187E+03 -0.38692055698E+03  0.28609766191E+04  0.28965660771E+04  0.89579818923E+02 0.  0.
         13    1    3    3    0    0  0.16665668942E+03 -0.29060966669E+03  0.18839270077E+04  0.19134809644E+04  0.00000000000E+00 0.  1.
        -13    1    3    3    0    0  0.50543132444E+02 -0.96310890295E+02  0.97704961138E+03  0.98308511276E+03  0.00000000000E+00 0. -1.
         22    1    1    2    0    0 -0.21719982187E+03  0.38692055698E+03 -0.35130123343E+03  0.56594684966E+03  0.00000000000E+00 0. -1.
<mgrwt>
<rscale>  0 0.23854822E+04</rscale>
<asrwt>0</asrwt>
<pdfrwt beam="1">  1        2 0.45939909E+00 0.23854822E+04</pdfrwt>
<pdfrwt beam="2">  1       -2 0.73295197E-01 0.23854822E+04</pdfrwt>
<totfact> 0.26884801E+00</totfact>
</mgrwt>
</event>
<event>
 6    1  0.1603085E-006  0.1179043E+04  0.7818608E-02  0.9131401E-01
          1   -1    0    0  501    0  0.00000000000E+00  0.00000000000E+00  0.24974891479E+04  0.24974891479E+04  0.00000000000E+00 0. -1.
         -1   -1    0    0    0  501 -0.00000000000E+00 -0.00000000000E+00 -0.13915388864E+03  0.13915388864E+03  0.00000000000E+00 0.  1.
         23    2    1    2    0    0 -0.26950355612E+03 -0.49521634424E+03  0.82799856663E+03  0.10057531607E+04  0.89924410002E+02 0.  0.
         11    1    3    3    0    0 -0.14787715640E+03 -0.18088923221E+03  0.35361120608E+03  0.42382714964E+03  0.00000000000E+00 0. -1.
        -11    1    3    3    0    0 -0.12162639973E+03 -0.31432711203E+03  0.47438736056E+03  0.58192601104E+03  0.00000000000E+00 0.  1.
         22    1    1    2    0    0  0.26950355612E+03  0.49521634424E+03  0.15303366926E+04  0.16308898759E+04  0.00000000000E+00 0. -1.
<mgrwt>
<rscale>  0 0.11790425E+04</rscale>
<asrwt>0</asrwt>
<pdfrwt beam="1">  1        1 0.38422907E+00 0.11790425E+04</pdfrwt>
<pdfrwt beam="2">  1       -1 0.21408292E-01 0.11790425E+04</pdfrwt>
<totfact> 0.24760980E+01</totfact>
</mgrwt>
</event>
<event>
 6    1  0.1603085E-006  0.2265974E+04  0.7818608E-02  0.8491459E-01
         -2   -1    0    0    0  501 -0.00000000000E+00  0.00000000000E+00  0.56836574531E+03  0.56836574531E+03  0.00000000000E+00 0.  1.
          2   -1    0    0  501    0  0.00000000000E+00 -0.00000000000E+00 -0.22585091929E+04  0.22585091929E+04  0.00000000000E+00 0. -1.
         23    2    1    2    0    0 -0.28615708485E+03  0.10122776123E+04 -0.33051917363E+03  0.11078141458E+04  0.10685230865E+03 0.  0.
         11    1    3    3    0    0 -0.12567057538E+03  0.44314597085E+03 -0.20048033101E+03  0.50235824679E+03  0.00000000000E+00 0. -1.
        -11    1    3    3    0    0 -0.16048650947E+03  0.56913164149E+03 -0.13003884262E+03  0.60545589902E+03  0.00000000000E+00 0.  1.
         22    1    1    2    0    0  0.28615708485E+03 -0.10122776123E+04 -0.13596242740E+04  0.17190607924E+04  0.00000000000E+00 0.  1.
<mgrwt>
<rscale>  0 0.22659738E+04</rscale>
<asrwt>0</asrwt>
<pdfrwt beam="1">  1        2 0.34746296E+00 0.22659738E+04</pdfrwt>
<pdfrwt beam="2">  1       -2 0.87440883E-01 0.22659738E+04</pdfrwt>
<totfact> 0.49131884E+00</totfact>
</mgrwt>
</event>
<event>
 6    1  0.1603085E-006  0.3506764E+04  0.7818608E-02  0.8112189E-01
          1   -1    0    0  501    0  0.00000000000E+00  0.00000000000E+00  0.37427760932E+04  0.37427760932E+04  0.00000000000E+00 0. -1.
         -1   -1    0    0    0  501 -0.00000000000E+00 -0.00000000000E+00 -0.82140854058E+03  0.82140854058E+03  0.00000000000E+00 0.  1.
         23    2    1    2    0    0 -0.11956390953E+03  0.10045076976E+04  0.33237310684E+04  0.34755030267E+04  0.92746055045E+02 0.  0.
         11    1    3    3    0    0 -0.62440195103E+02  0.24727856658E+03  0.91768004066E+03  0.95246108818E+03  0.00000000000E+00 0.  1.
        -11    1    3    3    0    0 -0.57123714428E+02  0.75722913097E+03  0.24060510277E+04  0.25230419385E+04  0.00000000000E+00 0. -1.
         22    1    1    2    0    0  0.11956390953E+03 -0.10045076976E+04 -0.40236351572E+03  0.10886816071E+04  0.00000000000E+00 0. -1.
<mgrwt>
<rscale>  0 0.35067639E+04</rscale>
<asrwt>0</asrwt>
<pdfrwt beam="1">  1        1 0.57581170E+00 0.35067639E+04</pdfrwt>
<pdfrwt beam="2">  1       -1 0.12637055E+00 0.35067639E+04</pdfrwt>
<totfact> 0.70497012E-02</totfact>
</mgrwt>
</event>
<event>
 6    1  0.1603085E-006  0.1914016E+04  0.7818608E-02  0.8647911E-01
          2   -1    0    0  501    0  0.00000000000E+00  0.00000000000E+00  0.17004459275E+04  0.17004459275E+04  0.00000000000E+00 0. -1.
         -2   -1    0    0    0  501 -0.00000000000E+00 -0.00000000000E+00 -0.53860227768E+03  0.53860227768E+03  0.00000000000E+00 0.  1.
         23    2    1    2    0    0 -0.29371648401E+03 -0.84318295131E+03  0.18660194290E+03  0.91680645373E+03  0.92124514321E+02 0.  0.
         13    1    3    3    0    0 -0.18886186297E+03 -0.46884929270E+03  0.14499687678E+03  0.52584461281E+03  0.00000000000E+00 0.  1.
        -13    1    3    3    0    0 -0.10485462104E+03 -0.37433365861E+03  0.41605066123E+02  0.39096184091E+03  0.00000000000E+00 0. -1.
         22    1    1    2    0    0  0.29371648401E+03  0.84318295131E+03  0.97524170688E+03  0.13222417514E+04  0.00000000000E+00 0. -1.
<mgrwt>
<rscale>  0 0.19140157E+04</rscale>
<asrwt>0</asrwt>
<pdfrwt beam="1">  1        2 0.26160706E+00 0.19140157E+04</pdfrwt>
<pdfrwt beam="2">  1       -2 0.82861889E-01 0.19140157E+04</pdfrwt>
<totfact> 0.11706238E+01</totfact>
</mgrwt>
</event>
<event>
 6    1  0.1603085E-006  0.2708087E+04  0.7818608E-02  0.8332386E-01
         -1   -1    0    0    0  501 -0.00000000000E+00  0.00000000000E+00  0.18119674627E+04  0.18119674627E+04  0.00000000000E+00 0.  1.
          1   -1    0    0  501    0  0.00000000000E+00 -0.00000000000E+00 -0.10118472821E+04  0.10118472821E+04  0.00000000000E+00 0. -1.
         23    2    1    2    0    0 -0.29983441908E+02  0.40468355216E+03  0.17458118403E+04  0.17947372456E+04  0.92493323549E+02 0.  0.
         13    1    3    3    0    0 -0.46838143004E+02  0.10333530665E+03  0.53208481107E+03  0.54404617764E+03  0.00000000000E+00 0. -1.
        -13    1    3    3    0    0  0.16854701096E+02  0.30134824551E+03  0.12137270292E+04  0.12506910680E+04  0.00000000000E+00 0.  1.
         22    1    1    2    0    0  0.29983441908E+02 -0.40468355216E+03 -0.94569165964E+03  0.10290774992E+04  0.00000000000E+00 0. -1.
<mgrwt>
<rscale>  0 0.27080874E+04</rscale>
<asrwt>0</asrwt>
<pdfrwt beam="1">  1        1 0.15566881E+00 0.27080874E+04</pdfrwt>
<pdfrwt beam="2">  1       -1 0.27876423E+00 0.27080874E+04</pdfrwt>
<totfact> 0.58588423E-01</totfact>
</mgrwt>
</event>
<event>
 6    1  0.1603085E-006  0.6912963E+03  0.7818608E-02  0.9732233E-01
         -2   -1    0    0    0  501 -0.00000000000E+00  0.00000000000E+00  0.61526160959E+03  0.61526160959E+03  0.00000000000E+00 0.  1.
          2   -1    0    0  501    0  0.00000000000E+00 -0.00000000000E+00 -0.19418187701E+03  0.19418187701E+03  0.00000000000E+00 0. -1.
         23    2    1    2    0    0 -0.97404507096E+02 -0.67522454080E+02 -0.15834077874E+03  0.21802565735E+03  0.91741295205E+02 0.  0.
         11    1    3    3    0    0 -0.10603131460E+03 -0.35904751176E+02 -0.14362838363E+03  0.18210135479E+03  0.00000000000E+00 0. -1.
        -11    1    3    3    0    0  0.86268075063E+01 -0.31617702905E+02 -0.14712395108E+02  0.35924302562E+02  0.00000000000E+00 0.  1.
         22    1    1    2    0    0  0.97404507096E+02  0.67522454080E+02  0.57942051132E+03  0.59141782924E+03  0.00000000000E+00 0.  1.
<mgrwt>
<rscale>  0 0.69129633E+03</rscale>
<asrwt>0</asrwt>
<pdfrwt beam="1">  1        2 0.29874135E-01 0.69129633E+03</pdfrwt>
<pdfrwt beam="2">  1       -2 0.94655631E-01 0.69129633E+03</pdfrwt>
<totfact> 0.16983225E+02</totfact>
</mgrwt>
</event>
<event>
 6    1  0.1603085E-006  0.5117147E+04  0.7818608E-02  0.7810686E-01
          2   -1    0    0  501    0  0.00000000000E+00  0.00000000000E+00  0.56438477975E+04  0.56438477975E+04  0.00000000000E+00 0. -1.
         -2   -1    0    0    0  501 -0.00000000000E+00 -0.00000000000E+00 -0.11599000177E+04  0.11599000177E+04  0.00000000000E+00 0.  1.
         23    2    1    2    0    0  0.31292547364E+03 -0.16815099246E+04  0.47712447409E+04  0.50694071559E+04  0.93351785908E+02 0.  0.
         13    1    3    3    0    0  0.74619485060E+02 -0.34789425666E+03  0.11047888947E+04  0.11606709194E+04  0.00000000000E+00 0. -1.
        -13    1    3    3    0    0  0.23830598858E+03 -0.13336156679E+04  0.36664558462E+04  0.39087362365E+04  0.00000000000E+00 0.  1.
         22    1    1    2    0    0 -0.31292547364E+03  0.16815099246E+04 -0.28729696115E+03  0.17343406593E+04  0.00000000000E+00 0.  1.
<mgrwt>
<rscale>  0 0.51171473E+04</rscale>
<asrwt>0</asrwt>
<pdfrwt beam="1">  1        2 0.86828426E+00 0.51171473E+04</pdfrwt>
<pdfrwt beam="2">  1       -2 0.17844616E+00 0.51171473E+04</pdfrwt>
<totfact> 0.40194612E-04</totfact>
</mgrwt>
</event>
<event>
 6    1  0.1603085E-006  0.1609353E+04  0.7818608E-02  0.8814823E-01
          1   -1    0    0  501    0  0.00000000000E+00  0.00000000000E+00  0.21785919298E+04  0.21785919298E+04  0.00000000000E+00 0. -1.
         -1   -1    0    0    0  501 -0.00000000000E+00 -0.00000000000E+00 -0.29721224989E+03  0.29721224989E+03  0.00000000000E+00 0.  1.
         23    2    1    2    0    0  0.61908483921E+03 -0.26857762826E+03  0.16106119167E+04  0.17486761565E+04  0.91638274999E+02 0.  0.
         13    1    3    3    0    0  0.15138935714E+03 -0.10800194606E+03  0.47261029047E+03  0.50788152601E+03  0.00000000000E+00 0. -1.
        -13    1    3    3    0    0  0.46769548208E+03 -0.16057568220E+03  0.11380016262E+04  0.12407946304E+04  0.00000000000E+00 0.  1.
         22    1    1    2    0    0 -0.61908483921E+03  0.26857762826E+03  0.27076776319E+03  0.72712802320E+03  0.00000000000E+00 0. -1.
<mgrwt>
<rscale>  0 0.16093529E+04</rscale>
<asrwt>0</asrwt>
<pdfrwt beam="1">  1        1 0.33516798E+00 0.16093529E+04</pdfrwt>
<pdfrwt beam="2">  1       -1 0.45724963E-01 0.16093529E+04</pdfrwt>
<totfact> 0.10275969E+01</totfact>
</mgrwt>
</event>
<event>
 6    1  0.1603085E-006  0.1469013E+04  0.7818608E-02  0.8905324E-01
         -2   -1    0    0    0  501 -0.00000000000E+00  0.00000000000E+00  0.20132200579E+03  0.20132200579E+03  0.00000000000E+00 0. -1.
          2   -1    0    0  501    0  0.00000000000E+00 -0.00000000000E+00 -0.26797852613E+04  0.26797852613E+04  0.00000000000E+00 0.  1.
         23    2    1    2    0    0 -0.32990695202E+03 -0.38596025887E+03 -0.22773831978E+04  0.23349963735E+04  0.89050078271E+02 0.  0.
         13    1    3    3    0    0 -0.23057350849E+03 -0.27149457994E+03 -0.17689668999E+04  0.18044714857E+04  0.00000000000E+00 0. -1.
        -13    1    3    3    0    0 -0.99333443532E+02 -0.11446567893E+03 -0.50841629784E+03  0.53052488779E+03  0.00000000000E+00 0.  1.
         22    1    1    2    0    0  0.32990695202E+03  0.38596025887E+03 -0.20108005769E+03  0.54611089352E+03  0.00000000000E+00 0. -1.
<mgrwt>
<rscale>  0 0.14690129E+04</rscale>
<asrwt>0</asrwt>
<pdfrwt beam="1">  1        2 0.41227461E+00 0.14690129E+04</pdfrwt>
<pdfrwt beam="2">  1       -2 0.30972620E-01 0.14690129E+04</pdfrwt>
<totfact> 0.25654905E+01</totfact>
</mgrwt>
</event>
<event>
 6    1  0.1603085E-006  0.1489728E+04  0.7818608E-02  0.8891312E-01
          2   -1    0    0  501    0  0.00000000000E+00  0.00000000000E+00  0.14562995330E+04  0.14562995330E+04  0.00000000000E+00 0. -1.
         -2   -1    0    0    0  501 -0.00000000000E+00 -0.00000000000E+00 -0.38098100494E+03  0.38098100494E+03  0.00000000000E+00 0.  1.
         23    2    1    2    0    0 -0.33271808061E+03 -0.12866566050E+02  0.13576093388E+04  0.14007545117E+04  0.90239766976E+02 0.  0.
         11    1    3    3    0    0 -0.30095540995E+03  0.54721703029E+01  0.10958434005E+04  0.11364316353E+04  0.00000000000E+00 0.  1.
        -11    1    3    3    0    0 -0.31762670662E+02 -0.18338736353E+02  0.26176593836E+03  0.26432287639E+03  0.00000000000E+00 0. -1.
         22    1    1    2    0    0  0.33271808061E+03  0.12866566050E+02 -0.28229081079E+03  0.43652602620E+03  0.00000000000E+00 0.  1.
<mgrwt>
<rscale>  0 0.14897281E+04</rscale>
<asrwt>0</asrwt>
<pdfrwt beam="1">  1        2 0.22404608E+00 0.14897281E+04</pdfrwt>
<pdfrwt beam="2">  1       -2 0.58612463E-01 0.14897281E+04</pdfrwt>
<totfact> 0.35355042E+01</totfact>
</mgrwt>
</event>
<event>
 6    1  0.1603085E-006  0.5346205E+04  0.7818608E-02  0.7777213E-01
         -1   -1    0    0    0  501 -0.00000000000E+00  0.00000000000E+00  0.29504685991E+04  0.29504685991E+04  0.00000000000E+00 0.  1.
          1   -1    0    0  501    0  0.00000000000E+00 -0.00000000000E+00 -0.24218105657E+04  0.24218105657E+04  0.00000000000E+00 0. -1.
         23    2    1    2    0    0  0.14388318568E+02 -0.25832910317E+04 -0.42262835646E+03  0.26193633699E+04  0.94075277092E+02 0.  0.
         11    1    3    3    0    0 -0.11817411176E+02 -0.93019437229E+03 -0.19463755523E+03  0.95041306775E+03  0.00000000000E+00 0.  1.
        -11    1    3    3    0    0  0.26205729745E+02 -0.16530966594E+04 -0.22799080123E+03  0.16689503022E+04  0.00000000000E+00 0. -1.
         22    1    1    2    0    0 -0.14388318568E+02  0.25832910317E+04  0.95128638987E+03  0.27529157949E+04  0.00000000000E+00 0.  1.
<mgrwt>
<rscale>  0 0.53462046E+04</rscale>
<asrwt>0</asrwt>
<pdfrwt beam="1">  1        1 0.37258624E+00 0.53462046E+04</pdfrwt>
<pdfrwt beam="2">  1       -1 0.45391824E+00 0.53462046E+04</pdfrwt>
<totfact> 0.32893349E-03</totfact>
</mgrwt>
</event>
<event>
 6    1  0.1603085E-006  0.2239732E+04  0.7818608E-02  0.8502070E-01
         -1   -1    0    0    0  501 -0.00000000000E+00  0.00000000000E+00  0.74715654004E+03  0.74715654004E+03  0.00000000000E+00 0.  1.
          1   -1    0    0  501    0  0.00000000000E+00 -0.00000000000E+00 -0.16784971210E+04  0.16784971210E+04  0.00000000000E+00 0. -1.
         23    2    1    2    0    0  0.61730878669E+03 -0.54892005411E+03 -0.12823898146E+04  0.15280908897E+04  0.90303746994E+02 0.  0.
         11    1    3    3    0    0  0.39374211338E+03 -0.40487554663E+03 -0.85348993100E+03  0.10234266571E+04  0.00000000000E+00 0. -1.
        -11    1    3    3    0    0  0.22356667331E+03 -0.14404450748E+03 -0.42889988360E+03  0.50466423263E+03  0.00000000000E+00 0.  1.
         22    1    1    2    0    0 -0.61730878669E+03  0.54892005411E+03  0.35104923368E+03  0.89756277129E+03  0.00000000000E+00 0.  1.
<mgrwt>
<rscale>  0 0.22397322E+04</rscale>
<asrwt>0</asrwt>
<pdfrwt beam="1">  1        1 0.25823033E+00 0.22397322E+04</pdfrwt>
<pdfrwt beam="2">  1       -1 0.11494716E+00 0.22397322E+04</pdfrwt>
<totfact> 0.30777783E+00</totfact>
</mgrwt>
</event>
<event>
 6    1  0.1603085E-006  0.2555171E+04  0.7818608E-02  0.8383590E-01
          2   -1    0    0  501    0  0.00000000000E+00  0.00000000000E+00  0.79722696542E+03  0.79722696542E+03  0.00000000000E+00 0. -1.
         -2   -1    0    0    0  501 -0.00000000000E+00 -0.00000000000E+00 -0.20473778349E+04  0.20473778349E+04  0.00000000000E+00 0.  1.
         23    2    1    2    0    0  0.36152039255E+03 -0.25004272635E+03  0.70679544287E+03  0.83889863324E+03  0.10475094064E+03 0.  0.
         13    1    3    3    0    0  0.22083253595E+03 -0.13183506140E+03  0.49991004176E+03  0.56218995206E+03  0.00000000000E+00 0.  1.
        -13    1    3    3    0    0  0.14068785660E+03 -0.11820766496E+03  0.20688540112E+03  0.27670868118E+03  0.00000000000E+00 0. -1.
         22    1    1    2    0    0 -0.36152039255E+03  0.25004272635E+03 -0.19569463123E+04  0.20057061671E+04  0.00000000000E+00 0.  1.
<mgrwt>
<rscale>  0 0.25551711E+04</rscale>
<asrwt>0</asrwt>
<pdfrwt beam="1">  1        2 0.12265031E+00 0.25551711E+04</pdfrwt>
<pdfrwt beam="2">  1       -2 0.31498120E+00 0.25551711E+04</pdfrwt>
<totfact> 0.79022052E-01</totfact>
</mgrwt>
</event>
<event>
 6    1  0.1603085E-006  0.1349170E+04  0.7818608E-02  0.8991457E-01
         -2   -1    0    0    0  501 -0.00000000000E+00  0.00000000000E+00  0.59502461815E+03  0.59502461815E+03  0.00000000000E+00 0.  1.
          2   -1    0    0  501    0  0.00000000000E+00 -0.00000000000E+00 -0.76478280046E+03  0.76478280046E+03  0.00000000000E+00 0. -1.
         23    2    1    2    0    0 -0.38131808045E+03 -0.28668288502E+03  0.39097472505E+03  0.62359281101E+03  0.91739867452E+02 0.  0.
         13    1    3    3    0    0 -0.12567982429E+03 -0.61857588566E+02  0.73935651251E+02  0.15839273981E+03  0.00000000000E+00 0.  1.
        -13    1    3    3    0    0 -0.25563825615E+03 -0.22482529646E+03  0.31703907380E+03  0.46520007121E+03  0.00000000000E+00 0. -1.
         22    1    1    2    0    0  0.38131808045E+03  0.28668288502E+03 -0.56073290736E+03  0.73621460760E+03  0.00000000000E+00 0. -1.
<mgrwt>
<rscale>  0 0.13491695E+04</rscale>
<asrwt>0</asrwt>
<pdfrwt beam="1">  1        2 0.11765889E+00 0.13491695E+04</pdfrwt>
<pdfrwt beam="2">  1       -2 0.91542249E-01 0.13491695E+04</pdfrwt>
<totfact> 0.36296230E+01</totfact>
</mgrwt>
</event>
<event>
 6    1  0.1603085E-006  0.1827794E+04  0.7818608E-02  0.8691657E-01
          1   -1    0    0  501    0  0.00000000000E+00  0.00000000000E+00  0.18119727861E+04  0.18119727861E+04  0.00000000000E+00 0. -1.
         -1   -1    0    0    0  501 -0.00000000000E+00 -0.00000000000E+00 -0.46093853674E+03  0.46093853674E+03  0.00000000000E+00 0.  1.
         23    2    1    2    0    0 -0.74747288751E+02 -0.44989861196E+03 -0.30442919254E+03  0.55577558980E+03  0.90628112256E+02 0.  0.
         13    1    3    3    0    0 -0.29760137583E+02 -0.37902904231E+03 -0.26192602496E+03  0.46168595740E+03  0.00000000000E+00 0. -1.
        -13    1    3    3    0    0 -0.44987151168E+02 -0.70869569643E+02 -0.42503167587E+02  0.94089632408E+02  0.00000000000E+00 0.  1.
         22    1    1    2    0    0  0.74747288751E+02  0.44989861196E+03  0.16554634419E+04  0.17171357330E+04  0.00000000000E+00 0. -1.
<mgrwt>
<rscale>  0 0.18277944E+04</rscale>
<asrwt>0</asrwt>
<pdfrwt beam="1">  1        1 0.27876504E+00 0.18277944E+04</pdfrwt>
<pdfrwt beam="2">  1       -1 0.70913622E-01 0.18277944E+04</pdfrwt>
<totfact> 0.75607345E+00</totfact>
</mgrwt>
</event>
<event>
 6    1  0.1603085E-006  0.1626377E+04  0.7818608E-02  0.8804506E-01
         -1   -1    0    0    0  501 -0.00000000000E+00  0.00000000000E+00  0.23122753274E+03  0.23122753274E+03  0.00000000000E+00 0.  1.
          1   -1    0    0  501    0  0.00000000000E+00 -0.00000000000E+00 -0.28598464706E+04  0.28598464706E+04  0.00000000000E+00 0. -1.
         23    2    1    2    0    0 -0.32523459919E+03 -0.74202901261E+03 -0.14048318404E+04  0.16234093755E+04  0.74302762004E+02 0.  0.
         11    1    3    3    0    0 -0.22516748714E+03 -0.44388269202E+03 -0.90601991709E+03  0.10337332014E+04  0.00000000000E+00 0. -1.
        -11    1    3    3    0    0 -0.10006711205E+03 -0.29814632059E+03 -0.49881192335E+03  0.58967617408E+03  0.00000000000E+00 0.  1.
         22    1    1    2    0    0  0.32523459919E+03  0.74202901261E+03 -0.12237870974E+04  0.14676646279E+04  0.00000000000E+00 0.  1.
<mgrwt>
<rscale>  0 0.16263766E+04</rscale>
<asrwt>0</asrwt>
<pdfrwt beam="1">  1        1 0.43997638E+00 0.16263766E+04</pdfrwt>
<pdfrwt beam="2">  1       -1 0.35573466E-01 0.16263766E+04</pdfrwt>
<totfact> 0.54692682E+00</totfact>
</mgrwt>
</event>
<event>
 6    1  0.1603085E-006  0.5309987E+04  0.7818608E-02  0.7782390E-01
          1   -1    0    0  501    0  0.00000000000E+00  0.00000000000E+00  0.37330763209E+04  0.37330763209E+04  0.00000000000E+00 0. -1.
         -1   -1    0    0    0  501 -0.00000000000E+00 -0.00000000000E+00 -0.18882526276E+04  0.18882526276E+04  0.00000000000E+00 0.  1.
         23    2    1    2    0    0 -0.20786380640E+04  0.11735288870E+04 -0.30632346103E+03  0.24080221892E+04  0.82647148015E+02 0.  0.
         11    1    3    3    0    0 -0.20138332111E+03  0.14036591965E+03 -0.41046198118E+02  0.24888275111E+03  0.00000000000E+00 0.  1.
        -11    1    3    3    0    0 -0.18772547429E+04  0.10331629673E+04 -0.26527726292E+03  0.21591394381E+04  0.00000000000E+00 0. -1.
         22    1    1    2    0    0  0.20786380640E+04 -0.11735288870E+04  0.21511471544E+04  0.32133067593E+04  0.00000000000E+00 0. -1.
<mgrwt>
<rscale>  0 0.53099873E+04</rscale>
<asrwt>0</asrwt>
<pdfrwt beam="1">  1        1 0.57431943E+00 0.53099873E+04</pdfrwt>
<pdfrwt beam="2">  1       -1 0.29050041E+00 0.53099873E+04</pdfrwt>
<totfact> 0.43358846E-03</totfact>
</mgrwt>
</event>
<event>
 6    1  0.1603085E-006  0.3415954E+04  0.7818608E-02  0.8134002E-01
         -2   -1    0    0    0  501 -0.00000000000E+00  0.00000000000E+00  0.13566350488E+04  0.13566350488E+04  0.00000000000E+00 0. -1.
          2   -1    0    0  501    0  0.00000000000E+00 -0.00000000000E+00 -0.21503098157E+04  0.21503098157E+04  0.00000000000E+00 0.  1.
         23    2    1    2    0    0  0.17340760152E+03  0.13704063761E+04 -0.14263649369E+04  0.19876092587E+04  0.89385684194E+02 0.  0.
         11    1    3    3    0    0  0.43577033043E+02  0.55492411865E+03 -0.52448939722E+03  0.76480642195E+03  0.00000000000E+00 0.  1.
        -11    1    3    3    0    0  0.12983056848E+03  0.81548225741E+03 -0.90187553964E+03  0.12228028368E+04  0.00000000000E+00 0. -1.
         22    1    1    2    0    0 -0.17340760152E+03 -0.13704063761E+04  0.63269016993E+03  0.15193356058E+04  0.00000000000E+00 0. -1.
<mgrwt>
<rscale>  0 0.34159541E+04</rscale>
<asrwt>0</asrwt>
<pdfrwt beam="1">  1        2 0.33081689E+00 0.34159541E+04</pdfrwt>
<pdfrwt beam="2">  1       -2 0.20871308E+00 0.34159541E+04</pdfrwt>
<totfact> 0.53178952E-01</totfact>
</mgrwt>
</event>
<event>
 6    1  0.1603085E-006  0.2266491E+04  0.7818608E-02  0.8491251E-01
          2   -1    0    0  501    0  0.00000000000E+00  0.00000000000E+00  0.21240058476E+04  0.21240058476E+04  0.00000000000E+00 0. -1.
         -2   -1    0    0    0  501 -0.00000000000E+00 -0.00000000000E+00 -0.60463385785E+03  0.60463385785E+03  0.00000000000E+00 0.  1.
         23    2    1    2    0    0  0.29084708616E+03 -0.55086784272E+03 -0.37690737833E+03  0.73266303989E+03  0.81783558847E+02 0.  0.
         13    1    3    3    0    0  0.18796384800E+03 -0.41119564024E+03 -0.30200575650E+03  0.54370924184E+03  0.00000000000E+00 0. -1.
        -13    1    3    3    0    0  0.10288323816E+03 -0.13967220249E+03 -0.74901621832E+02  0.18895379805E+03  0.00000000000E+00 0.  1.
         22    1    1    2    0    0 -0.29084708616E+03  0.55086784272E+03  0.18962793681E+04  0.19959766656E+04  0.00000000000E+00 0. -1.
<mgrwt>
<rscale>  0 0.22664914E+04</rscale>
<asrwt>0</asrwt>
<pdfrwt beam="1">  1        2 0.32677013E+00 0.22664914E+04</pdfrwt>
<pdfrwt beam="2">  1       -2 0.93020594E-01 0.22664914E+04</pdfrwt>
<totfact> 0.50693453E+00</totfact>
</mgrwt>
</event>
<event>
 6    1  0.1603085E-006  0.2207422E+04  0.7818608E-02  0.8515345E-01
         -2   -1    0    0    0  501 -0.00000000000E+00  0.00000000000E+00  0.76786021220E+03  0.76786021220E+03  0.00000000000E+00 0. -1.
          2   -1    0    0  501    0  0.00000000000E+00 -0.00000000000E+00 -0.15864582880E+04  0.15864582880E+04  0.00000000000E+00 0.  1.
         23    2    1    2    0    0  0.30598509958E+03 -0.25467146127E+03  0.68585879612E+03  0.79808107814E+03  0.89703314948E+02 0.  0.
         13    1    3    3    0    0  0.29497777020E+03 -0.24814036625E+03  0.68401349249E+03  0.78514965719E+03  0.00000000000E+00 0. -1.
        -13    1    3    3    0    0  0.11007329374E+02 -0.65310950296E+01  0.18453036293E+01  0.12931420947E+02  0.00000000000E+00 0.  1.
         22    1    1    2    0    0 -0.30598509958E+03  0.25467146127E+03 -0.15044568720E+04  0.15562374221E+04  0.00000000000E+00 0.  1.
<mgrwt>
<rscale>  0 0.22074222E+04</rscale>
<asrwt>0</asrwt>
<pdfrwt beam="1">  1        2 0.24407050E+00 0.22074222E+04</pdfrwt>
<pdfrwt beam="2">  1       -2 0.11813234E+00 0.22074222E+04</pdfrwt>
<totfact> 0.57239223E+00</totfact>
</mgrwt>
</event>
<event>
 6    1  0.1603085E-006  0.2181316E+04  0.7818608E-02  0.8526245E-01
          1   -1    0    0  501    0  0.00000000000E+00  0.00000000000E+00  0.14620499536E+04  0.14620499536E+04  0.00000000000E+00 0. -1.
         -1   -1    0    0    0  501 -0.00000000000E+00 -0.00000000000E+00 -0.81360729743E+03  0.81360729743E+03  0.00000000000E+00 0.  1.
         23    2    1    2    0    0 -0.73896408701E+03 -0.42209743407E+02  0.11578094607E+04  0.13771562072E+04  0.90481420230E+02 0.  0.
         13    1    3    3    0    0 -0.11455369646E+03  0.49289898876E+01  0.12741311693E+03  0.17140871239E+03  0.00000000000E+00 0.  1.
        -13    1    3    3    0    0 -0.62441039055E+03 -0.47138733294E+02  0.10303963438E+04  0.12057474948E+04  0.00000000000E+00 0. -1.
         22    1    1    2    0    0  0.73896408701E+03  0.42209743407E+02 -0.50936680449E+03  0.89850104388E+03  0.00000000000E+00 0.  1.
<mgrwt>
<rscale>  0 0.21813157E+04</rscale>
<asrwt>0</asrwt>
<pdfrwt beam="1">  1        1 0.22493076E+00 0.21813157E+04</pdfrwt>
<pdfrwt beam="2">  1       -1 0.12517035E+00 0.21813157E+04</pdfrwt>
<totfact> 0.35406651E+00</totfact>
</mgrwt>
</event>
<event>
 6    1  0.1603085E-006  0.2763780E+04  0.7818608E-02  0.8314602E-01
         -2   -1    0    0    0  501 -0.00000000000E+00  0.00000000000E+00  0.12483639669E+04  0.12483639669E+04  0.00000000000E+00 0.  1.
          2   -1    0    0  501    0  0.00000000000E+00 -0.00000000000E+00 -0.15296984677E+04  0.15296984677E+04  0.00000000000E+00 0. -1.
         23    2    1    2    0    0 -0.46292241653E+03  0.84576236729E+03  0.85237900538E+03  0.12898025582E+04  0.86194689847E+02 0.  0.
         13    1    3    3    0    0 -0.17482843404E+03  0.40311061777E+03  0.40719568960E+03  0.59905882945E+03  0.00000000000E+00 0.  1.
        -13    1    3    3    0    0 -0.28809398249E+03  0.44265174951E+03  0.44518331578E+03  0.69074372870E+03  0.00000000000E+00 0. -1.
         22    1    1    2    0    0  0.46292241653E+03 -0.84576236729E+03 -0.11337135063E+04  0.14882598765E+04  0.00000000000E+00 0. -1.
<mgrwt>
<rscale>  0 0.27637803E+04</rscale>
<asrwt>0</asrwt>
<pdfrwt beam="1">  1        2 0.23533823E+00 0.27637803E+04</pdfrwt>
<pdfrwt beam="2">  1       -2 0.19205599E+00 0.27637803E+04</pdfrwt>
<totfact> 0.16007686E+00</totfact>
</mgrwt>
</event>
<event>
 6    1  0.1603085E-006  0.1576170E+04  0.7818608E-02  0.8835323E-01
          1   -1    0    0  501    0  0.00000000000E+00  0.00000000000E+00  0.17151920798E+04  0.17151920798E+04  0.00000000000E+00 0. -1.
         -1   -1    0    0    0  501 -0.00000000000E+00 -0.00000000000E+00 -0.36210396460E+03  0.36210396460E+03  0.00000000000E+00 0.  1.
         23    2    1    2    0    0  0.55901252371E+02 -0.47220973905E+03  0.15015641709E+04  0.15791473450E+04  0.11359749228E+03 0.  0.
         13    1    3    3    0    0  0.34338157463E+02 -0.68672034131E+02  0.36195206092E+03  0.37000574554E+03  0.00000000000E+00 0. -1.
        -13    1    3    3    0    0  0.21563094908E+02 -0.40353770492E+03  0.11396121100E+04  0.12091415995E+04  0.00000000000E+00 0.  1.
         22    1    1    2    0    0 -0.55901252371E+02  0.47220973905E+03 -0.14847605564E+03  0.49814869945E+03  0.00000000000E+00 0.  1.
<mgrwt>
<rscale>  0 0.15761699E+04</rscale>
<asrwt>0</asrwt>
<pdfrwt beam="1">  1        1 0.26387570E+00 0.15761699E+04</pdfrwt>
<pdfrwt beam="2">  1       -1 0.55708303E-01 0.15761699E+04</pdfrwt>
<totfact> 0.14580705E+01</totfact>
</mgrwt>
</event>
<event>
 6    1  0.1603085E-006  0.4497171E+04  0.7818608E-02  0.7911132E-01
         -1   -1    0    0    0  501 -0.00000000000E+00  0.00000000000E+00  0.25871591026E+04  0.25871591026E+04  0.00000000000E+00 0.  1.
          1   -1    0    0  501    0  0.00000000000E+00 -0.00000000000E+00 -0.19543203768E+04  0.19543203768E+04  0.00000000000E+00 0. -1.
         23    2    1    2    0    0 -0.14453635806E+04 -0.17094006638E+04  0.11233717620E+03  0.22432087442E+04  0.90770694799E+02 0.  0.
         11    1    3    3    0    0 -0.97192073400E+03 -0.11331621833E+04  0.33360701286E+02  0.14932512793E+04  0.00000000000E+00 0.  1.
        -11    1    3    3    0    0 -0.47344284661E+03 -0.57623848052E+03  0.78976474916E+02  0.74995746481E+03  0.00000000000E+00 0. -1.
         22    1    1    2    0    0  0.14453635806E+04  0.17094006638E+04  0.52050154957E+03  0.22982707353E+04  0.00000000000E+00 0. -1.
<mgrwt>
<rscale>  0 0.44971714E+04</rscale>
<asrwt>0</asrwt>
<pdfrwt beam="1">  1        1 0.30066467E+00 0.44971714E+04</pdfrwt>
<pdfrwt beam="2">  1       -1 0.39802448E+00 0.44971714E+04</pdfrwt>
<totfact> 0.17748936E-02</totfact>
</mgrwt>
</event>
<event>
 6    1  0.1603085E-006  0.2279246E+04  0.7818608E-02  0.8486149E-01
         -1   -1    0    0    0  501 -0.00000000000E+00  0.00000000000E+00  0.13564963757E+04  0.13564963757E+04  0.00000000000E+00 0.  1.
          1   -1    0    0  501    0  0.00000000000E+00 -0.00000000000E+00 -0.95742249226E+03  0.95742249226E+03  0.00000000000E+00 0. -1.
         23    2    1    2    0    0  0.30651121554E+03 -0.70173584109E+03 -0.65462930155E+03  0.10113549663E+04  0.88977690600E+02 0.  0.
         11    1    3    3    0    0  0.75817931731E+01 -0.43720530016E+02 -0.64544631838E+02  0.78326099301E+02  0.00000000000E+00 0.  1.
        -11    1    3    3    0    0  0.29892942237E+03 -0.65801531107E+03 -0.59008466972E+03  0.93302886697E+03  0.00000000000E+00 0. -1.
         22    1    1    2    0    0 -0.30651121554E+03  0.70173584109E+03  0.10537031850E+04  0.13025639017E+04  0.00000000000E+00 0.  1.
<mgrwt>
<rscale>  0 0.22792456E+04</rscale>
<asrwt>0</asrwt>
<pdfrwt beam="1">  1        1 0.14729577E+00 0.22792456E+04</pdfrwt>
<pdfrwt beam="2">  1       -1 0.20869175E+00 0.22792456E+04</pdfrwt>
<totfact> 0.19425754E+00</totfact>
</mgrwt>
</event>
<event>
 6    1  0.1603085E-006  0.2472015E+04  0.7818608E-02  0.8413024E-01
         -1   -1    0    0    0  501 -0.00000000000E+00  0.00000000000E+00  0.89730733102E+03  0.89730733102E+03  0.00000000000E+00 0.  1.
          1   -1    0    0  501    0  0.00000000000E+00 -0.00000000000E+00 -0.17025541962E+04  0.17025541962E+04  0.00000000000E+00 0. -1.
         23    2    1    2    0    0  0.52681478898E+03  0.12525881237E+02 -0.15774209411E+04  0.16650120617E+04  0.79483462454E+02 0.  0.
         13    1    3    3    0    0  0.27533839719E+03 -0.17529025298E+02 -0.92062700393E+03  0.96107886256E+03  0.00000000000E+00 0. -1.
        -13    1    3    3    0    0  0.25147639179E+03  0.30054906535E+02 -0.65679393716E+03  0.70393319919E+03  0.00000000000E+00 0.  1.
         22    1    1    2    0    0 -0.52681478898E+03 -0.12525881237E+02  0.77217407590E+03  0.93484946547E+03  0.00000000000E+00 0.  1.
<mgrwt>
<rscale>  0 0.24720149E+04</rscale>
<asrwt>0</asrwt>
<pdfrwt beam="1">  1        1 0.26193141E+00 0.24720149E+04</pdfrwt>
<pdfrwt beam="2">  1       -1 0.13804728E+00 0.24720149E+04</pdfrwt>
<totfact> 0.18380980E+00</totfact>
</mgrwt>
</event>
<event>
 6    1  0.1603085E-006  0.1384839E+04  0.7818608E-02  0.8964866E-01
          1   -1    0    0  501    0  0.00000000000E+00  0.00000000000E+00  0.11805477778E+04  0.11805477778E+04  0.00000000000E+00 0. -1.
         -1   -1    0    0    0  501 -0.00000000000E+00 -0.00000000000E+00 -0.40612074399E+03  0.40612074399E+03  0.00000000000E+00 0.  1.
         23    2    1    2    0    0  0.40199335871E+03  0.15526792229E+02  0.10303976497E+04  0.11098449717E+04  0.90536196269E+02 0.  0.
         13    1    3    3    0    0  0.18757046351E+03 -0.31966547448E+02  0.53912884333E+03  0.57172060365E+03  0.00000000000E+00 0. -1.
        -13    1    3    3    0    0  0.21442289520E+03  0.47493339677E+02  0.49126880639E+03  0.53812436800E+03  0.00000000000E+00 0.  1.
         22    1    1    2    0    0 -0.40199335871E+03 -0.15526792229E+02 -0.25597061592E+03  0.47682355011E+03  0.00000000000E+00 0.  1.
<mgrwt>
<rscale>  0 0.13848393E+04</rscale>
<asrwt>0</asrwt>
<pdfrwt beam="1">  1        1 0.18162273E+00 0.13848393E+04</pdfrwt>
<pdfrwt beam="2">  1       -1 0.62480115E-01 0.13848393E+04</pdfrwt>
<totfact> 0.28009228E+01</totfact>
</mgrwt>
</event>
<event>
 6    1  0.1603085E-006  0.5134848E+04  0.7818608E-02  0.7808036E-01
         -2   -1    0    0    0  501 -0.00000000000E+00  0.00000000000E+00  0.22199967090E+04  0.22199967090E+04  0.00000000000E+00 0.  1.
          2   -1    0    0  501    0  0.00000000000E+00 -0.00000000000E+00 -0.29692233577E+04  0.29692233577E+04  0.00000000000E+00 0. -1.
         23    2    1    2    0    0 -0.17018922736E+04 -0.19034393655E+04 -0.11120577013E+03  0.25573786258E+04  0.91104244204E+02 0.  0.
         11    1    3    3    0    0 -0.85851228412E+03 -0.92735372266E+03 -0.95019836433E+02  0.12673030570E+04  0.00000000000E+00 0.  1.
        -11    1    3    3    0    0 -0.84337998945E+03 -0.97608564283E+03 -0.16185933698E+02  0.12900755688E+04  0.00000000000E+00 0. -1.
         22    1    1    2    0    0  0.17018922736E+04  0.19034393655E+04 -0.63802087854E+03  0.26318414410E+04  0.00000000000E+00 0. -1.
<mgrwt>
<rscale>  0 0.51348480E+04</rscale>
<asrwt>0</asrwt>
<pdfrwt beam="1">  1        2 0.45680360E+00 0.51348480E+04</pdfrwt>
<pdfrwt beam="2">  1       -2 0.34153795E+00 0.51348480E+04</pdfrwt>
<totfact> 0.23046809E-02</totfact>
</mgrwt>
</event>
<event>
 6    1  0.1603085E-006  0.1973354E+04  0.7818608E-02  0.8619181E-01
          1   -1    0    0  501    0  0.00000000000E+00  0.00000000000E+00  0.19581524651E+04  0.19581524651E+04  0.00000000000E+00 0. -1.
         -1   -1    0    0    0  501 -0.00000000000E+00 -0.00000000000E+00 -0.49716848215E+03  0.49716848215E+03  0.00000000000E+00 0.  1.
         23    2    1    2    0    0  0.78153319514E+03 -0.58680649396E+03  0.88151124079E+03  0.13191322942E+04  0.88949117231E+02 0.  0.
         13    1    3    3    0    0  0.16885810175E+03 -0.12678915669E+03  0.14321348643E+03  0.25514437379E+03  0.00000000000E+00 0.  1.
        -13    1    3    3    0    0  0.61267509339E+03 -0.46001733726E+03  0.73829775436E+03  0.10639879204E+04  0.00000000000E+00 0. -1.
         22    1    1    2    0    0 -0.78153319514E+03  0.58680649396E+03  0.57947274218E+03  0.11361886531E+04  0.00000000000E+00 0.  1.
<mgrwt>
<rscale>  0 0.19733542E+04</rscale>
<asrwt>0</asrwt>
<pdfrwt beam="1">  1        1 0.30125422E+00 0.19733542E+04</pdfrwt>
<pdfrwt beam="2">  1       -1 0.76487460E-01 0.19733542E+04</pdfrwt>
<totfact> 0.50745177E+00</totfact>
</mgrwt>
</event>
<event>
 6    1  0.1603085E-006  0.4798131E+04  0.7818608E-02  0.7860425E-01
          2   -1    0    0  501    0  0.00000000000E+00  0.00000000000E+00  0.15563825002E+04  0.15563825002E+04  0.00000000000E+00 0. -1.
         -2   -1    0    0    0  501 -0.00000000000E+00 -0.00000000000E+00 -0.36980088033E+04  0.36980088033E+04  0.00000000000E+00 0.  1.
         23    2    1    2    0    0 -0.12588162461E+04 -0.20345364994E+04 -0.88940019980E+03  0.25540158995E+04  0.89484023508E+02 0.  0.
         11    1    3    3    0    0 -0.66382610149E+03 -0.10484421648E+04 -0.41558516908E+03  0.13086661525E+04  0.00000000000E+00 0. -1.
        -11    1    3    3    0    0 -0.59499014466E+03 -0.98609433455E+03 -0.47381503072E+03  0.12453497469E+04  0.00000000000E+00 0.  1.
         22    1    1    2    0    0  0.12588162461E+04  0.20345364994E+04 -0.12522261033E+04  0.27003754040E+04  0.00000000000E+00 0.  1.
<mgrwt>
<rscale>  0 0.47981314E+04</rscale>
<asrwt>0</asrwt>
<pdfrwt beam="1">  1        2 0.23944346E+00 0.47981314E+04</pdfrwt>
<pdfrwt beam="2">  1       -2 0.56892442E+00 0.47981314E+04</pdfrwt>
<totfact> 0.60694485E-03</totfact>
</mgrwt>
</event>
<event>
 6    1  0.1603085E-006  0.1209036E+04  0.7818608E-02  0.9104984E-01
         -4   -1    0    0    0  501 -0.00000000000E+00  0.00000000000E+00  0.78584528772E+03  0.78584528772E+03  0.00000000000E+00 0.  1.
          4   -1    0    0  501    0  0.00000000000E+00 -0.00000000000E+00 -0.46503084625E+03  0.46503084625E+03  0.00000000000E+00 0. -1.
         23    2    1    2    0    0 -0.39590804211E+02  0.21272236822E+03  0.74146088288E+03  0.77784160417E+03  0.91951523248E+02 0.  0.
         11    1    3    3    0    0  0.17126716891E+02  0.10921940369E+03  0.45021946292E+03  0.46359439963E+03  0.00000000000E+00 0.  1.
        -11    1    3    3    0    0 -0.56717521102E+02  0.10350296453E+03  0.29124141995E+03  0.31424720454E+03  0.00000000000E+00 0. -1.
         22    1    1    2    0    0  0.39590804211E+02 -0.21272236822E+03 -0.42064644140E+03  0.47303452980E+03  0.00000000000E+00 0. -1.
<mgrwt>
<rscale>  0 0.12090365E+04</rscale>
<asrwt>0</asrwt>
<pdfrwt beam="1">  1        4 0.71543207E-01 0.12090365E+04</pdfrwt>
<pdfrwt beam="2">  1       -4 0.12089927E+00 0.12090365E+04</pdfrwt>
<totfact> 0.18229908E+00</totfact>
</mgrwt>
</event>
<event>
 6    1  0.1603085E-006  0.5264018E+04  0.7818608E-02  0.7789022E-01
         -2   -1    0    0    0  501 -0.00000000000E+00  0.00000000000E+00  0.18663073864E+04  0.18663073864E+04  0.00000000000E+00 0.  1.
          2   -1    0    0  501    0  0.00000000000E+00 -0.00000000000E+00 -0.37118603743E+04  0.37118603743E+04  0.00000000000E+00 0. -1.
         23    2    1    2    0    0 -0.30494122225E+02  0.19143818560E+04  0.98959289725E+03  0.21570802183E+04  0.88956078315E+02 0.  0.
         11    1    3    3    0    0  0.17244595328E+01  0.16853181176E+03  0.59970942352E+02  0.17889231191E+03  0.00000000000E+00 0. -1.
        -11    1    3    3    0    0 -0.32218581758E+02  0.17458500442E+04  0.92962195490E+03  0.19781879064E+04  0.00000000000E+00 0.  1.
         22    1    1    2    0    0  0.30494122225E+02 -0.19143818560E+04 -0.28351458852E+04  0.34210875424E+04  0.00000000000E+00 0. -1.
<mgrwt>
<rscale>  0 0.52640184E+04</rscale>
<asrwt>0</asrwt>
<pdfrwt beam="1">  1        2 0.57105543E+00 0.52640184E+04</pdfrwt>
<pdfrwt beam="2">  1       -2 0.28712422E+00 0.52640184E+04</pdfrwt>
<totfact> 0.15490961E-02</totfact>
</mgrwt>
</event>
<event>
 6    1  0.1603085E-006  0.3129295E+04  0.7818608E-02  0.8207744E-01
         -1   -1    0    0    0  501 -0.00000000000E+00  0.00000000000E+00  0.12779757582E+04  0.12779757582E+04  0.00000000000E+00 0.  1.
          1   -1    0    0  501    0  0.00000000000E+00 -0.00000000000E+00 -0.19156244595E+04  0.19156244595E+04  0.00000000000E+00 0. -1.
         23    2    1    2    0    0 -0.13786100326E+04 -0.71269206195E+03 -0.12613483549E+03  0.15595432934E+04  0.88145844159E+02 0.  0.
         13    1    3    3    0    0 -0.55982255476E+03 -0.30898725454E+03 -0.91864077162E+02  0.64599800694E+03  0.00000000000E+00 0. -1.
        -13    1    3    3    0    0 -0.81878747788E+03 -0.40370480741E+03 -0.34270758327E+02  0.91354528642E+03  0.00000000000E+00 0.  1.
         22    1    1    2    0    0  0.13786100326E+04  0.71269206195E+03 -0.51151386582E+03  0.16340569244E+04  0.00000000000E+00 0.  1.
<mgrwt>
<rscale>  0 0.31292949E+04</rscale>
<asrwt>0</asrwt>
<pdfrwt beam="1">  1        1 0.29471145E+00 0.31292949E+04</pdfrwt>
<pdfrwt beam="2">  1       -1 0.19661166E+00 0.31292949E+04</pdfrwt>
<totfact> 0.45466279E-01</totfact>
</mgrwt>
</event>
<event>
 6    1  0.1603085E-006  0.2488943E+04  0.7818608E-02  0.8406935E-01
          1   -1    0    0  501    0  0.00000000000E+00  0.00000000000E+00  0.21623299055E+04  0.21623299055E+04  0.00000000000E+00 0. -1.
         -1   -1    0    0    0  501 -0.00000000000E+00 -0.00000000000E+00 -0.71622256296E+03  0.71622256296E+03  0.00000000000E+00 0.  1.
         23    2    1    2    0    0  0.11410348752E+04 -0.45445872411E+03  0.50474435471E+03  0.13310843450E+04  0.92332829554E+02 0.  0.
         13    1    3    3    0    0  0.86346189256E+03 -0.38526683752E+03  0.39435712595E+03  0.10244581586E+04  0.00000000000E+00 0. -1.
        -13    1    3    3    0    0  0.27757298267E+03 -0.69191886584E+02  0.11038722876E+03  0.30662618634E+03  0.00000000000E+00 0.  1.
         22    1    1    2    0    0 -0.11410348752E+04  0.45445872411E+03  0.94136298786E+03  0.15474681235E+04  0.00000000000E+00 0. -1.
<mgrwt>
<rscale>  0 0.24889431E+04</rscale>
<asrwt>0</asrwt>
<pdfrwt beam="1">  1        1 0.33266614E+00 0.24889431E+04</pdfrwt>
<pdfrwt beam="2">  1       -1 0.11018809E+00 0.24889431E+04</pdfrwt>
<totfact> 0.15618319E+00</totfact>
</mgrwt>
</event>
<event>
 6    1  0.1603085E-006  0.2131625E+04  0.7818608E-02  0.8547439E-01
         -1   -1    0    0    0  501 -0.00000000000E+00  0.00000000000E+00  0.82959628759E+03  0.82959628759E+03  0.00000000000E+00 0.  1.
          1   -1    0    0  501    0  0.00000000000E+00 -0.00000000000E+00 -0.13692880986E+04  0.13692880986E+04  0.00000000000E+00 0. -1.
         23    2    1    2    0    0 -0.22170114320E+03  0.53757978941E+03  0.64867688617E+03  0.87587131471E+03  0.90694158537E+02 0.  0.
         11    1    3    3    0    0 -0.65194264168E+02  0.16730645055E+03  0.26547188236E+03  0.32049502461E+03  0.00000000000E+00 0.  1.
        -11    1    3    3    0    0 -0.15650687903E+03  0.37027333886E+03  0.38320500382E+03  0.55537629010E+03  0.00000000000E+00 0. -1.
         22    1    1    2    0    0  0.22170114320E+03 -0.53757978941E+03 -0.11883686972E+04  0.13230130715E+04  0.00000000000E+00 0.  1.
<mgrwt>
<rscale>  0 0.21316250E+04</rscale>
<asrwt>0</asrwt>
<pdfrwt beam="1">  1        1 0.21065971E+00 0.21316250E+04</pdfrwt>
<pdfrwt beam="2">  1       -1 0.12763020E+00 0.21316250E+04</pdfrwt>
<totfact> 0.39346801E+00</totfact>
</mgrwt>
</event>
<event>
 6    1  0.1603085E-006  0.9186467E+03  0.7818608E-02  0.9402568E-01
         -2   -1    0    0    0  501 -0.00000000000E+00  0.00000000000E+00  0.20913012600E+03  0.20913012600E+03  0.00000000000E+00 0.  1.
          2   -1    0    0  501    0  0.00000000000E+00 -0.00000000000E+00 -0.10088357794E+04  0.10088357794E+04  0.00000000000E+00 0. -1.
         23    2    1    2    0    0  0.26227421908E+03 -0.30357083429E+02 -0.89480693044E+03  0.93733523814E+03  0.90601254899E+02 0.  0.
         11    1    3    3    0    0  0.25666742545E+03 -0.15786915774E+02 -0.77579364588E+03  0.81730237672E+03  0.00000000000E+00 0.  1.
        -11    1    3    3    0    0  0.56067936304E+01 -0.14570167655E+02 -0.11901328456E+03  0.12003286143E+03  0.00000000000E+00 0. -1.
         22    1    1    2    0    0 -0.26227421908E+03  0.30357083429E+02  0.95101277049E+02  0.28063066726E+03  0.00000000000E+00 0.  1.
<mgrwt>
<rscale>  0 0.91864673E+03</rscale>
<asrwt>0</asrwt>
<pdfrwt beam="1">  1        2 0.15520550E+00 0.91864673E+03</pdfrwt>
<pdfrwt beam="2">  1       -2 0.32173866E-01 0.91864673E+03</pdfrwt>
<totfact> 0.22366761E+02</totfact>
</mgrwt>
</event>
<event>
 6    1  0.1619701E-006  0.3426406E+04  0.7818608E-02  0.8131456E-01
         -2   -1    0    0    0  501 -0.00000000000E+00  0.00000000000E+00  0.10555308054E+04  0.10555308054E+04  0.00000000000E+00 0. -1.
          2   -1    0    0  501    0  0.00000000000E+00 -0.00000000000E+00 -0.27806524516E+04  0.27806524516E+04  0.00000000000E+00 0.  1.
         23    2    1    2    0    0  0.74992034600E+03  0.83512966415E+03 -0.23104313783E+04  0.25703200875E+04  0.92898421843E+02 0.  0.
         11    1    3    3    0    0  0.29950582529E+03  0.40172104226E+03 -0.10451080977E+04  0.11590230675E+04  0.00000000000E+00 0.  1.
        -11    1    3    3    0    0  0.45041452072E+03  0.43340862190E+03 -0.12653232806E+04  0.14112970199E+04  0.00000000000E+00 0. -1.
         22    1    1    2    0    0 -0.74992034600E+03 -0.83512966415E+03  0.58530973212E+03  0.12658631695E+04  0.00000000000E+00 0. -1.
<mgrwt>
<rscale>  0 0.34264059E+04</rscale>
<asrwt>0</asrwt>
<pdfrwt beam="1">  1        2 0.42779268E+00 0.34264059E+04</pdfrwt>
<pdfrwt beam="2">  1       -2 0.16238936E+00 0.34264059E+04</pdfrwt>
<totfact> 0.47481653E-01</totfact>
</mgrwt>
</event>
<event>
 6    1  0.1603085E-006  0.1702818E+04  0.7818608E-02  0.8759759E-01
         -2   -1    0    0    0  501 -0.00000000000E+00  0.00000000000E+00  0.89132316317E+03  0.89132316317E+03  0.00000000000E+00 0.  1.
          2   -1    0    0  501    0  0.00000000000E+00 -0.00000000000E+00 -0.81328191940E+03  0.81328191940E+03  0.00000000000E+00 0. -1.
         23    2    1    2    0    0 -0.37026283425E+03 -0.67479556488E+02 -0.72242625712E+03  0.82007341159E+03  0.94724054220E+02 0.  0.
         13    1    3    3    0    0 -0.22658611781E+03 -0.35589428678E+02 -0.33834671059E+03  0.40876200017E+03  0.00000000000E+00 0.  1.
        -13    1    3    3    0    0 -0.14367671644E+03 -0.31890127809E+02 -0.38407954653E+03  0.41131141142E+03  0.00000000000E+00 0. -1.
         22    1    1    2    0    0  0.37026283425E+03  0.67479556488E+02  0.80046750090E+03  0.88453167098E+03  0.00000000000E+00 0.  1.
<mgrwt>
<rscale>  0 0.17028177E+04</rscale>
<asrwt>0</asrwt>
<pdfrwt beam="1">  1        2 0.12512030E+00 0.17028177E+04</pdfrwt>
<pdfrwt beam="2">  1       -2 0.13712664E+00 0.17028177E+04</pdfrwt>
<totfact> 0.12146256E+01</totfact>
</mgrwt>
</event>
<event>
 6    1  0.1603085E-006  0.4691805E+04  0.7818608E-02  0.7877892E-01
          2   -1    0    0  501    0  0.00000000000E+00  0.00000000000E+00  0.32615060335E+04  0.32615060335E+04  0.00000000000E+00 0.  1.
         -2   -1    0    0    0  501 -0.00000000000E+00 -0.00000000000E+00 -0.16873368891E+04  0.16873368891E+04  0.00000000000E+00 0. -1.
         23    2    1    2    0    0  0.14264233761E+04 -0.18565779429E+04  0.92655920409E+03  0.25196529464E+04  0.92594305401E+02 0.  0.
         11    1    3    3    0    0  0.87131140162E+03 -0.10747066917E+04  0.57696126350E+03  0.14990204573E+04  0.00000000000E+00 0. -1.
        -11    1    3    3    0    0  0.55511197451E+03 -0.78187125117E+03  0.34959794059E+03  0.10206324891E+04  0.00000000000E+00 0.  1.
         22    1    1    2    0    0 -0.14264233761E+04  0.18565779429E+04  0.64760994032E+03  0.24291899763E+04  0.00000000000E+00 0.  1.
<mgrwt>
<rscale>  0 0.46918054E+04</rscale>
<asrwt>0</asrwt>
<pdfrwt beam="1">  1        2 0.50177016E+00 0.46918054E+04</pdfrwt>
<pdfrwt beam="2">  1       -2 0.25959029E+00 0.46918054E+04</pdfrwt>
<totfact> 0.49406931E-02</totfact>
</mgrwt>
</event>
<event>
 6    1  0.1603085E-006  0.1228818E+04  0.7818608E-02  0.9088000E-01
          1   -1    0    0  501    0  0.00000000000E+00  0.00000000000E+00  0.21194207100E+03  0.21194207100E+03  0.00000000000E+00 0. -1.
         -1   -1    0    0    0  501 -0.00000000000E+00 -0.00000000000E+00 -0.17811382239E+04  0.17811382239E+04  0.00000000000E+00 0.  1.
         23    2    1    2    0    0 -0.40486651674E+03  0.21585552320E+03 -0.14434897370E+04  0.15173570494E+04  0.90549938939E+02 0.  0.
         13    1    3    3    0    0 -0.21634165032E+03  0.13617794863E+03 -0.93243233177E+03  0.96683928173E+03  0.00000000000E+00 0.  1.
        -13    1    3    3    0    0 -0.18852486642E+03  0.79677574573E+02 -0.51105740518E+03  0.55051776769E+03  0.00000000000E+00 0. -1.
         22    1    1    2    0    0  0.40486651674E+03 -0.21585552320E+03 -0.12570641594E+03  0.47572324547E+03  0.00000000000E+00 0. -1.
<mgrwt>
<rscale>  0 0.12288175E+04</rscale>
<asrwt>0</asrwt>
<pdfrwt beam="1">  1        1 0.32606471E-01 0.12288175E+04</pdfrwt>
<pdfrwt beam="2">  1       -1 0.27402128E+00 0.12288175E+04</pdfrwt>
<totfact> 0.66538522E+00</totfact>
</mgrwt>
</event>
<event>
 6    1  0.1603085E-006  0.1745282E+04  0.7818608E-02  0.8735951E-01
         -1   -1    0    0    0  501 -0.00000000000E+00  0.00000000000E+00  0.23876277108E+03  0.23876277108E+03  0.00000000000E+00 0.  1.
          1   -1    0    0  501    0  0.00000000000E+00 -0.00000000000E+00 -0.31893689066E+04  0.31893689066E+04  0.00000000000E+00 0. -1.
         23    2    1    2    0    0  0.37374147235E+02  0.77658989134E+03 -0.70632221077E+03  0.10529897827E+04  0.73537275780E+02 0.  0.
         11    1    3    3    0    0  0.20104444420E+02  0.20471008101E+03 -0.14657226518E+03  0.25257441452E+03  0.00000000000E+00 0.  1.
        -11    1    3    3    0    0  0.17269702815E+02  0.57187981033E+03 -0.55974994559E+03  0.80041536822E+03  0.00000000000E+00 0. -1.
         22    1    1    2    0    0 -0.37374147235E+02 -0.77658989134E+03 -0.22442839247E+04  0.23751418949E+04  0.00000000000E+00 0. -1.
<mgrwt>
<rscale>  0 0.17452823E+04</rscale>
<asrwt>0</asrwt>
<pdfrwt beam="1">  1        1 0.49067212E+00 0.17452823E+04</pdfrwt>
<pdfrwt beam="2">  1       -1 0.36732735E-01 0.17452823E+04</pdfrwt>
<totfact> 0.29335257E+00</totfact>
</mgrwt>
</event>
<event>
 6    1  0.1603085E-006  0.2464748E+04  0.7818608E-02  0.8415653E-01
          2   -1    0    0  501    0  0.00000000000E+00  0.00000000000E+00  0.17506752039E+04  0.17506752039E+04  0.00000000000E+00 0. -1.
         -2   -1    0    0    0  501 -0.00000000000E+00 -0.00000000000E+00 -0.86751978905E+03  0.86751978905E+03  0.00000000000E+00 0.  1.
         23    2    1    2    0    0  0.58378694766E+03  0.59675481431E+02 -0.70527368884E+03  0.92483284008E+03  0.11634621851E+03 0.  0.
         11    1    3    3    0    0  0.26560768654E+03 -0.26722812119E+02 -0.28211619957E+03  0.38839554825E+03  0.00000000000E+00 0. -1.
        -11    1    3    3    0    0  0.31817926112E+03  0.86398293550E+02 -0.42315748928E+03  0.53643729183E+03  0.00000000000E+00 0.  1.
         22    1    1    2    0    0 -0.58378694766E+03 -0.59675481431E+02  0.15884291037E+04  0.16933621529E+04  0.00000000000E+00 0. -1.
<mgrwt>
<rscale>  0 0.24647478E+04</rscale>
<asrwt>0</asrwt>
<pdfrwt beam="1">  1        2 0.26933465E+00 0.24647478E+04</pdfrwt>
<pdfrwt beam="2">  1       -2 0.13346458E+00 0.24647478E+04</pdfrwt>
<totfact> 0.33397794E+00</totfact>
</mgrwt>
</event>
<event>
 6    1  0.1603085E-006  0.1582273E+04  0.7818608E-02  0.8831513E-01
          2   -1    0    0  501    0  0.00000000000E+00  0.00000000000E+00  0.17804797990E+04  0.17804797990E+04  0.00000000000E+00 0.  1.
         -2   -1    0    0    0  501 -0.00000000000E+00 -0.00000000000E+00 -0.35153261932E+03  0.35153261932E+03  0.00000000000E+00 0. -1.
         23    2    1    2    0    0  0.38826427506E+03  0.21002047899E+03  0.15974810358E+04  0.16595069586E+04  0.84616409985E+02 0.  0.
         11    1    3    3    0    0  0.21264400459E+03  0.68646426978E+02  0.75374520718E+03  0.78616896528E+03  0.00000000000E+00 0.  1.
        -11    1    3    3    0    0  0.17562027047E+03  0.14137405201E+03  0.84373582864E+03  0.87333799328E+03  0.00000000000E+00 0. -1.
         22    1    1    2    0    0 -0.38826427506E+03 -0.21002047899E+03 -0.16853385610E+03  0.47250545979E+03  0.00000000000E+00 0. -1.
<mgrwt>
<rscale>  0 0.15822727E+04</rscale>
<asrwt>0</asrwt>
<pdfrwt beam="1">  1        2 0.27391997E+00 0.15822727E+04</pdfrwt>
<pdfrwt beam="2">  1       -2 0.54081942E-01 0.15822727E+04</pdfrwt>
<totfact> 0.27349054E+01</totfact>
</mgrwt>
</event>
<event>
 6    1  0.1603085E-006  0.6339769E+04  0.7818608E-02  0.7649645E-01
         -2   -1    0    0    0  501 -0.00000000000E+00  0.00000000000E+00  0.26925987499E+04  0.26925987499E+04  0.00000000000E+00 0.  1.
          2   -1    0    0  501    0  0.00000000000E+00 -0.00000000000E+00 -0.37317727513E+04  0.37317727513E+04  0.00000000000E+00 0. -1.
         23    2    1    2    0    0  0.82464916411E+03  0.22272878031E+04 -0.26460875237E+04  0.35567891972E+04  0.90072241361E+02 0.  0.
         11    1    3    3    0    0  0.61783324798E+03  0.16137565348E+04 -0.18713957433E+04  0.25471651112E+04  0.00000000000E+00 0. -1.
        -11    1    3    3    0    0  0.20681591613E+03  0.61353126828E+03 -0.77469178047E+03  0.10096240860E+04  0.00000000000E+00 0.  1.
         22    1    1    2    0    0 -0.82464916411E+03 -0.22272878031E+04  0.16069135224E+04  0.28675823040E+04  0.00000000000E+00 0.  1.
<mgrwt>
<rscale>  0 0.63397687E+04</rscale>
<asrwt>0</asrwt>
<pdfrwt beam="1">  1        2 0.57411889E+00 0.63397687E+04</pdfrwt>
<pdfrwt beam="2">  1       -2 0.41424596E+00 0.63397687E+04</pdfrwt>
<totfact> 0.21665009E-03</totfact>
</mgrwt>
</event>
<event>
 6    1  0.1603085E-006  0.1601583E+04  0.7818608E-02  0.8819576E-01
          2   -1    0    0  501    0  0.00000000000E+00  0.00000000000E+00  0.37933822157E+03  0.37933822157E+03  0.00000000000E+00 0. -1.
         -2   -1    0    0    0  501 -0.00000000000E+00 -0.00000000000E+00 -0.16904888275E+04  0.16904888275E+04  0.00000000000E+00 0.  1.
         23    2    1    2    0    0  0.39041478508E+03 -0.67710247626E+03 -0.86660660815E+03  0.11706547443E+04  0.92379917755E+02 0.  0.
         11    1    3    3    0    0  0.25934950442E+03 -0.39839502002E+03 -0.46982504911E+03  0.66836841203E+03  0.00000000000E+00 0. -1.
        -11    1    3    3    0    0  0.13106528066E+03 -0.27870745624E+03 -0.39678155904E+03  0.50228633223E+03  0.00000000000E+00 0.  1.
         22    1    1    2    0    0 -0.39041478508E+03  0.67710247626E+03 -0.44454399777E+03  0.89917230480E+03  0.00000000000E+00 0.  1.
<mgrwt>
<rscale>  0 0.16015830E+04</rscale>
<asrwt>0</asrwt>
<pdfrwt beam="1">  1        2 0.58359726E-01 0.16015830E+04</pdfrwt>
<pdfrwt beam="2">  1       -2 0.26007521E+00 0.16015830E+04</pdfrwt>
<totfact> 0.45145763E+00</totfact>
</mgrwt>
</event>
<event>
 6    1  0.1603085E-006  0.3366710E+04  0.7818608E-02  0.8146125E-01
         -2   -1    0    0    0  501 -0.00000000000E+00  0.00000000000E+00  0.14170750240E+04  0.14170750240E+04  0.00000000000E+00 0.  1.
          2   -1    0    0  501    0  0.00000000000E+00 -0.00000000000E+00 -0.19996708514E+04  0.19996708514E+04  0.00000000000E+00 0. -1.
         23    2    1    2    0    0 -0.73919742751E+03  0.10617455248E+04 -0.13826074723E+04  0.18956492222E+04  0.90366780425E+02 0.  0.
         11    1    3    3    0    0 -0.36195307413E+03  0.55688587890E+03 -0.76770869858E+03  0.10151396731E+04  0.00000000000E+00 0.  1.
        -11    1    3    3    0    0 -0.37724435338E+03  0.50485964589E+03 -0.61489877373E+03  0.88050954915E+03  0.00000000000E+00 0. -1.
         22    1    1    2    0    0  0.73919742751E+03 -0.10617455248E+04  0.80001164496E+03  0.15210966532E+04  0.00000000000E+00 0.  1.
<mgrwt>
<rscale>  0 0.33667097E+04</rscale>
<asrwt>0</asrwt>
<pdfrwt beam="1">  1        2 0.30764167E+00 0.33667097E+04</pdfrwt>
<pdfrwt beam="2">  1       -2 0.21801154E+00 0.33667097E+04</pdfrwt>
<totfact> 0.56499466E-01</totfact>
</mgrwt>
</event>
<event>
 6    1  0.1603085E-006  0.4129290E+04  0.7818608E-02  0.7978961E-01
          1   -1    0    0  501    0  0.00000000000E+00  0.00000000000E+00  0.26648270148E+04  0.26648270148E+04  0.00000000000E+00 0. -1.
         -1   -1    0    0    0  501 -0.00000000000E+00 -0.00000000000E+00 -0.15996384209E+04  0.15996384209E+04  0.00000000000E+00 0.  1.
         23    2    1    2    0    0  0.38582405776E+02 -0.88957422660E+03 -0.13897653578E+04  0.16530233415E+04  0.90595315986E+02 0.  0.
         11    1    3    3    0    0  0.67312332490E+02 -0.68624413622E+03 -0.10593624255E+04  0.12640058201E+04  0.00000000000E+00 0. -1.
        -11    1    3    3    0    0 -0.28729926714E+02 -0.20333009037E+03 -0.33040293230E+03  0.38901752147E+03  0.00000000000E+00 0.  1.
         22    1    1    2    0    0 -0.38582405776E+02  0.88957422660E+03  0.24549539516E+04  0.26114420942E+04  0.00000000000E+00 0. -1.
<mgrwt>
<rscale>  0 0.41292903E+04</rscale>
<asrwt>0</asrwt>
<pdfrwt beam="1">  1        1 0.40997339E+00 0.41292903E+04</pdfrwt>
<pdfrwt beam="2">  1       -1 0.24609822E+00 0.41292903E+04</pdfrwt>
<totfact> 0.59495499E-02</totfact>
</mgrwt>
</event>
<event>
 6    1  0.1603085E-006  0.1281379E+04  0.7818608E-02  0.9044464E-01
          1   -1    0    0  501    0  0.00000000000E+00  0.00000000000E+00  0.86733600654E+03  0.86733600654E+03  0.00000000000E+00 0. -1.
         -1   -1    0    0    0  501 -0.00000000000E+00 -0.00000000000E+00 -0.47326871772E+03  0.47326871772E+03  0.00000000000E+00 0.  1.
         23    2    1    2    0    0  0.51199405843E+03  0.11006921423E+03 -0.18370906229E+03  0.56081073883E+03  0.80662986725E+02 0.  0.
         13    1    3    3    0    0  0.30346841807E+02  0.27975273447E+02 -0.14441734019E+02  0.43727684749E+02  0.00000000000E+00 0. -1.
        -13    1    3    3    0    0  0.48164721663E+03  0.82093940783E+02 -0.16926732827E+03  0.51708305408E+03  0.00000000000E+00 0.  1.
         22    1    1    2    0    0 -0.51199405843E+03 -0.11006921423E+03  0.57777635111E+03  0.77979398542E+03  0.00000000000E+00 0. -1.
<mgrwt>
<rscale>  0 0.12813789E+04</rscale>
<asrwt>0</asrwt>
<pdfrwt beam="1">  1        1 0.13343631E+00 0.12813789E+04</pdfrwt>
<pdfrwt beam="2">  1       -1 0.72810572E-01 0.12813789E+04</pdfrwt>
<totfact> 0.36251470E+01</totfact>
</mgrwt>
</event>
<event>
 6    1  0.1603085E-006  0.3184804E+04  0.7818608E-02  0.8192842E-01
          1   -1    0    0  501    0  0.00000000000E+00  0.00000000000E+00  0.22343672229E+04  0.22343672229E+04  0.00000000000E+00 0. -1.
         -1   -1    0    0    0  501 -0.00000000000E+00 -0.00000000000E+00 -0.11348823096E+04  0.11348823096E+04  0.00000000000E+00 0.  1.
         23    2    1    2    0    0 -0.13878799438E+04 -0.66597282365E+03  0.97561278515E+03  0.18248807797E+04  0.92946291689E+02 0.  0.
         11    1    3    3    0    0 -0.95914317354E+03 -0.45459135448E+03  0.72255644762E+03  0.12840158671E+04  0.00000000000E+00 0. -1.
        -11    1    3    3    0    0 -0.42873677029E+03 -0.21138146917E+03  0.25305633752E+03  0.54086491259E+03  0.00000000000E+00 0.  1.
         22    1    1    2    0    0  0.13878799438E+04  0.66597282365E+03  0.12387212815E+03  0.15443687527E+04  0.00000000000E+00 0. -1.
<mgrwt>
<rscale>  0 0.31848038E+04</rscale>
<asrwt>0</asrwt>
<pdfrwt beam="1">  1        1 0.34374880E+00 0.31848038E+04</pdfrwt>
<pdfrwt beam="2">  1       -1 0.17459728E+00 0.31848038E+04</pdfrwt>
<totfact> 0.39370288E-01</totfact>
</mgrwt>
</event>
<event>
 6    1  0.1603085E-006  0.1295514E+04  0.7818608E-02  0.9033130E-01
          2   -1    0    0  501    0  0.00000000000E+00  0.00000000000E+00  0.24830615220E+04  0.24830615220E+04  0.00000000000E+00 0. -1.
         -2   -1    0    0    0  501 -0.00000000000E+00 -0.00000000000E+00 -0.16898067762E+03  0.16898067762E+03  0.00000000000E+00 0.  1.
         23    2    1    2    0    0  0.50699704509E+03 -0.30192327970E+03  0.63178700661E+03  0.86925891858E+03  0.90843685828E+02 0.  0.
         13    1    3    3    0    0  0.37162226924E+03 -0.26465602557E+03  0.46940451300E+03  0.65458881727E+03  0.00000000000E+00 0.  1.
        -13    1    3    3    0    0  0.13537477586E+03 -0.37267254129E+02  0.16238249360E+03  0.21467010131E+03  0.00000000000E+00 0. -1.
         22    1    1    2    0    0 -0.50699704509E+03  0.30192327970E+03  0.16822938377E+04  0.17827832810E+04  0.00000000000E+00 0. -1.
<mgrwt>
<rscale>  0 0.12955144E+04</rscale>
<asrwt>0</asrwt>
<pdfrwt beam="1">  1        2 0.38200944E+00 0.12955144E+04</pdfrwt>
<pdfrwt beam="2">  1       -2 0.25997029E-01 0.12955144E+04</pdfrwt>
<totfact> 0.46860024E+01</totfact>
</mgrwt>
</event>
<event>
 6    1  0.1603085E-006  0.1753270E+04  0.7818608E-02  0.8731552E-01
          2   -1    0    0  501    0  0.00000000000E+00  0.00000000000E+00  0.71295237127E+03  0.71295237127E+03  0.00000000000E+00 0. -1.
         -2   -1    0    0    0  501 -0.00000000000E+00 -0.00000000000E+00 -0.10778965666E+04  0.10778965666E+04  0.00000000000E+00 0.  1.
         23    2    1    2    0    0  0.38237676086E+03 -0.75372914772E+03 -0.41150047436E+03  0.94439332624E+03  0.90700048879E+02 0.  0.
         11    1    3    3    0    0  0.19110078233E+03 -0.43460932629E+03 -0.18985078542E+03  0.51131995485E+03  0.00000000000E+00 0. -1.
        -11    1    3    3    0    0  0.19127597852E+03 -0.31911982143E+03 -0.22164968894E+03  0.43307337138E+03  0.00000000000E+00 0.  1.
         22    1    1    2    0    0 -0.38237676086E+03  0.75372914772E+03  0.46556279022E+02  0.84645561165E+03  0.00000000000E+00 0.  1.
<mgrwt>
<rscale>  0 0.17532700E+04</rscale>
<asrwt>0</asrwt>
<pdfrwt beam="1">  1        2 0.10968498E+00 0.17532700E+04</pdfrwt>
<pdfrwt beam="2">  1       -2 0.16583024E+00 0.17532700E+04</pdfrwt>
<totfact> 0.86550041E+00</totfact>
</mgrwt>
</event>
<event>
 6    1  0.1603085E-006  0.9328028E+03  0.7818608E-02  0.9385480E-01
          1   -1    0    0  501    0  0.00000000000E+00  0.00000000000E+00  0.68319154857E+03  0.68319154857E+03  0.00000000000E+00 0. -1.
         -1   -1    0    0    0  501 -0.00000000000E+00 -0.00000000000E+00 -0.31840300881E+03  0.31840300881E+03  0.00000000000E+00 0.  1.
         23    2    1    2    0    0 -0.16130512864E+03  0.42979450388E+03  0.13355697057E+03  0.48758025924E+03  0.95678548918E+02 0.  0.
         11    1    3    3    0    0 -0.76477954641E+02  0.24163019370E+03  0.12086595138E+03  0.28078925595E+03  0.00000000000E+00 0. -1.
        -11    1    3    3    0    0 -0.84827173999E+02  0.18816431018E+03  0.12691019188E+02  0.20679100329E+03  0.00000000000E+00 0.  1.
         22    1    1    2    0    0  0.16130512864E+03 -0.42979450388E+03  0.23123156919E+03  0.51401429813E+03  0.00000000000E+00 0. -1.
<mgrwt>
<rscale>  0 0.93280275E+03</rscale>
<asrwt>0</asrwt>
<pdfrwt beam="1">  1        1 0.10510639E+00 0.93280275E+03</pdfrwt>
<pdfrwt beam="2">  1       -1 0.48985078E-01 0.93280275E+03</pdfrwt>
<totfact> 0.11866871E+02</totfact>
</mgrwt>
</event>
<event>
 6    1  0.1603085E-006  0.2607347E+04  0.7818608E-02  0.8365710E-01
          1   -1    0    0  501    0  0.00000000000E+00  0.00000000000E+00  0.28415689035E+04  0.28415689035E+04  0.00000000000E+00 0. -1.
         -1   -1    0    0    0  501 -0.00000000000E+00 -0.00000000000E+00 -0.59810788996E+03  0.59810788996E+03  0.00000000000E+00 0.  1.
         23    2    1    2    0    0 -0.34004604652E+03  0.33033254986E+03  0.27228603636E+04  0.27654552837E+04  0.94991891902E+02 0.  0.
         11    1    3    3    0    0 -0.20422700081E+03  0.25859009625E+03  0.18047300688E+04  0.18345648332E+04  0.00000000000E+00 0.  1.
        -11    1    3    3    0    0 -0.13581904571E+03  0.71742453613E+02  0.91813029476E+03  0.93089045058E+03  0.00000000000E+00 0. -1.
         22    1    1    2    0    0  0.34004604652E+03 -0.33033254986E+03 -0.47939935008E+03  0.67422150968E+03  0.00000000000E+00 0.  1.
<mgrwt>
<rscale>  0 0.26073471E+04</rscale>
<asrwt>0</asrwt>
<pdfrwt beam="1">  1        1 0.43716444E+00 0.26073471E+04</pdfrwt>
<pdfrwt beam="2">  1       -1 0.92016600E-01 0.26073471E+04</pdfrwt>
<totfact> 0.78746926E-01</totfact>
</mgrwt>
</event>
<event>
 6    1  0.1603085E-006  0.3578456E+04  0.7818608E-02  0.8095445E-01
          1   -1    0    0  501    0  0.00000000000E+00  0.00000000000E+00  0.30314910812E+04  0.30314910812E+04  0.00000000000E+00 0. -1.
         -1   -1    0    0    0  501 -0.00000000000E+00 -0.00000000000E+00 -0.10560268890E+04  0.10560268890E+04  0.00000000000E+00 0.  1.
         23    2    1    2    0    0 -0.57846597375E+03  0.40776786250E+03 -0.88726800680E+03  0.11385972938E+04  0.90894273658E+02 0.  0.
         11    1    3    3    0    0 -0.25663452508E+02  0.97915102697E+01 -0.66806760609E+02  0.72233162267E+02  0.00000000000E+00 0.  1.
        -11    1    3    3    0    0 -0.55280252124E+03  0.39797635223E+03 -0.82046124619E+03  0.10663641315E+04  0.00000000000E+00 0. -1.
         22    1    1    2    0    0  0.57846597375E+03 -0.40776786250E+03  0.28627321990E+04  0.29489206764E+04  0.00000000000E+00 0. -1.
<mgrwt>
<rscale>  0 0.35784556E+04</rscale>
<asrwt>0</asrwt>
<pdfrwt beam="1">  1        1 0.46638324E+00 0.35784556E+04</pdfrwt>
<pdfrwt beam="2">  1       -1 0.16246568E+00 0.35784556E+04</pdfrwt>
<totfact> 0.12852929E-01</totfact>
</mgrwt>
</event>
<event>
 6    1  0.1603085E-006  0.2384760E+04  0.7818608E-02  0.8445231E-01
          2   -1    0    0  501    0  0.00000000000E+00  0.00000000000E+00  0.98196387399E+03  0.98196387399E+03  0.00000000000E+00 0. -1.
         -2   -1    0    0    0  501 -0.00000000000E+00 -0.00000000000E+00 -0.14478846582E+04  0.14478846582E+04  0.00000000000E+00 0.  1.
         23    2    1    2    0    0  0.27913276049E+03 -0.11234042452E+04 -0.51677333285E+03  0.12711690348E+04  0.94147976060E+02 0.  0.
         11    1    3    3    0    0  0.11899756674E+03 -0.64671802994E+03 -0.26736226215E+03  0.70985013232E+03  0.00000000000E+00 0. -1.
        -11    1    3    3    0    0  0.16013519375E+03 -0.47668621522E+03 -0.24941107069E+03  0.56131890245E+03  0.00000000000E+00 0.  1.
         22    1    1    2    0    0 -0.27913276049E+03  0.11234042452E+04  0.50852548646E+02  0.11586794974E+04  0.00000000000E+00 0. -1.
<mgrwt>
<rscale>  0 0.23847603E+04</rscale>
<asrwt>0</asrwt>
<pdfrwt beam="1">  1        2 0.15107137E+00 0.23847603E+04</pdfrwt>
<pdfrwt beam="2">  1       -2 0.22275148E+00 0.23847603E+04</pdfrwt>
<totfact> 0.22114934E+00</totfact>
</mgrwt>
</event>
<event>
 6    1  0.1603085E-006  0.1730103E+04  0.7818608E-02  0.8744379E-01
         -2   -1    0    0    0  501 -0.00000000000E+00  0.00000000000E+00  0.25935368443E+03  0.25935368443E+03  0.00000000000E+00 0. -1.
          2   -1    0    0  501    0  0.00000000000E+00 -0.00000000000E+00 -0.28853027656E+04  0.28853027656E+04  0.00000000000E+00 0.  1.
         23    2    1    2    0    0  0.80312456021E+03  0.29349484298E+03 -0.15231796454E+04  0.17492179130E+04  0.92405589758E+02 0.  0.
         13    1    3    3    0    0  0.33198514042E+03  0.11964194308E+03 -0.53765329570E+03  0.64311693679E+03  0.00000000000E+00 0.  1.
        -13    1    3    3    0    0  0.47113941978E+03  0.17385289990E+03 -0.98552634971E+03  0.11061009762E+04  0.00000000000E+00 0. -1.
         22    1    1    2    0    0 -0.80312456021E+03 -0.29349484298E+03 -0.11027694357E+04  0.13954385370E+04  0.00000000000E+00 0. -1.
<mgrwt>
<rscale>  0 0.17301028E+04</rscale>
<asrwt>0</asrwt>
<pdfrwt beam="1">  1        2 0.44389273E+00 0.17301028E+04</pdfrwt>
<pdfrwt beam="2">  1       -2 0.39900567E-01 0.17301028E+04</pdfrwt>
<totfact> 0.11616175E+01</totfact>
</mgrwt>
</event>
<event>
 6    1  0.1603085E-006  0.2552204E+04  0.7818608E-02  0.8384620E-01
         -2   -1    0    0    0  501 -0.00000000000E+00  0.00000000000E+00  0.92141866802E+03  0.92141866802E+03  0.00000000000E+00 0.  1.
          2   -1    0    0  501    0  0.00000000000E+00 -0.00000000000E+00 -0.17673136905E+04  0.17673136905E+04  0.00000000000E+00 0. -1.
         23    2    1    2    0    0  0.11950994623E+04 -0.84559137875E+02 -0.88220250832E+03  0.14900951297E+04  0.81787879791E+02 0.  0.
         13    1    3    3    0    0  0.60043556947E+03 -0.22108041620E+02 -0.48619917276E+03  0.77291737863E+03  0.00000000000E+00 0. -1.
        -13    1    3    3    0    0  0.59466389287E+03 -0.62451096255E+02 -0.39600333555E+03  0.71717775110E+03  0.00000000000E+00 0.  1.
         22    1    1    2    0    0 -0.11950994623E+04  0.84559137875E+02  0.36307485849E+02  0.11986372288E+04  0.00000000000E+00 0.  1.
<mgrwt>
<rscale>  0 0.25522036E+04</rscale>
<asrwt>0</asrwt>
<pdfrwt beam="1">  1        2 0.27189441E+00 0.25522036E+04</pdfrwt>
<pdfrwt beam="2">  1       -2 0.14175672E+00 0.25522036E+04</pdfrwt>
<totfact> 0.27782964E+00</totfact>
</mgrwt>
</event>
<event>
 6    1  0.1603085E-006  0.9967827E+03  0.7818608E-02  0.9312081E-01
          2   -1    0    0  501    0  0.00000000000E+00  0.00000000000E+00  0.71134834860E+03  0.71134834860E+03  0.00000000000E+00 0. -1.
         -2   -1    0    0    0  501 -0.00000000000E+00 -0.00000000000E+00 -0.34918744963E+03  0.34918744963E+03  0.00000000000E+00 0.  1.
         23    2    1    2    0    0 -0.27157525082E+03 -0.12066064931E+03  0.60269657004E+03  0.67821457439E+03  0.91759164289E+02 0.  0.
         13    1    3    3    0    0 -0.85216884395E+02 -0.42933400275E+02  0.10925342959E+03  0.14505690650E+03  0.00000000000E+00 0.  1.
        -13    1    3    3    0    0 -0.18635836642E+03 -0.77727249035E+02  0.49344314045E+03  0.53315766789E+03  0.00000000000E+00 0. -1.
         22    1    1    2    0    0  0.27157525082E+03  0.12066064931E+03 -0.24053567107E+03  0.38232122385E+03  0.00000000000E+00 0.  1.
<mgrwt>
<rscale>  0 0.99678266E+03</rscale>
<asrwt>0</asrwt>
<pdfrwt beam="1">  1        2 0.10943821E+00 0.99678266E+03</pdfrwt>
<pdfrwt beam="2">  1       -2 0.53721146E-01 0.99678266E+03</pdfrwt>
<totfact> 0.13090153E+02</totfact>
</mgrwt>
</event>
<event>
 6    1  0.1603085E-006  0.1156598E+04  0.7818608E-02  0.9151718E-01
         -1   -1    0    0    0  501 -0.00000000000E+00  0.00000000000E+00  0.28929871854E+03  0.28929871854E+03  0.00000000000E+00 0. -1.
          1   -1    0    0  501    0  0.00000000000E+00 -0.00000000000E+00 -0.11560017209E+04  0.11560017209E+04  0.00000000000E+00 0.  1.
         23    2    1    2    0    0  0.40425855563E+03  0.54181308206E+02  0.70002272551E+02  0.42364620927E+03  0.90637732247E+02 0.  0.
         11    1    3    3    0    0  0.27396348263E+03  0.77106722781E+02  0.34659804186E+02  0.28671019958E+03  0.00000000000E+00 0.  1.
        -11    1    3    3    0    0  0.13029507300E+03 -0.22925414575E+02  0.35342468365E+02  0.13693600970E+03  0.00000000000E+00 0. -1.
         22    1    1    2    0    0 -0.40425855563E+03 -0.54181308206E+02 -0.93670527491E+03  0.10216542302E+04  0.00000000000E+00 0.  1.
<mgrwt>
<rscale>  0 0.11565981E+04</rscale>
<asrwt>0</asrwt>
<pdfrwt beam="1">  1        1 0.17784642E+00 0.11565981E+04</pdfrwt>
<pdfrwt beam="2">  1       -1 0.44507496E-01 0.11565981E+04</pdfrwt>
<totfact> 0.57111972E+01</totfact>
</mgrwt>
</event>
<event>
 6    1  0.1603085E-006  0.9586701E+03  0.7818608E-02  0.9355074E-01
         -1   -1    0    0    0  501 -0.00000000000E+00  0.00000000000E+00  0.16364441735E+03  0.16364441735E+03  0.00000000000E+00 0.  1.
          1   -1    0    0  501    0  0.00000000000E+00 -0.00000000000E+00 -0.14040325446E+04  0.14040325446E+04  0.00000000000E+00 0. -1.
         23    2    1    2    0    0  0.44507198527E+03  0.51159120511E+02 -0.88366182267E+03  0.99499905591E+03  0.91970520964E+02 0.  0.
         11    1    3    3    0    0  0.13027050039E+03  0.57088555311E+02 -0.29061770211E+03  0.32355549014E+03  0.00000000000E+00 0. -1.
        -11    1    3    3    0    0  0.31480148488E+03 -0.59294348007E+01 -0.59304412056E+03  0.67144356577E+03  0.00000000000E+00 0.  1.
         22    1    1    2    0    0 -0.44507198527E+03 -0.51159120511E+02 -0.35672630458E+03  0.57267790604E+03  0.00000000000E+00 0.  1.
<mgrwt>
<rscale>  0 0.95867009E+03</rscale>
<asrwt>0</asrwt>
<pdfrwt beam="1">  1        1 0.21600501E+00 0.95867009E+03</pdfrwt>
<pdfrwt beam="2">  1       -1 0.25176063E-01 0.95867009E+03</pdfrwt>
<totfact> 0.10611221E+02</totfact>
</mgrwt>
</event>
<event>
 6    1  0.1603085E-006  0.1940802E+04  0.7818608E-02  0.8634809E-01
          1   -1    0    0  501    0  0.00000000000E+00  0.00000000000E+00  0.17063513539E+04  0.17063513539E+04  0.00000000000E+00 0. -1.
         -1   -1    0    0    0  501 -0.00000000000E+00 -0.00000000000E+00 -0.55186657579E+03  0.55186657579E+03  0.00000000000E+00 0.  1.
         23    2    1    2    0    0  0.23273023698E+03  0.35053412220E+03  0.15931488205E+04  0.16503826920E+04  0.92748755609E+02 0.  0.
         11    1    3    3    0    0  0.17087817678E+03  0.31439688368E+03  0.12744647163E+04  0.13237466014E+04  0.00000000000E+00 0.  1.
        -11    1    3    3    0    0  0.61852060202E+02  0.36137238526E+02  0.31868410424E+03  0.32663609056E+03  0.00000000000E+00 0. -1.
         22    1    1    2    0    0 -0.23273023698E+03 -0.35053412220E+03 -0.43866404243E+03  0.60783523767E+03  0.00000000000E+00 0.  1.
<mgrwt>
<rscale>  0 0.19408022E+04</rscale>
<asrwt>0</asrwt>
<pdfrwt beam="1">  1        1 0.26251559E+00 0.19408022E+04</pdfrwt>
<pdfrwt beam="2">  1       -1 0.84902551E-01 0.19408022E+04</pdfrwt>
<totfact> 0.60377653E+00</totfact>
</mgrwt>
</event>
<event>
 6    1  0.1603085E-006  0.5762362E+03  0.7818608E-02  0.9955973E-01
         -4   -1    0    0    0  501 -0.00000000000E+00  0.00000000000E+00  0.19604157655E+03  0.19604157655E+03  0.00000000000E+00 0.  1.
          4   -1    0    0  501    0  0.00000000000E+00 -0.00000000000E+00 -0.42344104440E+03  0.42344104440E+03  0.00000000000E+00 0. -1.
         23    2    1    2    0    0  0.22893219440E+03  0.79344912538E+02 -0.26867074770E+03  0.37370043422E+03  0.93608114432E+02 0.  0.
         13    1    3    3    0    0  0.13081303049E+03  0.13950615981E+02 -0.89143731420E+02  0.15891278578E+03  0.00000000000E+00 0. -1.
        -13    1    3    3    0    0  0.98119163909E+02  0.65394296558E+02 -0.17952701628E+03  0.21478764844E+03  0.00000000000E+00 0.  1.
         22    1    1    2    0    0 -0.22893219440E+03 -0.79344912538E+02  0.41271279852E+02  0.24578218674E+03  0.00000000000E+00 0.  1.
<mgrwt>
<rscale>  0 0.57623624E+03</rscale>
<asrwt>0</asrwt>
<pdfrwt beam="1">  1        4 0.65144775E-01 0.57623624E+03</pdfrwt>
<pdfrwt beam="2">  1       -4 0.30160243E-01 0.57623624E+03</pdfrwt>
<totfact> 0.45923378E+01</totfact>
</mgrwt>
</event>
<event>
 6    1  0.1603085E-006  0.2725364E+04  0.7818608E-02  0.8326822E-01
         -2   -1    0    0    0  501 -0.00000000000E+00  0.00000000000E+00  0.18206172911E+04  0.18206172911E+04  0.00000000000E+00 0.  1.
          2   -1    0    0  501    0  0.00000000000E+00 -0.00000000000E+00 -0.10199301160E+04  0.10199301160E+04  0.00000000000E+00 0. -1.
         23    2    1    2    0    0 -0.33654159696E+03 -0.19716947513E+03 -0.95853312095E+03  0.10386062043E+04  0.88210289302E+02 0.  0.
         11    1    3    3    0    0 -0.17483763642E+03 -0.57688673086E+02 -0.49890174165E+03  0.53178861396E+03  0.00000000000E+00 0.  1.
        -11    1    3    3    0    0 -0.16170396053E+03 -0.13948080205E+03 -0.45963137930E+03  0.50681759029E+03  0.00000000000E+00 0. -1.
         22    1    1    2    0    0  0.33654159696E+03  0.19716947513E+03  0.17592202961E+04  0.18019412029E+04  0.00000000000E+00 0.  1.
<mgrwt>
<rscale>  0 0.27253641E+04</rscale>
<asrwt>0</asrwt>
<pdfrwt beam="1">  1        2 0.15691233E+00 0.27253641E+04</pdfrwt>
<pdfrwt beam="2">  1       -2 0.28009497E+00 0.27253641E+04</pdfrwt>
<totfact> 0.90053208E-01</totfact>
</mgrwt>
</event>
<event>
 6    1  0.1603085E-006  0.1454817E+04  0.7818608E-02  0.8915068E-01
          2   -1    0    0  501    0  0.00000000000E+00  0.00000000000E+00  0.12852805960E+04  0.12852805960E+04  0.00000000000E+00 0. -1.
         -2   -1    0    0    0  501 -0.00000000000E+00 -0.00000000000E+00 -0.41167880862E+03  0.41167880862E+03  0.00000000000E+00 0.  1.
         23    2    1    2    0    0  0.14160572467E+03  0.44789297421E+03 -0.20458495918E+03  0.52088672061E+03  0.93849201315E+02 0.  0.
         13    1    3    3    0    0  0.40401522244E+02  0.27764518596E+03 -0.10939203375E+03  0.30114074672E+03  0.00000000000E+00 0.  1.
        -13    1    3    3    0    0  0.10120420243E+03  0.17024778825E+03 -0.95192925429E+02  0.21974597390E+03  0.00000000000E+00 0. -1.
         22    1    1    2    0    0 -0.14160572467E+03 -0.44789297421E+03  0.10781867466E+04  0.11760726840E+04  0.00000000000E+00 0. -1.
<mgrwt>
<rscale>  0 0.14548165E+04</rscale>
<asrwt>0</asrwt>
<pdfrwt beam="1">  1        2 0.19773547E+00 0.14548165E+04</pdfrwt>
<pdfrwt beam="2">  1       -2 0.63335202E-01 0.14548165E+04</pdfrwt>
<totfact> 0.37731240E+01</totfact>
</mgrwt>
</event>
<event>
 6    1  0.1603085E-006  0.1386558E+04  0.7818608E-02  0.8963607E-01
         -1   -1    0    0    0  501 -0.00000000000E+00  0.00000000000E+00  0.47793792318E+03  0.47793792318E+03  0.00000000000E+00 0.  1.
          1   -1    0    0  501    0  0.00000000000E+00 -0.00000000000E+00 -0.10056445461E+04  0.10056445461E+04  0.00000000000E+00 0. -1.
         23    2    1    2    0    0  0.68967599750E+03 -0.53546616909E-01 -0.23689175516E+03  0.73509982306E+03  0.92741909662E+02 0.  0.
         13    1    3    3    0    0  0.14223765549E+03 -0.44012003147E+01 -0.10539739542E+02  0.14269550558E+03  0.00000000000E+00 0. -1.
        -13    1    3    3    0    0  0.54743834201E+03  0.43476536977E+01 -0.22635201562E+03  0.59240431748E+03  0.00000000000E+00 0.  1.
         22    1    1    2    0    0 -0.68967599750E+03  0.53546616909E-01 -0.29081486779E+03  0.74848264624E+03  0.00000000000E+00 0. -1.
<mgrwt>
<rscale>  0 0.13865578E+04</rscale>
<asrwt>0</asrwt>
<pdfrwt beam="1">  1        1 0.15471454E+00 0.13865578E+04</pdfrwt>
<pdfrwt beam="2">  1       -1 0.73528912E-01 0.13865578E+04</pdfrwt>
<totfact> 0.27248629E+01</totfact>
</mgrwt>
</event>
<event>
 6    1  0.1603085E-006  0.1104758E+04  0.7818608E-02  0.9200567E-01
         -1   -1    0    0    0  501 -0.00000000000E+00  0.00000000000E+00  0.33932963977E+03  0.33932963977E+03  0.00000000000E+00 0.  1.
          1   -1    0    0  501    0  0.00000000000E+00 -0.00000000000E+00 -0.89919150162E+03  0.89919150162E+03  0.00000000000E+00 0. -1.
         23    2    1    2    0    0 -0.38346877264E+03 -0.26216979842E+03  0.45598381503E+02  0.47539375420E+03  0.90214778937E+02 0.  0.
         11    1    3    3    0    0 -0.21418042052E+03 -0.12119624063E+03 -0.16093813917E+02  0.24661871811E+03  0.00000000000E+00 0.  1.
        -11    1    3    3    0    0 -0.16928835213E+03 -0.14097355779E+03  0.61692195420E+02  0.22877503609E+03  0.00000000000E+00 0. -1.
         22    1    1    2    0    0  0.38346877264E+03  0.26216979842E+03 -0.60546024335E+03  0.76312738719E+03  0.00000000000E+00 0. -1.
<mgrwt>
<rscale>  0 0.11047576E+04</rscale>
<asrwt>0</asrwt>
<pdfrwt beam="1">  1        1 0.13833715E+00 0.11047576E+04</pdfrwt>
<pdfrwt beam="2">  1       -1 0.52204560E-01 0.11047576E+04</pdfrwt>
<totfact> 0.67075894E+01</totfact>
</mgrwt>
</event>
<event>
 6    1  0.1603085E-006  0.2037509E+04  0.7818608E-02  0.8589282E-01
          1   -1    0    0  501    0  0.00000000000E+00  0.00000000000E+00  0.18275947814E+04  0.18275947814E+04  0.00000000000E+00 0. -1.
         -1   -1    0    0    0  501 -0.00000000000E+00 -0.00000000000E+00 -0.56788343938E+03  0.56788343938E+03  0.00000000000E+00 0.  1.
         23    2    1    2    0    0  0.87544392462E+03 -0.27825501448E+03  0.11441639329E+04  0.14696385360E+04  0.83056624391E+02 0.  0.
         13    1    3    3    0    0  0.47715654484E+03 -0.16422933663E+03  0.56488103964E+03  0.75745642266E+03  0.00000000000E+00 0. -1.
        -13    1    3    3    0    0  0.39828737978E+03 -0.11402567785E+03  0.57928289328E+03  0.71218211333E+03  0.00000000000E+00 0.  1.
         22    1    1    2    0    0 -0.87544392462E+03  0.27825501448E+03  0.11554740915E+03  0.92583968483E+03  0.00000000000E+00 0.  1.
<mgrwt>
<rscale>  0 0.20375091E+04</rscale>
<asrwt>0</asrwt>
<pdfrwt beam="1">  1        1 0.28116842E+00 0.20375091E+04</pdfrwt>
<pdfrwt beam="2">  1       -1 0.87366684E-01 0.20375091E+04</pdfrwt>
<totfact> 0.46517352E+00</totfact>
</mgrwt>
</event>
<event>
 6    1  0.1603085E-006  0.5338965E+04  0.7818608E-02  0.7778245E-01
         -1   -1    0    0    0  501 -0.00000000000E+00  0.00000000000E+00  0.16959850983E+04  0.16959850983E+04  0.00000000000E+00 0.  1.
          1   -1    0    0  501    0  0.00000000000E+00 -0.00000000000E+00 -0.42017688221E+04  0.42017688221E+04  0.00000000000E+00 0. -1.
         23    2    1    2    0    0 -0.25924788378E+03  0.26282480753E+04 -0.16773735761E+04  0.31298737236E+04  0.87349880073E+02 0.  0.
         11    1    3    3    0    0 -0.20763502252E+03  0.23364893116E+04 -0.14705754433E+04  0.27685531854E+04  0.00000000000E+00 0.  1.
        -11    1    3    3    0    0 -0.51612861260E+02  0.29175876368E+03 -0.20679813273E+03  0.36132053821E+03  0.00000000000E+00 0. -1.
         22    1    1    2    0    0  0.25924788378E+03 -0.26282480753E+04 -0.82841014777E+03  0.27678801967E+04  0.00000000000E+00 0. -1.
<mgrwt>
<rscale>  0 0.53389652E+04</rscale>
<asrwt>0</asrwt>
<pdfrwt beam="1">  1        1 0.64642597E+00 0.53389652E+04</pdfrwt>
<pdfrwt beam="2">  1       -1 0.26092079E+00 0.53389652E+04</pdfrwt>
<totfact> 0.26080511E-03</totfact>
</mgrwt>
</event>
<event>
 6    1  0.1880612E-006  0.2275362E+04  0.7818608E-02  0.8487699E-01
         -2   -1    0    0    0  501 -0.00000000000E+00  0.00000000000E+00  0.17170298128E+04  0.17170298128E+04  0.00000000000E+00 0.  1.
          2   -1    0    0  501    0  0.00000000000E+00 -0.00000000000E+00 -0.75381198413E+03  0.75381198413E+03  0.00000000000E+00 0. -1.
         23    2    1    2    0    0 -0.22817691755E+03 -0.61747491924E+02  0.16887964413E+04  0.17077285801E+04  0.91793381622E+02 0.  0.
         11    1    3    3    0    0 -0.46087789594E+02 -0.25782400438E+01  0.63535468881E+03  0.63702928682E+03  0.00000000000E+00 0.  1.
        -11    1    3    3    0    0 -0.18208912795E+03 -0.59169251880E+02  0.10534417525E+04  0.10706992933E+04  0.00000000000E+00 0. -1.
         22    1    1    2    0    0  0.22817691755E+03  0.61747491924E+02 -0.72557861264E+03  0.76311321675E+03  0.00000000000E+00 0. -1.
<mgrwt>
<rscale>  0 0.22753616E+04</rscale>
<asrwt>0</asrwt>
<pdfrwt beam="1">  1        2 0.11597108E+00 0.22753616E+04</pdfrwt>
<pdfrwt beam="2">  1       -2 0.26415843E+00 0.22753616E+04</pdfrwt>
<totfact> 0.17806722E+00</totfact>
</mgrwt>
</event>
<event>
 6    1  0.1603085E-006  0.2844371E+04  0.7818608E-02  0.8289624E-01
          1   -1    0    0  501    0  0.00000000000E+00  0.00000000000E+00  0.16284700384E+04  0.16284700384E+04  0.00000000000E+00 0. -1.
         -1   -1    0    0    0  501 -0.00000000000E+00 -0.00000000000E+00 -0.12420319533E+04  0.12420319533E+04  0.00000000000E+00 0.  1.
         23    2    1    2    0    0 -0.94396217037E+03 -0.91663842549E+03 -0.34748066641E+03  0.13638741957E+04  0.90107857150E+02 0.  0.
         13    1    3    3    0    0 -0.23025839599E+03 -0.17187407489E+03 -0.77724320275E+02  0.29765869129E+03  0.00000000000E+00 0. -1.
        -13    1    3    3    0    0 -0.71370377438E+03 -0.74476435061E+03 -0.26975634613E+03  0.10662155044E+04  0.00000000000E+00 0.  1.
         22    1    1    2    0    0  0.94396217037E+03  0.91663842549E+03  0.73391875152E+03  0.15066277961E+04  0.00000000000E+00 0. -1.
<mgrwt>
<rscale>  0 0.28443712E+04</rscale>
<asrwt>0</asrwt>
<pdfrwt beam="1">  1        1 0.25053385E+00 0.28443712E+04</pdfrwt>
<pdfrwt beam="2">  1       -1 0.19108184E+00 0.28443712E+04</pdfrwt>
<totfact> 0.79890580E-01</totfact>
</mgrwt>
</event>
<event>
 6    1  0.1603085E-006  0.6885230E+03  0.7818608E-02  0.9737063E-01
         -1   -1    0    0    0  501 -0.00000000000E+00  0.00000000000E+00  0.14530602128E+03  0.14530602128E+03  0.00000000000E+00 0.  1.
          1   -1    0    0  501    0  0.00000000000E+00 -0.00000000000E+00 -0.81563018230E+03  0.81563018230E+03  0.00000000000E+00 0. -1.
         23    2    1    2    0    0  0.32756134633E+03  0.56551883992E+01 -0.45687290752E+03  0.56992488101E+03  0.93558001245E+02 0.  0.
         11    1    3    3    0    0  0.26662832117E+03  0.34602180716E+02 -0.39848812525E+03  0.48070860043E+03  0.00000000000E+00 0.  1.
        -11    1    3    3    0    0  0.60933025158E+02 -0.28946992317E+02 -0.58384782274E+02  0.89216280579E+02  0.00000000000E+00 0. -1.
         22    1    1    2    0    0 -0.32756134633E+03 -0.56551883992E+01 -0.21345125350E+03  0.39101132258E+03  0.00000000000E+00 0.  1.
<mgrwt>
<rscale>  0 0.68852299E+03</rscale>
<asrwt>0</asrwt>
<pdfrwt beam="1">  1        1 0.12548157E+00 0.68852299E+03</pdfrwt>
<pdfrwt beam="2">  1       -1 0.22354772E-01 0.68852299E+03</pdfrwt>
<totfact> 0.36737648E+02</totfact>
</mgrwt>
</event>
<event>
 6    1  0.1603085E-006  0.1475889E+04  0.7818608E-02  0.8900647E-01
         -2   -1    0    0    0  501 -0.00000000000E+00  0.00000000000E+00  0.33265025206E+03  0.33265025206E+03  0.00000000000E+00 0.  1.
          2   -1    0    0  501    0  0.00000000000E+00 -0.00000000000E+00 -0.16370403047E+04  0.16370403047E+04  0.00000000000E+00 0. -1.
         23    2    1    2    0    0  0.71242173103E+03  0.15084564719E+03 -0.50501944009E+03  0.88835226171E+03  0.61854457402E+02 0.  0.
         11    1    3    3    0    0  0.57643673573E+03  0.13892993677E+03 -0.43129702680E+03  0.73321072207E+03  0.00000000000E+00 0.  1.
        -11    1    3    3    0    0  0.13598499530E+03  0.11915710419E+02 -0.73722413285E+02  0.15514153964E+03  0.00000000000E+00 0. -1.
         22    1    1    2    0    0 -0.71242173103E+03 -0.15084564719E+03 -0.79937061252E+03  0.10813382950E+04  0.00000000000E+00 0. -1.
<mgrwt>
<rscale>  0 0.14758887E+04</rscale>
<asrwt>0</asrwt>
<pdfrwt beam="1">  1        2 0.25185236E+00 0.14758887E+04</pdfrwt>
<pdfrwt beam="2">  1       -2 0.51176961E-01 0.14758887E+04</pdfrwt>
<totfact> 0.37127641E+01</totfact>
</mgrwt>
</event>
<event>
 6    1  0.1603085E-006  0.3181322E+04  0.7818608E-02  0.8193767E-01
         -2   -1    0    0    0  501 -0.00000000000E+00  0.00000000000E+00  0.76715354582E+03  0.76715354582E+03  0.00000000000E+00 0.  1.
          2   -1    0    0  501    0  0.00000000000E+00 -0.00000000000E+00 -0.32981697620E+04  0.32981697620E+04  0.00000000000E+00 0. -1.
         23    2    1    2    0    0  0.44938633042E+03 -0.28364425567E+03 -0.31806633614E+04  0.32260119526E+04  0.90175173182E+02 0.  0.
         11    1    3    3    0    0  0.91710060541E+02 -0.10044174340E+03 -0.71659523469E+03  0.72938879166E+03  0.00000000000E+00 0. -1.
        -11    1    3    3    0    0  0.35767626988E+03 -0.18320251227E+03 -0.24640681267E+04  0.24966231609E+04  0.00000000000E+00 0.  1.
         22    1    1    2    0    0 -0.44938633042E+03  0.28364425567E+03  0.64964714522E+03  0.83931135524E+03  0.00000000000E+00 0.  1.
<mgrwt>
<rscale>  0 0.31813221E+04</rscale>
<asrwt>0</asrwt>
<pdfrwt beam="1">  1        2 0.50741072E+00 0.31813221E+04</pdfrwt>
<pdfrwt beam="2">  1       -2 0.11802362E+00 0.31813221E+04</pdfrwt>
<totfact> 0.52070572E-01</totfact>
</mgrwt>
</event>
<event>
 6    1  0.1603085E-006  0.4264132E+04  0.7818608E-02  0.7953284E-01
         -2   -1    0    0    0  501 -0.00000000000E+00  0.00000000000E+00  0.24450951779E+04  0.24450951779E+04  0.00000000000E+00 0.  1.
          2   -1    0    0  501    0  0.00000000000E+00 -0.00000000000E+00 -0.18591120291E+04  0.18591120291E+04  0.00000000000E+00 0. -1.
         23    2    1    2    0    0 -0.12267051772E+04 -0.10394796968E+04  0.17049003617E+04  0.23453046160E+04  0.91895956402E+02 0.  0.
         13    1    3    3    0    0 -0.10185473912E+04 -0.83061732821E+03  0.14287081883E+04  0.19412807683E+04  0.00000000000E+00 0.  1.
        -13    1    3    3    0    0 -0.20815778597E+03 -0.20886236857E+03  0.27619217333E+03  0.40402384766E+03  0.00000000000E+00 0. -1.
         22    1    1    2    0    0  0.12267051772E+04  0.10394796968E+04 -0.11189172128E+04  0.19589025910E+04  0.00000000000E+00 0. -1.
<mgrwt>
<rscale>  0 0.42641322E+04</rscale>
<asrwt>0</asrwt>
<pdfrwt beam="1">  1        2 0.28601724E+00 0.42641322E+04</pdfrwt>
<pdfrwt beam="2">  1       -2 0.37616849E+00 0.42641322E+04</pdfrwt>
<totfact> 0.65470086E-02</totfact>
</mgrwt>
</event>
<event>
 6    1  0.1747081E-006  0.2792375E+04  0.7818608E-02  0.8305640E-01
         -1   -1    0    0    0  501 -0.00000000000E+00  0.00000000000E+00  0.15005690012E+04  0.15005690012E+04  0.00000000000E+00 0.  1.
          1   -1    0    0  501    0  0.00000000000E+00 -0.00000000000E+00 -0.12990666816E+04  0.12990666816E+04  0.00000000000E+00 0. -1.
         23    2    1    2    0    0 -0.11016839422E+04  0.84914769808E+02  0.95455232902E+03  0.14624736346E+04  0.82103327585E+02 0.  0.
         13    1    3    3    0    0 -0.29288327818E+03  0.48868022466E+02  0.29002264942E+03  0.41506847078E+03  0.00000000000E+00 0.  1.
        -13    1    3    3    0    0 -0.80880066399E+03  0.36046747342E+02  0.66452967960E+03  0.10474051638E+04  0.00000000000E+00 0. -1.
         22    1    1    2    0    0  0.11016839422E+04 -0.84914769808E+02 -0.75305000944E+03  0.13371620483E+04  0.00000000000E+00 0. -1.
<mgrwt>
<rscale>  0 0.27923748E+04</rscale>
<asrwt>0</asrwt>
<pdfrwt beam="1">  1        1 0.19985641E+00 0.27923748E+04</pdfrwt>
<pdfrwt beam="2">  1       -1 0.23085677E+00 0.27923748E+04</pdfrwt>
<totfact> 0.73117730E-01</totfact>
</mgrwt>
</event>
<event>
 6    1  0.1603085E-006  0.1497449E+04  0.7818608E-02  0.8886151E-01
          1   -1    0    0  501    0  0.00000000000E+00  0.00000000000E+00  0.62861198369E+03  0.62861198369E+03  0.00000000000E+00 0. -1.
         -1   -1    0    0    0  501 -0.00000000000E+00 -0.00000000000E+00 -0.89178768090E+03  0.89178768090E+03  0.00000000000E+00 0.  1.
         23    2    1    2    0    0  0.25068778448E+03  0.26755412852E+03 -0.79154710278E+03  0.87727765501E+03  0.92949938600E+02 0.  0.
         11    1    3    3    0    0  0.98215341646E+02  0.46303758988E+02 -0.25698911214E+03  0.27898690864E+03  0.00000000000E+00 0.  1.
        -11    1    3    3    0    0  0.15247244283E+03  0.22125036953E+03 -0.53455799064E+03  0.59829074637E+03  0.00000000000E+00 0. -1.
         22    1    1    2    0    0 -0.25068778448E+03 -0.26755412852E+03  0.52837140557E+03  0.64312200957E+03  0.00000000000E+00 0. -1.
<mgrwt>
<rscale>  0 0.14974491E+04</rscale>
<asrwt>0</asrwt>
<pdfrwt beam="1">  1        1 0.96709537E-01 0.14974491E+04</pdfrwt>
<pdfrwt beam="2">  1       -1 0.13719810E+00 0.14974491E+04</pdfrwt>
<totfact> 0.13682509E+01</totfact>
</mgrwt>
</event>
<event>
 6    1  0.1603085E-006  0.1489265E+04  0.7818608E-02  0.8891623E-01
          1   -1    0    0  501    0  0.00000000000E+00  0.00000000000E+00  0.16954540195E+04  0.16954540195E+04  0.00000000000E+00 0. -1.
         -1   -1    0    0    0  501 -0.00000000000E+00 -0.00000000000E+00 -0.32703785887E+03  0.32703785887E+03  0.00000000000E+00 0.  1.
         23    2    1    2    0    0 -0.69065639325E+03  0.25413172465E+03  0.57032614450E+03  0.93688750253E+03  0.10438914826E+03 0.  0.
         13    1    3    3    0    0 -0.44706040452E+03  0.20858652230E+03  0.34547270879E+03  0.60226467196E+03  0.00000000000E+00 0.  1.
        -13    1    3    3    0    0 -0.24359598873E+03  0.45545202351E+02  0.22485343571E+03  0.33462283056E+03  0.00000000000E+00 0. -1.
         22    1    1    2    0    0  0.69065639325E+03 -0.25413172465E+03  0.79809001612E+03  0.10856043758E+04  0.00000000000E+00 0. -1.
<mgrwt>
<rscale>  0 0.14892651E+04</rscale>
<asrwt>0</asrwt>
<pdfrwt beam="1">  1        1 0.26083908E+00 0.14892651E+04</pdfrwt>
<pdfrwt beam="2">  1       -1 0.50313518E-01 0.14892651E+04</pdfrwt>
<totfact> 0.18434551E+01</totfact>
</mgrwt>
</event>
<event>
 6    1  0.1603085E-006  0.3843265E+04  0.7818608E-02  0.8036934E-01
         -1   -1    0    0    0  501 -0.00000000000E+00  0.00000000000E+00  0.11454531690E+04  0.11454531690E+04  0.00000000000E+00 0.  1.
          1   -1    0    0  501    0  0.00000000000E+00 -0.00000000000E+00 -0.32237641482E+04  0.32237641482E+04  0.00000000000E+00 0. -1.
         23    2    1    2    0    0 -0.13634690088E+04 -0.24906539653E+03 -0.25510906045E+04  0.29047713866E+04  0.92478248559E+02 0.  0.
         13    1    3    3    0    0 -0.47536953655E+03 -0.44424205667E+02 -0.90584141316E+03  0.10239620951E+04  0.00000000000E+00 0.  1.
        -13    1    3    3    0    0 -0.88809947220E+03 -0.20464119086E+03 -0.16452491913E+04  0.18808092915E+04  0.00000000000E+00 0. -1.
         22    1    1    2    0    0  0.13634690088E+04  0.24906539653E+03  0.47277962536E+03  0.14644459306E+04  0.00000000000E+00 0.  1.
<mgrwt>
<rscale>  0 0.38432647E+04</rscale>
<asrwt>0</asrwt>
<pdfrwt beam="1">  1        1 0.49596372E+00 0.38432647E+04</pdfrwt>
<pdfrwt beam="2">  1       -1 0.17622356E+00 0.38432647E+04</pdfrwt>
<totfact> 0.71598530E-02</totfact>
</mgrwt>
</event>
<event>
 6    1  0.1603085E-006  0.4338437E+04  0.7818608E-02  0.7939549E-01
          2   -1    0    0  501    0  0.00000000000E+00  0.00000000000E+00  0.40257492864E+04  0.40257492864E+04  0.00000000000E+00 0. -1.
         -2   -1    0    0    0  501 -0.00000000000E+00 -0.00000000000E+00 -0.11688529232E+04  0.11688529232E+04  0.00000000000E+00 0.  1.
         23    2    1    2    0    0 -0.54204793537E+03  0.60587246529E+03  0.38358427735E+04  0.39221111555E+04  0.91480730916E+02 0.  0.
         13    1    3    3    0    0 -0.13768047071E+03  0.14382250990E+03  0.11373611324E+04  0.11546563003E+04  0.00000000000E+00 0. -1.
        -13    1    3    3    0    0 -0.40436746466E+03  0.46204995539E+03  0.26984816411E+04  0.27674548551E+04  0.00000000000E+00 0.  1.
         22    1    1    2    0    0  0.54204793537E+03 -0.60587246529E+03 -0.97894641037E+03  0.12724910541E+04  0.00000000000E+00 0.  1.
<mgrwt>
<rscale>  0 0.43384370E+04</rscale>
<asrwt>0</asrwt>
<pdfrwt beam="1">  1        2 0.61934604E+00 0.43384370E+04</pdfrwt>
<pdfrwt beam="2">  1       -2 0.17982353E+00 0.43384370E+04</pdfrwt>
<totfact> 0.45315403E-02</totfact>
</mgrwt>
</event>
<event>
 6    1  0.1603085E-006  0.1754628E+04  0.7818608E-02  0.8730807E-01
         -2   -1    0    0    0  501 -0.00000000000E+00  0.00000000000E+00  0.25220428718E+03  0.25220428718E+03  0.00000000000E+00 0.  1.
          2   -1    0    0  501    0  0.00000000000E+00 -0.00000000000E+00 -0.30518106307E+04  0.30518106307E+04  0.00000000000E+00 0. -1.
         23    2    1    2    0    0 -0.23968465095E+03 -0.57018723489E+03 -0.23884346923E+03  0.66961390187E+03  0.93671554182E+02 0.  0.
         11    1    3    3    0    0 -0.10382488983E+03 -0.23976794279E+03 -0.15075433943E+03  0.30165401538E+03  0.00000000000E+00 0.  1.
        -11    1    3    3    0    0 -0.13585976112E+03 -0.33041929210E+03 -0.88089129800E+02  0.36795988650E+03  0.00000000000E+00 0. -1.
         22    1    1    2    0    0  0.23968465095E+03  0.57018723489E+03 -0.25607628743E+04  0.26344010160E+04  0.00000000000E+00 0. -1.
<mgrwt>
<rscale>  0 0.17546279E+04</rscale>
<asrwt>0</asrwt>
<pdfrwt beam="1">  1        2 0.46950934E+00 0.17546279E+04</pdfrwt>
<pdfrwt beam="2">  1       -2 0.38800659E-01 0.17546279E+04</pdfrwt>
<totfact> 0.96500222E+00</totfact>
</mgrwt>
</event>
<event>
 6    1  0.1603085E-006  0.3634221E+04  0.7818608E-02  0.8082698E-01
          2   -1    0    0  501    0  0.00000000000E+00  0.00000000000E+00  0.14957062632E+04  0.14957062632E+04  0.00000000000E+00 0. -1.
         -2   -1    0    0    0  501 -0.00000000000E+00 -0.00000000000E+00 -0.22075789749E+04  0.22075789749E+04  0.00000000000E+00 0.  1.
         23    2    1    2    0    0 -0.11292968497E+04  0.21694701142E+03  0.10762303220E+04  0.15773290203E+04  0.85543860099E+02 0.  0.
         11    1    3    3    0    0 -0.86423042921E+03  0.15918317569E+03  0.77197598869E+03  0.11696924576E+04  0.00000000000E+00 0. -1.
        -11    1    3    3    0    0 -0.26506642048E+03  0.57763835733E+02  0.30425433328E+03  0.40763656276E+03  0.00000000000E+00 0.  1.
         22    1    1    2    0    0  0.11292968497E+04 -0.21694701142E+03 -0.17881030337E+04  0.21259562177E+04  0.00000000000E+00 0.  1.
<mgrwt>
<rscale>  0 0.36342205E+04</rscale>
<asrwt>0</asrwt>
<pdfrwt beam="1">  1        2 0.23010866E+00 0.36342205E+04</pdfrwt>
<pdfrwt beam="2">  1       -2 0.33962753E+00 0.36342205E+04</pdfrwt>
<totfact> 0.18749270E-01</totfact>
</mgrwt>
</event>
<event>
 6    1  0.1603085E-006  0.2924430E+04  0.7818608E-02  0.8265646E-01
          2   -1    0    0  501    0  0.00000000000E+00  0.00000000000E+00  0.18912565673E+04  0.18912565673E+04  0.00000000000E+00 0. -1.
         -2   -1    0    0    0  501 -0.00000000000E+00 -0.00000000000E+00 -0.11305036328E+04  0.11305036328E+04  0.00000000000E+00 0.  1.
         23    2    1    2    0    0  0.81834787490E+03 -0.57127746354E+03 -0.72151513077E+03  0.12348159362E+04  0.90194943076E+02 0.  0.
         13    1    3    3    0    0  0.61023113858E+03 -0.40352159496E+03 -0.57105081430E+03  0.92806829091E+03  0.00000000000E+00 0. -1.
        -13    1    3    3    0    0  0.20811673632E+03 -0.16775586859E+03 -0.15046431647E+03  0.30674764533E+03  0.00000000000E+00 0.  1.
         22    1    1    2    0    0 -0.81834787490E+03  0.57127746354E+03  0.14822680653E+04  0.17869442638E+04  0.00000000000E+00 0. -1.
<mgrwt>
<rscale>  0 0.29244298E+04</rscale>
<asrwt>0</asrwt>
<pdfrwt beam="1">  1        2 0.29096255E+00 0.29244298E+04</pdfrwt>
<pdfrwt beam="2">  1       -2 0.17392364E+00 0.29244298E+04</pdfrwt>
<totfact> 0.13225431E+00</totfact>
</mgrwt>
</event>
<event>
 6    1  0.1603085E-006  0.3932083E+04  0.7818608E-02  0.8018390E-01
          1   -1    0    0  501    0  0.00000000000E+00  0.00000000000E+00  0.31146699665E+04  0.31146699665E+04  0.00000000000E+00 0. -1.
         -1   -1    0    0    0  501 -0.00000000000E+00 -0.00000000000E+00 -0.12410042467E+04  0.12410042467E+04  0.00000000000E+00 0.  1.
         23    2    1    2    0    0  0.43798338169E+03 -0.80068730954E+03  0.28649837818E+04  0.30082169374E+04  0.91145278413E+02 0.  0.
         13    1    3    3    0    0  0.32591393414E+03 -0.61503400350E+03  0.20536261395E+04  0.21683788965E+04  0.00000000000E+00 0. -1.
        -13    1    3    3    0    0  0.11206944755E+03 -0.18565330604E+03  0.81135764229E+03  0.83983804083E+03  0.00000000000E+00 0.  1.
         22    1    1    2    0    0 -0.43798338169E+03  0.80068730954E+03 -0.99131806199E+03  0.13474572759E+04  0.00000000000E+00 0.  1.
<mgrwt>
<rscale>  0 0.39320827E+04</rscale>
<asrwt>0</asrwt>
<pdfrwt beam="1">  1        1 0.47917999E+00 0.39320827E+04</pdfrwt>
<pdfrwt beam="2">  1       -1 0.19092373E+00 0.39320827E+04</pdfrwt>
<totfact> 0.67379809E-02</totfact>
</mgrwt>
</event>
<event>
 6    1  0.1603085E-006  0.1572507E+04  0.7818608E-02  0.8837618E-01
         -2   -1    0    0    0  501 -0.00000000000E+00  0.00000000000E+00  0.36327353971E+03  0.36327353971E+03  0.00000000000E+00 0.  1.
          2   -1    0    0  501    0  0.00000000000E+00 -0.00000000000E+00 -0.17017325578E+04  0.17017325578E+04  0.00000000000E+00 0. -1.
         23    2    1    2    0    0 -0.16199107753E+03  0.76488073201E+03 -0.60169131784E+03  0.99071084592E+03  0.90509087206E+02 0.  0.
         11    1    3    3    0    0 -0.73235345557E+02  0.17099218922E+03 -0.15853234995E+03  0.24440591358E+03  0.00000000000E+00 0.  1.
        -11    1    3    3    0    0 -0.88755731976E+02  0.59388854280E+03 -0.44315896788E+03  0.74630493234E+03  0.00000000000E+00 0. -1.
         22    1    1    2    0    0  0.16199107753E+03 -0.76488073201E+03 -0.73676770021E+03  0.10742952515E+04  0.00000000000E+00 0. -1.
<mgrwt>
<rscale>  0 0.15725068E+04</rscale>
<asrwt>0</asrwt>
<pdfrwt beam="1">  1        2 0.26180501E+00 0.15725068E+04</pdfrwt>
<pdfrwt beam="2">  1       -2 0.55888237E-01 0.15725068E+04</pdfrwt>
<totfact> 0.28269776E+01</totfact>
</mgrwt>
</event>
<event>
 6    1  0.1603085E-006  0.5714087E+03  0.7818608E-02  0.9966566E-01
          2   -1    0    0  501    0  0.00000000000E+00  0.00000000000E+00  0.15717486529E+04  0.15717486529E+04  0.00000000000E+00 0. -1.
         -2   -1    0    0    0  501 -0.00000000000E+00 -0.00000000000E+00 -0.51933860191E+02  0.51933860191E+02  0.00000000000E+00 0.  1.
         23    2    1    2    0    0  0.62180590219E+02  0.13203406872E+03  0.14531064512E+04  0.14632162427E+04  0.90465426236E+02 0.  0.
         13    1    3    3    0    0  0.45406149866E+02  0.90879944311E+01  0.48055127463E+03  0.48277721325E+03  0.00000000000E+00 0.  1.
        -13    1    3    3    0    0  0.16774440353E+02  0.12294607428E+03  0.97255517652E+03  0.98043902942E+03  0.00000000000E+00 0. -1.
         22    1    1    2    0    0 -0.62180590219E+02 -0.13203406872E+03  0.66708341523E+02  0.16046627038E+03  0.00000000000E+00 0.  1.
<mgrwt>
<rscale>  0 0.57140870E+03</rscale>
<asrwt>0</asrwt>
<pdfrwt beam="1">  1        2 0.24180745E+00 0.57140870E+03</pdfrwt>
<pdfrwt beam="2">  1       -2 0.79898258E-02 0.57140870E+03</pdfrwt>
<totfact> 0.11646248E+03</totfact>
</mgrwt>
</event>
<event>
 6    1  0.1603085E-006  0.4033816E+04  0.7818608E-02  0.7997759E-01
          1   -1    0    0  501    0  0.00000000000E+00  0.00000000000E+00  0.18736740313E+04  0.18736740313E+04  0.00000000000E+00 0. -1.
         -1   -1    0    0    0  501 -0.00000000000E+00 -0.00000000000E+00 -0.21710912385E+04  0.21710912385E+04  0.00000000000E+00 0.  1.
         23    2    1    2    0    0 -0.17087904541E+03  0.55445379874E+03  0.17870055703E+04  0.18811024083E+04  0.92405081713E+02 0.  0.
         11    1    3    3    0    0 -0.13565355595E+03  0.50580377207E+03  0.16593249135E+04  0.17399995723E+04  0.00000000000E+00 0. -1.
        -11    1    3    3    0    0 -0.35225489456E+02  0.48650026676E+02  0.12768065679E+03  0.14110283598E+03  0.00000000000E+00 0.  1.
         22    1    1    2    0    0  0.17087904541E+03 -0.55445379874E+03 -0.20844227775E+04  0.21636628615E+04  0.00000000000E+00 0.  1.
<mgrwt>
<rscale>  0 0.40338157E+04</rscale>
<asrwt>0</asrwt>
<pdfrwt beam="1">  1        1 0.28825754E+00 0.40338157E+04</pdfrwt>
<pdfrwt beam="2">  1       -1 0.33401404E+00 0.40338157E+04</pdfrwt>
<totfact> 0.56126125E-02</totfact>
</mgrwt>
</event>
<event>
 6    1  0.1603085E-006  0.2023058E+04  0.7818608E-02  0.8595916E-01
          1   -1    0    0  501    0  0.00000000000E+00  0.00000000000E+00  0.25884120517E+04  0.25884120517E+04  0.00000000000E+00 0. -1.
         -1   -1    0    0    0  501 -0.00000000000E+00 -0.00000000000E+00 -0.39529666492E+03  0.39529666492E+03  0.00000000000E+00 0.  1.
         23    2    1    2    0    0  0.16290011094E+03  0.90768575647E+03  0.17041438901E+04  0.19399065308E+04  0.93279533271E+02 0.  0.
         11    1    3    3    0    0  0.95655118495E+02  0.39903394102E+03  0.84139634414E+03  0.93612274607E+03  0.00000000000E+00 0. -1.
        -11    1    3    3    0    0  0.67244992449E+02  0.50865181545E+03  0.86274754594E+03  0.10037837847E+04  0.00000000000E+00 0.  1.
         22    1    1    2    0    0 -0.16290011094E+03 -0.90768575647E+03  0.48897149673E+03  0.10438021859E+04  0.00000000000E+00 0.  1.
<mgrwt>
<rscale>  0 0.20230577E+04</rscale>
<asrwt>0</asrwt>
<pdfrwt beam="1">  1        1 0.39821723E+00 0.20230577E+04</pdfrwt>
<pdfrwt beam="2">  1       -1 0.60814873E-01 0.20230577E+04</pdfrwt>
<totfact> 0.29861879E+00</totfact>
</mgrwt>
</event>
<event>
 6    1  0.1603085E-006  0.3863008E+04  0.7818608E-02  0.8032767E-01
          4   -1    0    0  501    0  0.00000000000E+00  0.00000000000E+00  0.18767774769E+04  0.18767774769E+04  0.00000000000E+00 0. -1.
         -4   -1    0    0    0  501 -0.00000000000E+00 -0.00000000000E+00 -0.19878266471E+04  0.19878266471E+04  0.00000000000E+00 0.  1.
         23    2    1    2    0    0  0.67800786523E+03 -0.10783812950E+04  0.13955252396E+04  0.18916957797E+04  0.91767890502E+02 0.  0.
         11    1    3    3    0    0  0.19562451103E+03 -0.34224397298E+03  0.49073660319E+03  0.62946191312E+03  0.00000000000E+00 0. -1.
        -11    1    3    3    0    0  0.48238335420E+03 -0.73613732206E+03  0.90478863639E+03  0.12622338666E+04  0.00000000000E+00 0.  1.
         22    1    1    2    0    0 -0.67800786523E+03  0.10783812950E+04 -0.15065744098E+04  0.19729083443E+04  0.00000000000E+00 0.  1.
<mgrwt>
<rscale>  0 0.38630083E+04</rscale>
<asrwt>0</asrwt>
<pdfrwt beam="1">  1        4 0.28873500E+00 0.38630083E+04</pdfrwt>
<pdfrwt beam="2">  1       -4 0.30581948E+00 0.38630083E+04</pdfrwt>
<totfact> 0.16133806E-03</totfact>
</mgrwt>
</event>
<event>
 6    1  0.1603085E-006  0.1351762E+04  0.7818608E-02  0.8989495E-01
          1   -1    0    0  501    0  0.00000000000E+00  0.00000000000E+00  0.99168578745E+03  0.99168578745E+03  0.00000000000E+00 0. -1.
         -1   -1    0    0    0  501 -0.00000000000E+00 -0.00000000000E+00 -0.46064522291E+03  0.46064522291E+03  0.00000000000E+00 0.  1.
         23    2    1    2    0    0 -0.49674603765E+02  0.22795861349E+03  0.94446458540E+03  0.97761834279E+03  0.96392818011E+02 0.  0.
         11    1    3    3    0    0 -0.64876977181E+02  0.15095611848E+03  0.50081151954E+03  0.52707584841E+03  0.00000000000E+00 0. -1.
        -11    1    3    3    0    0  0.15202373416E+02  0.77002495012E+02  0.44365306586E+03  0.45054249438E+03  0.00000000000E+00 0.  1.
         22    1    1    2    0    0  0.49674603765E+02 -0.22795861349E+03 -0.41342402086E+03  0.47471266757E+03  0.00000000000E+00 0.  1.
<mgrwt>
<rscale>  0 0.13517623E+04</rscale>
<asrwt>0</asrwt>
<pdfrwt beam="1">  1        1 0.15256704E+00 0.13517623E+04</pdfrwt>
<pdfrwt beam="2">  1       -1 0.70868496E-01 0.13517623E+04</pdfrwt>
<totfact> 0.30243244E+01</totfact>
</mgrwt>
</event>
<event>
 6    1  0.1603085E-006  0.7174073E+03  0.7818608E-02  0.9687918E-01
         -3   -1    0    0    0  501 -0.00000000000E+00  0.00000000000E+00  0.32041583133E+03  0.32041583133E+03  0.00000000000E+00 0.  1.
          3   -1    0    0  501    0  0.00000000000E+00 -0.00000000000E+00 -0.40156666474E+03  0.40156666474E+03  0.00000000000E+00 0. -1.
         23    2    1    2    0    0  0.26093339000E+03 -0.79582839763E+02  0.18424931667E+03  0.34138178396E+03  0.90410449195E+02 0.  0.
         11    1    3    3    0    0  0.13793156968E+03 -0.63066273554E+02  0.52777854086E+02  0.16058634642E+03  0.00000000000E+00 0.  1.
        -11    1    3    3    0    0  0.12300182032E+03 -0.16516566209E+02  0.13147146258E+03  0.18079543754E+03  0.00000000000E+00 0. -1.
         22    1    1    2    0    0 -0.26093339000E+03  0.79582839763E+02 -0.26540015007E+03  0.38060071211E+03  0.00000000000E+00 0. -1.
<mgrwt>
<rscale>  0 0.71740732E+03</rscale>
<asrwt>0</asrwt>
<pdfrwt beam="1">  1        3 0.61779487E-01 0.71740732E+03</pdfrwt>
<pdfrwt beam="2">  1       -3 0.49294744E-01 0.71740732E+03</pdfrwt>
<totfact> 0.27482610E+01</totfact>
</mgrwt>
</event>
<event>
 6    1  0.1603085E-006  0.1332217E+04  0.7818608E-02  0.9004400E-01
         -1   -1    0    0    0  501 -0.00000000000E+00  0.00000000000E+00  0.23117908952E+03  0.23117908952E+03  0.00000000000E+00 0.  1.
          1   -1    0    0  501    0  0.00000000000E+00 -0.00000000000E+00 -0.19192926318E+04  0.19192926318E+04  0.00000000000E+00 0. -1.
         23    2    1    2    0    0  0.57469576612E+03 -0.13323437912E+03 -0.36009496238E+03  0.69731654311E+03  0.92495167385E+02 0.  0.
         11    1    3    3    0    0  0.54407312196E+02 -0.42407566785E+02 -0.40620755190E+02  0.80053751276E+02  0.00000000000E+00 0.  1.
        -11    1    3    3    0    0  0.52028845393E+03 -0.90826812334E+02 -0.31947420719E+03  0.61726279184E+03  0.00000000000E+00 0. -1.
         22    1    1    2    0    0 -0.57469576612E+03  0.13323437912E+03 -0.13280185799E+04  0.14531551782E+04  0.00000000000E+00 0. -1.
<mgrwt>
<rscale>  0 0.13322167E+04</rscale>
<asrwt>0</asrwt>
<pdfrwt beam="1">  1        1 0.29527579E+00 0.13322167E+04</pdfrwt>
<pdfrwt beam="2">  1       -1 0.35566014E-01 0.13322167E+04</pdfrwt>
<totfact> 0.25002155E+01</totfact>
</mgrwt>
</event>
<event>
 6    1  0.1603085E-006  0.5835415E+04  0.7818608E-02  0.7711150E-01
         -2   -1    0    0    0  501 -0.00000000000E+00  0.00000000000E+00  0.30993703268E+04  0.30993703268E+04  0.00000000000E+00 0.  1.
          2   -1    0    0  501    0  0.00000000000E+00 -0.00000000000E+00 -0.27466921285E+04  0.27466921285E+04  0.00000000000E+00 0. -1.
         23    2    1    2    0    0  0.33326890761E+03 -0.28754669080E+04  0.53693384426E+03  0.29454886764E+04  0.90705489786E+02 0.  0.
         13    1    3    3    0    0  0.12930318459E+03 -0.12171818619E+04  0.27106785332E+03  0.12536860770E+04  0.00000000000E+00 0. -1.
        -13    1    3    3    0    0  0.20396572303E+03 -0.16582850460E+04  0.26586599094E+03  0.16918025993E+04  0.00000000000E+00 0.  1.
         22    1    1    2    0    0 -0.33326890761E+03  0.28754669080E+04 -0.18425564596E+03  0.29005737789E+04  0.00000000000E+00 0.  1.
<mgrwt>
<rscale>  0 0.58354147E+04</rscale>
<asrwt>0</asrwt>
<pdfrwt beam="1">  1        2 0.42256802E+00 0.58354147E+04</pdfrwt>
<pdfrwt beam="2">  1       -2 0.47682620E+00 0.58354147E+04</pdfrwt>
<totfact> 0.39591617E-03</totfact>
</mgrwt>
</event>
<event>
 6    1  0.1603085E-006  0.1385165E+04  0.7818608E-02  0.8964627E-01
         -1   -1    0    0    0  501 -0.00000000000E+00  0.00000000000E+00  0.81166359166E+03  0.81166359166E+03  0.00000000000E+00 0.  1.
          1   -1    0    0  501    0  0.00000000000E+00 -0.00000000000E+00 -0.59097212107E+03  0.59097212107E+03  0.00000000000E+00 0. -1.
         23    2    1    2    0    0 -0.47633960549E+03 -0.25481416359E+03 -0.32351495554E+03  0.63583044934E+03  0.88253929769E+02 0.  0.
         11    1    3    3    0    0 -0.21330966267E+02 -0.32630365007E+01 -0.35301473436E+02  0.41374527863E+02  0.00000000000E+00 0. -1.
        -11    1    3    3    0    0 -0.45500863923E+03 -0.25155112709E+03 -0.28821348210E+03  0.59445592147E+03  0.00000000000E+00 0.  1.
         22    1    1    2    0    0  0.47633960549E+03  0.25481416359E+03  0.54420642613E+03  0.76680526339E+03  0.00000000000E+00 0. -1.
<mgrwt>
<rscale>  0 0.13851651E+04</rscale>
<asrwt>0</asrwt>
<pdfrwt beam="1">  1        1 0.90918788E-01 0.13851651E+04</pdfrwt>
<pdfrwt beam="2">  1       -1 0.12487132E+00 0.13851651E+04</pdfrwt>
<totfact> 0.19179821E+01</totfact>
</mgrwt>
</event>
<event>
 6    1  0.1603085E-006  0.2927257E+04  0.7818608E-02  0.8264814E-01
         -2   -1    0    0    0  501 -0.00000000000E+00  0.00000000000E+00  0.82705774942E+03  0.82705774942E+03  0.00000000000E+00 0.  1.
          2   -1    0    0  501    0  0.00000000000E+00 -0.00000000000E+00 -0.25901551276E+04  0.25901551276E+04  0.00000000000E+00 0. -1.
         23    2    1    2    0    0  0.84346956030E+03 -0.61381511273E+03  0.31373368122E+03  0.10931136664E+04  0.90877791869E+02 0.  0.
         11    1    3    3    0    0  0.58280917418E+03 -0.42412217764E+03  0.26019439140E+03  0.76632060940E+03  0.00000000000E+00 0.  1.
        -11    1    3    3    0    0  0.26066038612E+03 -0.18969293509E+03  0.53539289825E+02  0.32679305695E+03  0.00000000000E+00 0. -1.
         22    1    1    2    0    0 -0.84346956030E+03  0.61381511273E+03 -0.20768310594E+04  0.23240992107E+04  0.00000000000E+00 0. -1.
<mgrwt>
<rscale>  0 0.29272566E+04</rscale>
<asrwt>0</asrwt>
<pdfrwt beam="1">  1        2 0.39848540E+00 0.29272566E+04</pdfrwt>
<pdfrwt beam="2">  1       -2 0.12723965E+00 0.29272566E+04</pdfrwt>
<totfact> 0.12173747E+00</totfact>
</mgrwt>
</event>
<event>
 6    1  0.1603085E-006  0.4131983E+04  0.7818608E-02  0.7978438E-01
         -1   -1    0    0    0  501 -0.00000000000E+00  0.00000000000E+00  0.16230636999E+04  0.16230636999E+04  0.00000000000E+00 0.  1.
          1   -1    0    0  501    0  0.00000000000E+00 -0.00000000000E+00 -0.26297931634E+04  0.26297931634E+04  0.00000000000E+00 0. -1.
         23    2    1    2    0    0  0.16590726662E+04 -0.19792033376E+01 -0.17690588740E+04  0.24270222160E+04  0.91331856249E+02 0.  0.
         13    1    3    3    0    0  0.52004709066E+03  0.95504523481E+01 -0.61559919553E+03  0.80591721485E+03  0.00000000000E+00 0. -1.
        -13    1    3    3    0    0  0.11390255756E+04 -0.11529655686E+02 -0.11534596785E+04  0.16211050011E+04  0.00000000000E+00 0.  1.
         22    1    1    2    0    0 -0.16590726662E+04  0.19792033376E+01  0.76232941058E+03  0.18258346473E+04  0.00000000000E+00 0.  1.
<mgrwt>
<rscale>  0 0.41319835E+04</rscale>
<asrwt>0</asrwt>
<pdfrwt beam="1">  1        1 0.40458356E+00 0.41319835E+04</pdfrwt>
<pdfrwt beam="2">  1       -1 0.24970211E+00 0.41319835E+04</pdfrwt>
<totfact> 0.59626794E-02</totfact>
</mgrwt>
</event>
<event>
 6    1  0.1603085E-006  0.2455114E+04  0.7818608E-02  0.8419153E-01
          1   -1    0    0  501    0  0.00000000000E+00  0.00000000000E+00  0.11208607331E+04  0.11208607331E+04  0.00000000000E+00 0.  1.
         -1   -1    0    0    0  501 -0.00000000000E+00 -0.00000000000E+00 -0.13444097055E+04  0.13444097055E+04  0.00000000000E+00 0. -1.
         23    2    1    2    0    0  0.28461247575E+03 -0.16767191691E+03 -0.12974553680E+04  0.13417077658E+04  0.87585180123E+02 0.  0.
         11    1    3    3    0    0  0.19224275204E+02 -0.45217269843E+02 -0.16681987105E+03  0.17390527200E+03  0.00000000000E+00 0. -1.
        -11    1    3    3    0    0  0.26538820054E+03 -0.12245464706E+03 -0.11306354970E+04  0.11678024938E+04  0.00000000000E+00 0.  1.
         22    1    1    2    0    0 -0.28461247575E+03  0.16767191691E+03  0.10739063956E+04  0.11235626727E+04  0.00000000000E+00 0.  1.
<mgrwt>
<rscale>  0 0.24551139E+04</rscale>
<asrwt>0</asrwt>
<pdfrwt beam="1">  1        1 0.17244011E+00 0.24551139E+04</pdfrwt>
<pdfrwt beam="2">  1       -1 0.20683226E+00 0.24551139E+04</pdfrwt>
<totfact> 0.14735179E+00</totfact>
</mgrwt>
</event>
<event>
 6    1  0.1603085E-006  0.3206233E+04  0.7818608E-02  0.8187173E-01
          2   -1    0    0  501    0  0.00000000000E+00  0.00000000000E+00  0.18117978229E+04  0.18117978229E+04  0.00000000000E+00 0. -1.
         -2   -1    0    0    0  501 -0.00000000000E+00 -0.00000000000E+00 -0.14184707196E+04  0.14184707196E+04  0.00000000000E+00 0.  1.
         23    2    1    2    0    0  0.71972620349E+03  0.14119736313E+04  0.43137687137E+03  0.16449852465E+04  0.90637256750E+02 0.  0.
         13    1    3    3    0    0  0.23334718156E+03  0.55043574355E+03  0.14947161242E+03  0.61625658442E+03  0.00000000000E+00 0. -1.
        -13    1    3    3    0    0  0.48637902194E+03  0.86153788780E+03  0.28190525896E+03  0.10287286620E+04  0.00000000000E+00 0.  1.
         22    1    1    2    0    0 -0.71972620349E+03 -0.14119736313E+04 -0.38049768060E+02  0.15852832960E+04  0.00000000000E+00 0.  1.
<mgrwt>
<rscale>  0 0.32062328E+04</rscale>
<asrwt>0</asrwt>
<pdfrwt beam="1">  1        2 0.27873813E+00 0.32062328E+04</pdfrwt>
<pdfrwt beam="2">  1       -2 0.21822627E+00 0.32062328E+04</pdfrwt>
<totfact> 0.72565728E-01</totfact>
</mgrwt>
</event>
<event>
 6    1  0.1603085E-006  0.2425562E+04  0.7818608E-02  0.8429995E-01
          2   -1    0    0  501    0  0.00000000000E+00  0.00000000000E+00  0.51603631195E+03  0.51603631195E+03  0.00000000000E+00 0. -1.
         -2   -1    0    0    0  501 -0.00000000000E+00 -0.00000000000E+00 -0.28502590576E+04  0.28502590576E+04  0.00000000000E+00 0.  1.
         23    2    1    2    0    0  0.94440229791E+03  0.58700174208E+03 -0.50233193773E+03  0.12233323093E+04  0.87964866860E+02 0.  0.
         13    1    3    3    0    0  0.68845682988E+03  0.40236741962E+03 -0.32301597601E+03  0.86035554728E+03  0.00000000000E+00 0.  1.
        -13    1    3    3    0    0  0.25594546803E+03  0.18463432247E+03 -0.17931596172E+03  0.36297676202E+03  0.00000000000E+00 0. -1.
         22    1    1    2    0    0 -0.94440229791E+03 -0.58700174208E+03 -0.18318908079E+04  0.21429630603E+04  0.00000000000E+00 0. -1.
<mgrwt>
<rscale>  0 0.24255615E+04</rscale>
<asrwt>0</asrwt>
<pdfrwt beam="1">  1        2 0.79390202E-01 0.24255615E+04</pdfrwt>
<pdfrwt beam="2">  1       -2 0.43850139E+00 0.24255615E+04</pdfrwt>
<totfact> 0.22021477E-01</totfact>
</mgrwt>
</event>
<event>
 6    1  0.1603085E-006  0.1880300E+04  0.7818608E-02  0.8664725E-01
         -2   -1    0    0    0  501 -0.00000000000E+00  0.00000000000E+00  0.10722254531E+04  0.10722254531E+04  0.00000000000E+00 0.  1.
          2   -1    0    0  501    0  0.00000000000E+00 -0.00000000000E+00 -0.82434347824E+03  0.82434347824E+03  0.00000000000E+00 0. -1.
         23    2    1    2    0    0  0.21004141189E+03  0.33349514796E+03  0.98270818292E+03  0.10627188462E+04  0.91211649209E+02 0.  0.
         13    1    3    3    0    0  0.98050460977E+02  0.23631306404E+03  0.59855986882E+03  0.65094675181E+03  0.00000000000E+00 0.  1.
        -13    1    3    3    0    0  0.11199095092E+03  0.97182083919E+02  0.38414831410E+03  0.41177209443E+03  0.00000000000E+00 0. -1.
         22    1    1    2    0    0 -0.21004141189E+03 -0.33349514796E+03 -0.73482620804E+03  0.83385008512E+03  0.00000000000E+00 0. -1.
<mgrwt>
<rscale>  0 0.18803000E+04</rscale>
<asrwt>0</asrwt>
<pdfrwt beam="1">  1        2 0.12682207E+00 0.18803000E+04</pdfrwt>
<pdfrwt beam="2">  1       -2 0.16495776E+00 0.18803000E+04</pdfrwt>
<totfact> 0.71878737E+00</totfact>
</mgrwt>
</event>
<event>
 6    1  0.1603085E-006  0.2193630E+04  0.7818608E-02  0.8521084E-01
         -2   -1    0    0    0  501 -0.00000000000E+00  0.00000000000E+00  0.19689558963E+04  0.19689558963E+04  0.00000000000E+00 0.  1.
          2   -1    0    0  501    0  0.00000000000E+00 -0.00000000000E+00 -0.61098509170E+03  0.61098509170E+03  0.00000000000E+00 0. -1.
         23    2    1    2    0    0 -0.14958193702E+02  0.50459655495E+03 -0.46250567341E+03  0.69076761380E+03  0.91689516932E+02 0.  0.
         13    1    3    3    0    0 -0.43417340541E+01  0.42099747432E+03 -0.42595529329E+03  0.59891204356E+03  0.00000000000E+00 0.  1.
        -13    1    3    3    0    0 -0.10616459647E+02  0.83599080634E+02 -0.36550380120E+02  0.91855570247E+02  0.00000000000E+00 0. -1.
         22    1    1    2    0    0  0.14958193702E+02 -0.50459655495E+03  0.18204764780E+04  0.18891733742E+04  0.00000000000E+00 0.  1.
<mgrwt>
<rscale>  0 0.21936296E+04</rscale>
<asrwt>0</asrwt>
<pdfrwt beam="1">  1        2 0.93997708E-01 0.21936296E+04</pdfrwt>
<pdfrwt beam="2">  1       -2 0.30291629E+00 0.21936296E+04</pdfrwt>
<totfact> 0.13541759E+00</totfact>
</mgrwt>
</event>
<event>
 6    1  0.1603085E-006  0.1484044E+04  0.7818608E-02  0.8895133E-01
         -2   -1    0    0    0  501 -0.00000000000E+00  0.00000000000E+00  0.45520211135E+03  0.45520211135E+03  0.00000000000E+00 0.  1.
          2   -1    0    0  501    0  0.00000000000E+00 -0.00000000000E+00 -0.12095652046E+04  0.12095652046E+04  0.00000000000E+00 0. -1.
         23    2    1    2    0    0 -0.30428114633E+03 -0.42667673037E+03 -0.96336679030E+03  0.11005664708E+04  0.92363065015E+02 0.  0.
         13    1    3    3    0    0 -0.14037641566E+03 -0.12866603730E+03 -0.30560387863E+03  0.36007529471E+03  0.00000000000E+00 0.  1.
        -13    1    3    3    0    0 -0.16390473067E+03 -0.29801069306E+03 -0.65776291167E+03  0.74049117610E+03  0.00000000000E+00 0. -1.
         22    1    1    2    0    0  0.30428114633E+03  0.42667673037E+03  0.20900369707E+03  0.56420084512E+03  0.00000000000E+00 0.  1.
<mgrwt>
<rscale>  0 0.14840440E+04</rscale>
<asrwt>0</asrwt>
<pdfrwt beam="1">  1        2 0.18608695E+00 0.14840440E+04</pdfrwt>
<pdfrwt beam="2">  1       -2 0.70031096E-01 0.14840440E+04</pdfrwt>
<totfact> 0.33584239E+01</totfact>
</mgrwt>
</event>
<event>
 6    1  0.1603085E-006  0.1254970E+04  0.7818608E-02  0.9066057E-01
          1   -1    0    0  501    0  0.00000000000E+00  0.00000000000E+00  0.16211424816E+03  0.16211424816E+03  0.00000000000E+00 0. -1.
         -1   -1    0    0    0  501 -0.00000000000E+00 -0.00000000000E+00 -0.24287642993E+04  0.24287642993E+04  0.00000000000E+00 0.  1.
         23    2    1    2    0    0  0.44636651557E+03  0.30795258867E+03 -0.50138337238E+03  0.74419386667E+03  0.91440483401E+02 0.  0.
         13    1    3    3    0    0  0.28826909559E+03  0.18959097031E+03 -0.25834179812E+03  0.43102702020E+03  0.00000000000E+00 0. -1.
        -13    1    3    3    0    0  0.15809741998E+03  0.11836161836E+03 -0.24304157426E+03  0.31316684647E+03  0.00000000000E+00 0.  1.
         22    1    1    2    0    0 -0.44636651557E+03 -0.30795258867E+03 -0.17652666788E+04  0.18466846808E+04  0.00000000000E+00 0.  1.
<mgrwt>
<rscale>  0 0.12549698E+04</rscale>
<asrwt>0</asrwt>
<pdfrwt beam="1">  1        1 0.24940655E-01 0.12549698E+04</pdfrwt>
<pdfrwt beam="2">  1       -1 0.37365602E+00 0.12549698E+04</pdfrwt>
<totfact> 0.21099324E+00</totfact>
</mgrwt>
</event>
<event>
 6    1  0.1603085E-006  0.1766303E+04  0.7818608E-02  0.8724427E-01
         -2   -1    0    0    0  501 -0.00000000000E+00  0.00000000000E+00  0.43125051785E+03  0.43125051785E+03  0.00000000000E+00 0.  1.
          2   -1    0    0  501    0  0.00000000000E+00 -0.00000000000E+00 -0.18085926155E+04  0.18085926155E+04  0.00000000000E+00 0. -1.
         23    2    1    2    0    0  0.20346157427E+03 -0.53247006835E+03  0.16096177088E+03  0.59932499025E+03  0.91437226366E+02 0.  0.
         11    1    3    3    0    0  0.13873500120E+03 -0.28653946659E+03  0.12702585695E+03  0.34276498480E+03  0.00000000000E+00 0.  1.
        -11    1    3    3    0    0  0.64726573069E+02 -0.24593060176E+03  0.33935913923E+02  0.25656000545E+03  0.00000000000E+00 0. -1.
         22    1    1    2    0    0 -0.20346157427E+03  0.53247006835E+03 -0.15383038685E+04  0.16405181431E+04  0.00000000000E+00 0. -1.
<mgrwt>
<rscale>  0 0.17663029E+04</rscale>
<asrwt>0</asrwt>
<pdfrwt beam="1">  1        2 0.27824502E+00 0.17663029E+04</pdfrwt>
<pdfrwt beam="2">  1       -2 0.66346233E-01 0.17663029E+04</pdfrwt>
<totfact> 0.16872566E+01</totfact>
</mgrwt>
</event>
<event>
 6    1  0.1603085E-006  0.1070287E+04  0.7818608E-02  0.9234646E-01
         -1   -1    0    0    0  501 -0.00000000000E+00  0.00000000000E+00  0.15262404645E+03  0.15262404645E+03  0.00000000000E+00 0.  1.
          1   -1    0    0  501    0  0.00000000000E+00 -0.00000000000E+00 -0.18763672114E+04  0.18763672114E+04  0.00000000000E+00 0. -1.
         23    2    1    2    0    0  0.29385752258E+02 -0.51156263935E+03 -0.11342006988E+04  0.12478893594E+04  0.90866779885E+02 0.  0.
         11    1    3    3    0    0  0.47636330654E+02 -0.13557689793E+03 -0.29565141712E+03  0.32872492405E+03  0.00000000000E+00 0.  1.
        -11    1    3    3    0    0 -0.18250578396E+02 -0.37598574142E+03 -0.83854928166E+03  0.91916443531E+03  0.00000000000E+00 0. -1.
         22    1    1    2    0    0 -0.29385752258E+02  0.51156263935E+03 -0.58954246620E+03  0.78110189852E+03  0.00000000000E+00 0.  1.
<mgrwt>
<rscale>  0 0.10702874E+04</rscale>
<asrwt>0</asrwt>
<pdfrwt beam="1">  1        1 0.28867190E+00 0.10702874E+04</pdfrwt>
<pdfrwt beam="2">  1       -1 0.23480621E-01 0.10702874E+04</pdfrwt>
<totfact> 0.56408759E+01</totfact>
</mgrwt>
</event>
<event>
 6    1  0.1603085E-006  0.9725115E+03  0.7818608E-02  0.9339218E-01
         -1   -1    0    0    0  501 -0.00000000000E+00  0.00000000000E+00  0.14199813193E+03  0.14199813193E+03  0.00000000000E+00 0.  1.
          1   -1    0    0  501    0  0.00000000000E+00 -0.00000000000E+00 -0.16651250086E+04  0.16651250086E+04  0.00000000000E+00 0. -1.
         23    2    1    2    0    0  0.30879319217E+03  0.12376879158E+03 -0.14163649886E+04  0.14577378946E+04  0.90763644672E+02 0.  0.
         13    1    3    3    0    0  0.22469508165E+03  0.63448343423E+02 -0.82575644495E+03  0.85813010574E+03  0.00000000000E+00 0.  1.
        -13    1    3    3    0    0  0.84098110520E+02  0.60320448162E+02 -0.59060854366E+03  0.59960778889E+03  0.00000000000E+00 0. -1.
         22    1    1    2    0    0 -0.30879319217E+03 -0.12376879158E+03 -0.10676188804E+03  0.34938524588E+03  0.00000000000E+00 0.  1.
<mgrwt>
<rscale>  0 0.97251147E+03</rscale>
<asrwt>0</asrwt>
<pdfrwt beam="1">  1        1 0.25617307E+00 0.97251147E+03</pdfrwt>
<pdfrwt beam="2">  1       -1 0.21845867E-01 0.97251147E+03</pdfrwt>
<totfact> 0.89262238E+01</totfact>
</mgrwt>
</event>
<event>
 6    1  0.1663346E-006  0.2846592E+04  0.7818608E-02  0.8288948E-01
         -1   -1    0    0    0  501 -0.00000000000E+00  0.00000000000E+00  0.11278510598E+04  0.11278510598E+04  0.00000000000E+00 0.  1.
          1   -1    0    0  501    0  0.00000000000E+00 -0.00000000000E+00 -0.17961341931E+04  0.17961341931E+04  0.00000000000E+00 0. -1.
         23    2    1    2    0    0  0.52154808817E+03 -0.40896757304E+03 -0.16266202905E+04  0.17587912816E+04  0.90478276133E+02 0.  0.
         13    1    3    3    0    0  0.26430017933E+03 -0.25074930282E+03 -0.81181469579E+03  0.88981621583E+03  0.00000000000E+00 0.  1.
        -13    1    3    3    0    0  0.25724790884E+03 -0.15821827022E+03 -0.81480559474E+03  0.86897506573E+03  0.00000000000E+00 0. -1.
         22    1    1    2    0    0 -0.52154808817E+03  0.40896757304E+03  0.95833715715E+03  0.11651939713E+04  0.00000000000E+00 0.  1.
<mgrwt>
<rscale>  0 0.28465922E+04</rscale>
<asrwt>0</asrwt>
<pdfrwt beam="1">  1        1 0.27632834E+00 0.28465922E+04</pdfrwt>
<pdfrwt beam="2">  1       -1 0.17351555E+00 0.28465922E+04</pdfrwt>
<totfact> 0.81961715E-01</totfact>
</mgrwt>
</event>
<event>
 6    1  0.1603085E-006  0.1784613E+04  0.7818608E-02  0.8714525E-01
          2   -1    0    0  501    0  0.00000000000E+00  0.00000000000E+00  0.11028099700E+04  0.11028099700E+04  0.00000000000E+00 0. -1.
         -2   -1    0    0    0  501 -0.00000000000E+00 -0.00000000000E+00 -0.72198401426E+03  0.72198401426E+03  0.00000000000E+00 0.  1.
         23    2    1    2    0    0 -0.68801436035E+03 -0.18573020653E+03  0.73601432239E+03  0.10285413576E+04  0.91218265350E+02 0.  0.
         11    1    3    3    0    0 -0.22204403330E+03 -0.53247295035E+02  0.17756801729E+03  0.28925633601E+03  0.00000000000E+00 0. -1.
        -11    1    3    3    0    0 -0.46597032705E+03 -0.13248291149E+03  0.55844630510E+03  0.73928502163E+03  0.00000000000E+00 0.  1.
         22    1    1    2    0    0  0.68801436035E+03  0.18573020653E+03 -0.35518836663E+03  0.79625262665E+03  0.00000000000E+00 0.  1.
<mgrwt>
<rscale>  0 0.17846133E+04</rscale>
<asrwt>0</asrwt>
<pdfrwt beam="1">  1        2 0.16966307E+00 0.17846133E+04</pdfrwt>
<pdfrwt beam="2">  1       -2 0.11107446E+00 0.17846133E+04</pdfrwt>
<totfact> 0.13163890E+01</totfact>
</mgrwt>
</event>
<event>
 6    1  0.1603085E-006  0.1474166E+04  0.7818608E-02  0.8901816E-01
          2   -1    0    0  501    0  0.00000000000E+00  0.00000000000E+00  0.31039280928E+04  0.31039280928E+04  0.00000000000E+00 0. -1.
         -2   -1    0    0    0  501 -0.00000000000E+00 -0.00000000000E+00 -0.17503356282E+03  0.17503356282E+03  0.00000000000E+00 0.  1.
         23    2    1    2    0    0 -0.63477260454E+03  0.28996990183E+03  0.19781959285E+04  0.20996200451E+04  0.90146540964E+02 0.  0.
         11    1    3    3    0    0 -0.24751029016E+03  0.11737443804E+03  0.91077944607E+03  0.95108217407E+03  0.00000000000E+00 0.  1.
        -11    1    3    3    0    0 -0.38726231439E+03  0.17259546378E+03  0.10674164825E+04  0.11485378711E+04  0.00000000000E+00 0. -1.
         22    1    1    2    0    0  0.63477260454E+03 -0.28996990183E+03  0.95069860149E+03  0.11793416105E+04  0.00000000000E+00 0.  1.
<mgrwt>
<rscale>  0 0.14741663E+04</rscale>
<asrwt>0</asrwt>
<pdfrwt beam="1">  1        2 0.47752736E+00 0.14741663E+04</pdfrwt>
<pdfrwt beam="2">  1       -2 0.26928243E-01 0.14741663E+04</pdfrwt>
<totfact> 0.18307545E+01</totfact>
</mgrwt>
</event>
<event>
 6    1  0.1603085E-006  0.1663474E+04  0.7818608E-02  0.8782475E-01
         -1   -1    0    0    0  501 -0.00000000000E+00  0.00000000000E+00  0.82915175088E+03  0.82915175088E+03  0.00000000000E+00 0.  1.
          1   -1    0    0  501    0  0.00000000000E+00 -0.00000000000E+00 -0.83432997207E+03  0.83432997207E+03  0.00000000000E+00 0. -1.
         23    2    1    2    0    0 -0.16755752856E+03  0.74161884157E+03  0.32857135167E+03  0.83314275064E+03  0.89964872294E+02 0.  0.
         11    1    3    3    0    0 -0.14656951143E+03  0.63897258498E+03  0.24774305223E+03  0.70081752687E+03  0.00000000000E+00 0. -1.
        -11    1    3    3    0    0 -0.20988017131E+02  0.10264625659E+03  0.80828299432E+02  0.13232522377E+03  0.00000000000E+00 0.  1.
         22    1    1    2    0    0  0.16755752856E+03 -0.74161884157E+03 -0.33374957286E+03  0.83033897231E+03  0.00000000000E+00 0. -1.
<mgrwt>
<rscale>  0 0.16634737E+04</rscale>
<asrwt>0</asrwt>
<pdfrwt beam="1">  1        1 0.12835846E+00 0.16634737E+04</pdfrwt>
<pdfrwt beam="2">  1       -1 0.12756181E+00 0.16634737E+04</pdfrwt>
<totfact> 0.10487531E+01</totfact>
</mgrwt>
</event>
<event>
 6    1  0.1603085E-006  0.1652704E+04  0.7818608E-02  0.8788809E-01
          2   -1    0    0  501    0  0.00000000000E+00  0.00000000000E+00  0.21502436593E+04  0.21502436593E+04  0.00000000000E+00 0. -1.
         -2   -1    0    0    0  501 -0.00000000000E+00 -0.00000000000E+00 -0.31757207313E+03  0.31757207313E+03  0.00000000000E+00 0.  1.
         23    2    1    2    0    0  0.11861274990E+03 -0.64307430546E+03  0.16670353386E+04  0.17932425983E+04  0.95386841164E+02 0.  0.
         11    1    3    3    0    0  0.12154447720E+03 -0.40744284252E+03  0.10686762185E+04  0.11501528550E+04  0.00000000000E+00 0. -1.
        -11    1    3    3    0    0 -0.29317273047E+01 -0.23563146294E+03  0.59835912012E+03  0.64308974334E+03  0.00000000000E+00 0.  1.
         22    1    1    2    0    0 -0.11861274990E+03  0.64307430546E+03  0.16563624757E+03  0.67457313413E+03  0.00000000000E+00 0.  1.
<mgrwt>
<rscale>  0 0.16527036E+04</rscale>
<asrwt>0</asrwt>
<pdfrwt beam="1">  1        2 0.33080671E+00 0.16527036E+04</pdfrwt>
<pdfrwt beam="2">  1       -2 0.48857243E-01 0.16527036E+04</pdfrwt>
<totfact> 0.20874873E+01</totfact>
</mgrwt>
</event>
<event>
 6    1  0.1603085E-006  0.2073865E+04  0.7818608E-02  0.8572844E-01
          2   -1    0    0  501    0  0.00000000000E+00  0.00000000000E+00  0.41494500480E+04  0.41494500480E+04  0.00000000000E+00 0. -1.
         -2   -1    0    0    0  501 -0.00000000000E+00 -0.00000000000E+00 -0.25912571364E+03  0.25912571364E+03  0.00000000000E+00 0.  1.
         23    2    1    2    0    0 -0.67119134361E+03  0.13762384334E+03  0.35979850428E+04  0.36636593882E+04  0.86403719651E+02 0.  0.
         11    1    3    3    0    0 -0.87302860828E+02  0.86985362857E+01  0.33256555932E+03  0.34394375308E+03  0.00000000000E+00 0.  1.
        -11    1    3    3    0    0 -0.58388848278E+03  0.12892530706E+03  0.32654194835E+04  0.33197156351E+04  0.00000000000E+00 0. -1.
         22    1    1    2    0    0  0.67119134361E+03 -0.13762384334E+03  0.29233929157E+03  0.74491637342E+03  0.00000000000E+00 0.  1.
<mgrwt>
<rscale>  0 0.20738652E+04</rscale>
<asrwt>0</asrwt>
<pdfrwt beam="1">  1        2 0.63837688E+00 0.20738652E+04</pdfrwt>
<pdfrwt beam="2">  1       -2 0.39865498E-01 0.20738652E+04</pdfrwt>
<totfact> 0.14284765E+00</totfact>
</mgrwt>
</event>
<event>
 6    1  0.1603085E-006  0.3569564E+04  0.7818608E-02  0.8097499E-01
          2   -1    0    0  501    0  0.00000000000E+00  0.00000000000E+00  0.18444443452E+04  0.18444443452E+04  0.00000000000E+00 0. -1.
         -2   -1    0    0    0  501 -0.00000000000E+00 -0.00000000000E+00 -0.17270497195E+04  0.17270497195E+04  0.00000000000E+00 0.  1.
         23    2    1    2    0    0 -0.16139087404E+04  0.23354115678E+03 -0.66424453268E+03  0.17631238957E+04  0.90234018630E+02 0.  0.
         11    1    3    3    0    0 -0.79670891522E+03  0.15399670964E+03 -0.30444466541E+03  0.86668716182E+03  0.00000000000E+00 0. -1.
        -11    1    3    3    0    0 -0.81719982517E+03  0.79544447141E+02 -0.35979986727E+03  0.89643673386E+03  0.00000000000E+00 0.  1.
         22    1    1    2    0    0  0.16139087404E+04 -0.23354115678E+03  0.78163915837E+03  0.18083701690E+04  0.00000000000E+00 0. -1.
<mgrwt>
<rscale>  0 0.35695642E+04</rscale>
<asrwt>0</asrwt>
<pdfrwt beam="1">  1        2 0.28376067E+00 0.35695642E+04</pdfrwt>
<pdfrwt beam="2">  1       -2 0.26569996E+00 0.35695642E+04</pdfrwt>
<totfact> 0.34298586E-01</totfact>
</mgrwt>
</event>
<event>
 6    1  0.1603085E-006  0.4739767E+04  0.7818608E-02  0.7869954E-01
         -1   -1    0    0    0  501 -0.00000000000E+00  0.00000000000E+00  0.23338874049E+04  0.23338874049E+04  0.00000000000E+00 0.  1.
          1   -1    0    0  501    0  0.00000000000E+00 -0.00000000000E+00 -0.24064346914E+04  0.24064346914E+04  0.00000000000E+00 0. -1.
         23    2    1    2    0    0  0.11713953281E+03  0.17836862401E+04 -0.15911441677E+04  0.23948168712E+04  0.90276302709E+02 0.  0.
         11    1    3    3    0    0  0.10676459452E+03  0.13771588914E+04 -0.11826252774E+04  0.18183970517E+04  0.00000000000E+00 0. -1.
        -11    1    3    3    0    0  0.10374938288E+02  0.40652734868E+03 -0.40851889032E+03  0.57641981950E+03  0.00000000000E+00 0.  1.
         22    1    1    2    0    0 -0.11713953281E+03 -0.17836862401E+04  0.15185968813E+04  0.23455052251E+04  0.00000000000E+00 0.  1.
<mgrwt>
<rscale>  0 0.47397669E+04</rscale>
<asrwt>0</asrwt>
<pdfrwt beam="1">  1        1 0.37022072E+00 0.47397669E+04</pdfrwt>
<pdfrwt beam="2">  1       -1 0.35905960E+00 0.47397669E+04</pdfrwt>
<totfact> 0.15675703E-02</totfact>
</mgrwt>
</event>
<event>
 6    1  0.1603085E-006  0.1077344E+04  0.7818608E-02  0.9227560E-01
          2   -1    0    0  501    0  0.00000000000E+00  0.00000000000E+00  0.99553963521E+03  0.99553963521E+03  0.00000000000E+00 0. -1.
         -2   -1    0    0    0  501 -0.00000000000E+00 -0.00000000000E+00 -0.29146762663E+03  0.29146762663E+03  0.00000000000E+00 0.  1.
         23    2    1    2    0    0  0.11952812512E+03 -0.52130318099E+03  0.35698887248E+03  0.64942535921E+03  0.90929988998E+02 0.  0.
         13    1    3    3    0    0  0.46221787620E+02 -0.26750491804E+03  0.12938044311E+03  0.30072351735E+03  0.00000000000E+00 0.  1.
        -13    1    3    3    0    0  0.73306337504E+02 -0.25379826295E+03  0.22760842937E+03  0.34870184186E+03  0.00000000000E+00 0. -1.
         22    1    1    2    0    0 -0.11952812512E+03  0.52130318099E+03  0.34708313609E+03  0.63758190264E+03  0.00000000000E+00 0. -1.
<mgrwt>
<rscale>  0 0.10773441E+04</rscale>
<asrwt>0</asrwt>
<pdfrwt beam="1">  1        2 0.15315994E+00 0.10773441E+04</pdfrwt>
<pdfrwt beam="2">  1       -2 0.44841174E-01 0.10773441E+04</pdfrwt>
<totfact> 0.11883537E+02</totfact>
</mgrwt>
</event>
<event>
 6    1  0.1603085E-006  0.1275633E+04  0.7818608E-02  0.9049114E-01
         -2   -1    0    0    0  501 -0.00000000000E+00  0.00000000000E+00  0.17187667762E+03  0.17187667762E+03  0.00000000000E+00 0. -1.
          2   -1    0    0  501    0  0.00000000000E+00 -0.00000000000E+00 -0.23668719441E+04  0.23668719441E+04  0.00000000000E+00 0.  1.
         23    2    1    2    0    0 -0.16475662130E+03  0.21622252672E+02 -0.23217611321E+04  0.23297465865E+04  0.97632662677E+02 0.  0.
         13    1    3    3    0    0 -0.66471120760E+02  0.40970679401E+02 -0.14777988114E+04  0.14798602412E+04  0.00000000000E+00 0.  1.
        -13    1    3    3    0    0 -0.98285500544E+02 -0.19348426729E+02 -0.84396232070E+03  0.84988634534E+03  0.00000000000E+00 0. -1.
         22    1    1    2    0    0  0.16475662130E+03 -0.21622252672E+02  0.12676586555E+03  0.20900203526E+03  0.00000000000E+00 0. -1.
<mgrwt>
<rscale>  0 0.12756333E+04</rscale>
<asrwt>0</asrwt>
<pdfrwt beam="1">  1        2 0.36413413E+00 0.12756333E+04</pdfrwt>
<pdfrwt beam="2">  1       -2 0.26442567E-01 0.12756333E+04</pdfrwt>
<totfact> 0.53003791E+01</totfact>
</mgrwt>
</event>
<event>
 6    1  0.1603085E-006  0.1435810E+04  0.7818608E-02  0.8928298E-01
          1   -1    0    0  501    0  0.00000000000E+00  0.00000000000E+00  0.23894157409E+04  0.23894157409E+04  0.00000000000E+00 0. -1.
         -1   -1    0    0    0  501 -0.00000000000E+00 -0.00000000000E+00 -0.21569599717E+03  0.21569599717E+03  0.00000000000E+00 0.  1.
         23    2    1    2    0    0  0.54028828286E+03  0.22828664051E+03  0.34682364375E+03  0.68636850904E+03  0.82394608499E+02 0.  0.
         11    1    3    3    0    0  0.16632610890E+03  0.30717601393E+02  0.90793750107E+02  0.19196731648E+03  0.00000000000E+00 0. -1.
        -11    1    3    3    0    0  0.37396217396E+03  0.19756903912E+03  0.25602989364E+03  0.49440119256E+03  0.00000000000E+00 0.  1.
         22    1    1    2    0    0 -0.54028828286E+03 -0.22828664051E+03  0.18268960999E+04  0.19187432290E+04  0.00000000000E+00 0. -1.
<mgrwt>
<rscale>  0 0.14358098E+04</rscale>
<asrwt>0</asrwt>
<pdfrwt beam="1">  1        1 0.36760240E+00 0.14358098E+04</pdfrwt>
<pdfrwt beam="2">  1       -1 0.33184001E-01 0.14358098E+04</pdfrwt>
<totfact> 0.13442437E+01</totfact>
</mgrwt>
</event>
<event>
 6    1  0.1603085E-006  0.1095936E+04  0.7818608E-02  0.9209162E-01
          1   -1    0    0  501    0  0.00000000000E+00  0.00000000000E+00  0.53198283850E+03  0.53198283850E+03  0.00000000000E+00 0. -1.
         -1   -1    0    0    0  501 -0.00000000000E+00 -0.00000000000E+00 -0.56443301160E+03  0.56443301160E+03  0.00000000000E+00 0.  1.
         23    2    1    2    0    0 -0.18490530897E+03 -0.90271517872E+02  0.48762261649E+03  0.53711751585E+03  0.91545013473E+02 0.  0.
         11    1    3    3    0    0 -0.54845005588E+02  0.16116885262E+02  0.12106485948E+03  0.13388214530E+03  0.00000000000E+00 0.  1.
        -11    1    3    3    0    0 -0.13006030338E+03 -0.10638840313E+03  0.36655775701E+03  0.40323537055E+03  0.00000000000E+00 0. -1.
         22    1    1    2    0    0  0.18490530897E+03  0.90271517872E+02 -0.52007278959E+03  0.55929833425E+03  0.00000000000E+00 0.  1.
<mgrwt>
<rscale>  0 0.10959355E+04</rscale>
<asrwt>0</asrwt>
<pdfrwt beam="1">  1        1 0.81843514E-01 0.10959355E+04</pdfrwt>
<pdfrwt beam="2">  1       -1 0.86835848E-01 0.10959355E+04</pdfrwt>
<totfact> 0.52986691E+01</totfact>
</mgrwt>
</event>
<event>
 6    1  0.1603085E-006  0.1153139E+04  0.7818608E-02  0.9154893E-01
         -2   -1    0    0    0  501 -0.00000000000E+00  0.00000000000E+00  0.17056253799E+03  0.17056253799E+03  0.00000000000E+00 0.  1.
          2   -1    0    0  501    0  0.00000000000E+00 -0.00000000000E+00 -0.19490344382E+04  0.19490344382E+04  0.00000000000E+00 0. -1.
         23    2    1    2    0    0 -0.41045691446E+03 -0.22070357451E+03 -0.15074716312E+04  0.15804994968E+04  0.91230446146E+02 0.  0.
         11    1    3    3    0    0 -0.19354914725E+03 -0.10390287153E+03 -0.56059813948E+03  0.60210244403E+03  0.00000000000E+00 0.  1.
        -11    1    3    3    0    0 -0.21690776721E+03 -0.11680070297E+03 -0.94687349169E+03  0.97839705281E+03  0.00000000000E+00 0. -1.
         22    1    1    2    0    0  0.41045691446E+03  0.22070357451E+03 -0.27100026906E+03  0.53909747937E+03  0.00000000000E+00 0.  1.
<mgrwt>
<rscale>  0 0.11531388E+04</rscale>
<asrwt>0</asrwt>
<pdfrwt beam="1">  1        2 0.29985144E+00 0.11531388E+04</pdfrwt>
<pdfrwt beam="2">  1       -2 0.26240391E-01 0.11531388E+04</pdfrwt>
<totfact> 0.92825791E+01</totfact>
</mgrwt>
</event>
<event>
 6    1  0.1603085E-006  0.3848354E+04  0.7818608E-02  0.8035857E-01
          2   -1    0    0  501    0  0.00000000000E+00  0.00000000000E+00  0.20006691732E+04  0.20006691732E+04  0.00000000000E+00 0. -1.
         -2   -1    0    0    0  501 -0.00000000000E+00 -0.00000000000E+00 -0.18506095241E+04  0.18506095241E+04  0.00000000000E+00 0.  1.
         23    2    1    2    0    0 -0.83116804512E+03 -0.16124434877E+04 -0.56373393733E+03  0.19018388792E+04  0.91546982549E+02 0.  0.
         13    1    3    3    0    0 -0.54396766064E+03 -0.98982964777E+03 -0.38494783339E+03  0.11932511814E+04  0.00000000000E+00 0. -1.
        -13    1    3    3    0    0 -0.28720038448E+03 -0.62261383992E+03 -0.17878610394E+03  0.70858769780E+03  0.00000000000E+00 0.  1.
         22    1    1    2    0    0  0.83116804512E+03  0.16124434877E+04  0.71379358647E+03  0.19494398181E+04  0.00000000000E+00 0. -1.
<mgrwt>
<rscale>  0 0.38483542E+04</rscale>
<asrwt>0</asrwt>
<pdfrwt beam="1">  1        2 0.30779526E+00 0.38483542E+04</pdfrwt>
<pdfrwt beam="2">  1       -2 0.28470916E+00 0.38483542E+04</pdfrwt>
<totfact> 0.21015341E-01</totfact>
</mgrwt>
</event>
<event>
 6    1  0.1603085E-006  0.2452529E+04  0.7818608E-02  0.8420095E-01
         -2   -1    0    0    0  501 -0.00000000000E+00  0.00000000000E+00  0.75696410393E+03  0.75696410393E+03  0.00000000000E+00 0.  1.
          2   -1    0    0  501    0  0.00000000000E+00 -0.00000000000E+00 -0.19865201844E+04  0.19865201844E+04  0.00000000000E+00 0. -1.
         23    2    1    2    0    0  0.16670896329E+02  0.34333468687E+03 -0.19305033141E+04  0.19627899497E+04  0.86860319076E+02 0.  0.
         13    1    3    3    0    0 -0.22471795908E+02  0.27067617062E+03 -0.15191058621E+04  0.15431957722E+04  0.00000000000E+00 0. -1.
        -13    1    3    3    0    0  0.39142692237E+02  0.72658516252E+02 -0.41139745196E+03  0.41959417753E+03  0.00000000000E+00 0.  1.
         22    1    1    2    0    0 -0.16670896329E+02 -0.34333468687E+03  0.70094723363E+03  0.78069433860E+03  0.00000000000E+00 0.  1.
<mgrwt>
<rscale>  0 0.24525289E+04</rscale>
<asrwt>0</asrwt>
<pdfrwt beam="1">  1        2 0.30561849E+00 0.24525289E+04</pdfrwt>
<pdfrwt beam="2">  1       -2 0.11645602E+00 0.24525289E+04</pdfrwt>
<totfact> 0.34799977E+00</totfact>
</mgrwt>
</event>
<event>
 6    1  0.1603085E-006  0.4103248E+04  0.7818608E-02  0.7984036E-01
          2   -1    0    0  501    0  0.00000000000E+00  0.00000000000E+00  0.14639320116E+04  0.14639320116E+04  0.00000000000E+00 0. -1.
         -2   -1    0    0    0  501 -0.00000000000E+00 -0.00000000000E+00 -0.28752432324E+04  0.28752432324E+04  0.00000000000E+00 0.  1.
         23    2    1    2    0    0  0.14064120382E+04 -0.29141293972E+03 -0.22536249795E+04  0.26741200525E+04  0.95792401748E+02 0.  0.
         11    1    3    3    0    0  0.54353980702E+03 -0.82912578179E+02 -0.79516018253E+03  0.96674181316E+03  0.00000000000E+00 0.  1.
        -11    1    3    3    0    0  0.86287223119E+03 -0.20850036154E+03 -0.14584647970E+04  0.17073782393E+04  0.00000000000E+00 0. -1.
         22    1    1    2    0    0 -0.14064120382E+04  0.29141293972E+03  0.84231375877E+03  0.16650551915E+04  0.00000000000E+00 0. -1.
<mgrwt>
<rscale>  0 0.41032478E+04</rscale>
<asrwt>0</asrwt>
<pdfrwt beam="1">  1        2 0.22522031E+00 0.41032478E+04</pdfrwt>
<pdfrwt beam="2">  1       -2 0.44234511E+00 0.41032478E+04</pdfrwt>
<totfact> 0.40602168E-02</totfact>
</mgrwt>
</event>
<event>
 6    1  0.1603085E-006  0.1142586E+04  0.7818608E-02  0.9164650E-01
         -2   -1    0    0    0  501 -0.00000000000E+00  0.00000000000E+00  0.22393218554E+03  0.22393218554E+03  0.00000000000E+00 0.  1.
          2   -1    0    0  501    0  0.00000000000E+00 -0.00000000000E+00 -0.14574767745E+04  0.14574767745E+04  0.00000000000E+00 0. -1.
         23    2    1    2    0    0 -0.24379851439E+03 -0.42057744739E+03 -0.10524759740E+04  0.11626518414E+04  0.87923395485E+02 0.  0.
         11    1    3    3    0    0 -0.17532460367E+03 -0.28931852089E+03 -0.63153875739E+03  0.71643919858E+03  0.00000000000E+00 0. -1.
        -11    1    3    3    0    0 -0.68473910718E+02 -0.13125892649E+03 -0.42093721662E+03  0.44621264277E+03  0.00000000000E+00 0.  1.
         22    1    1    2    0    0  0.24379851439E+03  0.42057744739E+03 -0.18106861494E+03  0.51875711868E+03  0.00000000000E+00 0.  1.
<mgrwt>
<rscale>  0 0.11425865E+04</rscale>
<asrwt>0</asrwt>
<pdfrwt beam="1">  1        2 0.22422719E+00 0.11425865E+04</pdfrwt>
<pdfrwt beam="2">  1       -2 0.34451106E-01 0.11425865E+04</pdfrwt>
<totfact> 0.10484669E+02</totfact>
</mgrwt>
</event>
<event>
 6    1  0.1603085E-006  0.5403495E+03  0.7818608E-02  0.1003753E+00
         -2   -1    0    0    0  501 -0.00000000000E+00  0.00000000000E+00  0.23361082107E+02  0.23361082107E+02  0.00000000000E+00 0.  1.
          2   -1    0    0  501    0  0.00000000000E+00 -0.00000000000E+00 -0.31246154633E+04  0.31246154633E+04  0.00000000000E+00 0. -1.
         23    2    1    2    0    0  0.14350645317E+03 -0.19061619233E+02 -0.28703056936E+04  0.28754059239E+04  0.91361943837E+02 0.  0.
         13    1    3    3    0    0  0.10425199668E+03 -0.15001580574E+02 -0.11942132571E+04  0.11988489603E+04  0.00000000000E+00 0. -1.
        -13    1    3    3    0    0  0.39254456486E+02 -0.40600386589E+01 -0.16760924365E+04  0.16765569636E+04  0.00000000000E+00 0.  1.
         22    1    1    2    0    0 -0.14350645317E+03  0.19061619233E+02 -0.23094868752E+03  0.27257062148E+03  0.00000000000E+00 0.  1.
<mgrwt>
<rscale>  0 0.54034951E+03</rscale>
<asrwt>0</asrwt>
<pdfrwt beam="1">  1        2 0.48071018E+00 0.54034951E+03</pdfrwt>
<pdfrwt beam="2">  1       -2 0.35940118E-02 0.54034951E+03</pdfrwt>
<totfact> 0.54130906E+02</totfact>
</mgrwt>
</event>
<event>
 6    1  0.1603085E-006  0.5375626E+03  0.7818608E-02  0.1004414E+00
         -1   -1    0    0    0  501 -0.00000000000E+00  0.00000000000E+00  0.66251594840E+02  0.66251594840E+02  0.00000000000E+00 0.  1.
          1   -1    0    0  501    0  0.00000000000E+00 -0.00000000000E+00 -0.10904398053E+04  0.10904398053E+04  0.00000000000E+00 0. -1.
         23    2    1    2    0    0 -0.21245602814E+03  0.14942550800E+03 -0.58115076771E+03  0.64312765335E+03  0.91713779605E+02 0.  0.
         13    1    3    3    0    0 -0.36939563517E+02 -0.54280714104E+01 -0.47615552270E+02  0.60508149286E+02  0.00000000000E+00 0. -1.
        -13    1    3    3    0    0 -0.17551646462E+03  0.15485357941E+03 -0.53353521544E+03  0.58261950407E+03  0.00000000000E+00 0.  1.
         22    1    1    2    0    0  0.21245602814E+03 -0.14942550800E+03 -0.44303744277E+03  0.51356374680E+03  0.00000000000E+00 0.  1.
<mgrwt>
<rscale>  0 0.53756256E+03</rscale>
<asrwt>0</asrwt>
<pdfrwt beam="1">  1        1 0.16775998E+00 0.53756256E+03</pdfrwt>
<pdfrwt beam="2">  1       -1 0.10192553E-01 0.53756256E+03</pdfrwt>
<totfact> 0.80261002E+02</totfact>
</mgrwt>
</event>
<event>
 6    1  0.1603085E-006  0.2748610E+04  0.7818608E-02  0.8319403E-01
         -1   -1    0    0    0  501 -0.00000000000E+00  0.00000000000E+00  0.62891377764E+03  0.62891377764E+03  0.00000000000E+00 0.  1.
          1   -1    0    0  501    0  0.00000000000E+00 -0.00000000000E+00 -0.30031362718E+04  0.30031362718E+04  0.00000000000E+00 0. -1.
         23    2    1    2    0    0  0.45551331987E+03  0.42612538610E+03 -0.28043741803E+04  0.28743524169E+04  0.91170412577E+02 0.  0.
         13    1    3    3    0    0  0.21141790174E+03  0.24596317215E+03 -0.15805555268E+04  0.16134903732E+04  0.00000000000E+00 0. -1.
        -13    1    3    3    0    0  0.24409541814E+03  0.18016221395E+03 -0.12238186535E+04  0.12608620437E+04  0.00000000000E+00 0.  1.
         22    1    1    2    0    0 -0.45551331987E+03 -0.42612538610E+03  0.43015168614E+03  0.75769763254E+03  0.00000000000E+00 0.  1.
<mgrwt>
<rscale>  0 0.27486097E+04</rscale>
<asrwt>0</asrwt>
<pdfrwt beam="1">  1        1 0.46202097E+00 0.27486097E+04</pdfrwt>
<pdfrwt beam="2">  1       -1 0.96755966E-01 0.27486097E+04</pdfrwt>
<totfact> 0.53092019E-01</totfact>
</mgrwt>
</event>
<event>
 6    1  0.1603085E-006  0.3623628E+04  0.7818608E-02  0.8085101E-01
         -2   -1    0    0    0  501 -0.00000000000E+00  0.00000000000E+00  0.11635962146E+04  0.11635962146E+04  0.00000000000E+00 0.  1.
          2   -1    0    0  501    0  0.00000000000E+00 -0.00000000000E+00 -0.28211416119E+04  0.28211416119E+04  0.00000000000E+00 0. -1.
         23    2    1    2    0    0  0.75668473072E+03 -0.14863935530E+04 -0.16042830026E+04  0.23159734756E+04  0.89842146391E+02 0.  0.
         13    1    3    3    0    0  0.54120179186E+03 -0.97266307391E+03 -0.10545825465E+04  0.15333353130E+04  0.00000000000E+00 0.  1.
        -13    1    3    3    0    0  0.21548293886E+03 -0.51373047907E+03 -0.54970045609E+03  0.78263816255E+03  0.00000000000E+00 0. -1.
         22    1    1    2    0    0 -0.75668473072E+03  0.14863935530E+04 -0.53262394790E+02  0.16687643509E+04  0.00000000000E+00 0.  1.
<mgrwt>
<rscale>  0 0.36236279E+04</rscale>
<asrwt>0</asrwt>
<pdfrwt beam="1">  1        2 0.43402178E+00 0.36236279E+04</pdfrwt>
<pdfrwt beam="2">  1       -2 0.17901481E+00 0.36236279E+04</pdfrwt>
<totfact> 0.33626611E-01</totfact>
</mgrwt>
</event>
<event>
 6    1  0.1603085E-006  0.2064196E+04  0.7818608E-02  0.8577181E-01
          3   -1    0    0  501    0  0.00000000000E+00  0.00000000000E+00  0.80424386149E+03  0.80424386149E+03  0.00000000000E+00 0. -1.
         -3   -1    0    0    0  501 -0.00000000000E+00 -0.00000000000E+00 -0.13245064599E+04  0.13245064599E+04  0.00000000000E+00 0.  1.
         23    2    1    2    0    0 -0.71764026361E+03 -0.38563238125E+03  0.38939597058E+03  0.90760389546E+03  0.91628203813E+02 0.  0.
         11    1    3    3    0    0 -0.45137967479E+03 -0.24198614257E+03  0.29319741493E+03  0.59014034613E+03  0.00000000000E+00 0.  1.
        -11    1    3    3    0    0 -0.26626058882E+03 -0.14364623867E+03  0.96198555647E+02  0.31746354933E+03  0.00000000000E+00 0. -1.
         22    1    1    2    0    0  0.71764026361E+03  0.38563238125E+03 -0.90965856899E+03  0.12211464259E+04  0.00000000000E+00 0.  1.
<mgrwt>
<rscale>  0 0.20641959E+04</rscale>
<asrwt>0</asrwt>
<pdfrwt beam="1">  1        3 0.12372982E+00 0.20641959E+04</pdfrwt>
<pdfrwt beam="2">  1       -3 0.20377022E+00 0.20641959E+04</pdfrwt>
<totfact> 0.17586541E-01</totfact>
</mgrwt>
</event>
<event>
 6    1  0.2291494E-006  0.3409153E+04  0.7818608E-02  0.8135663E-01
         -2   -1    0    0    0  501 -0.00000000000E+00  0.00000000000E+00  0.18991007689E+04  0.18991007689E+04  0.00000000000E+00 0.  1.
          2   -1    0    0  501    0  0.00000000000E+00 -0.00000000000E+00 -0.15299776985E+04  0.15299776985E+04  0.00000000000E+00 0. -1.
         23    2    1    2    0    0 -0.54127853269E+03  0.16152907132E+04  0.20811781918E+03  0.17179182678E+04  0.76050050179E+02 0.  0.
         13    1    3    3    0    0 -0.32853996862E+03  0.10779079345E+04  0.15603053884E+03  0.11376157327E+04  0.00000000000E+00 0.  1.
        -13    1    3    3    0    0 -0.21273856407E+03  0.53738277866E+03  0.52087280342E+02  0.58030253507E+03  0.00000000000E+00 0. -1.
         22    1    1    2    0    0  0.54127853269E+03 -0.16152907132E+04  0.16100525123E+03  0.17111601997E+04  0.00000000000E+00 0. -1.
<mgrwt>
<rscale>  0 0.34091535E+04</rscale>
<asrwt>0</asrwt>
<pdfrwt beam="1">  1        2 0.23538118E+00 0.34091535E+04</pdfrwt>
<pdfrwt beam="2">  1       -2 0.29216935E+00 0.34091535E+04</pdfrwt>
<totfact> 0.35865862E-01</totfact>
</mgrwt>
</event>
<event>
 6    1  0.1603085E-006  0.3179059E+04  0.7818608E-02  0.8194370E-01
         -1   -1    0    0    0  501 -0.00000000000E+00  0.00000000000E+00  0.56977376200E+03  0.56977376200E+03  0.00000000000E+00 0.  1.
          1   -1    0    0  501    0  0.00000000000E+00 -0.00000000000E+00 -0.44343995849E+04  0.44343995849E+04  0.00000000000E+00 0. -1.
         23    2    1    2    0    0  0.32852733180E+03  0.67415130781E+03 -0.41376592880E+04  0.42060771956E+04  0.91928223317E+02 0.  0.
         11    1    3    3    0    0  0.21935032187E+03  0.53192387066E+03 -0.30657770037E+04  0.31193021983E+04  0.00000000000E+00 0.  1.
        -11    1    3    3    0    0  0.10917700994E+03  0.14222743715E+03 -0.10718822843E+04  0.10867749973E+04  0.00000000000E+00 0. -1.
         22    1    1    2    0    0 -0.32852733180E+03 -0.67415130781E+03  0.27303346514E+03  0.79809615126E+03  0.00000000000E+00 0.  1.
<mgrwt>
<rscale>  0 0.31790593E+04</rscale>
<asrwt>0</asrwt>
<pdfrwt beam="1">  1        1 0.68221533E+00 0.31790593E+04</pdfrwt>
<pdfrwt beam="2">  1       -1 0.87657501E-01 0.31790593E+04</pdfrwt>
<totfact> 0.40219023E-02</totfact>
</mgrwt>
</event>
<event>
 6    1  0.1603085E-006  0.3207659E+04  0.7818608E-02  0.8186798E-01
          2   -1    0    0  501    0  0.00000000000E+00  0.00000000000E+00  0.23199674354E+04  0.23199674354E+04  0.00000000000E+00 0. -1.
         -2   -1    0    0    0  501 -0.00000000000E+00 -0.00000000000E+00 -0.11087518941E+04  0.11087518941E+04  0.00000000000E+00 0.  1.
         23    2    1    2    0    0 -0.69271163562E+03 -0.11912315217E+04 -0.26856831767E+03  0.14066802058E+04  0.87967674223E+02 0.  0.
         11    1    3    3    0    0 -0.58472578561E+03 -0.93956708538E+03 -0.22681395000E+03  0.11296615069E+04  0.00000000000E+00 0. -1.
        -11    1    3    3    0    0 -0.10798585001E+03 -0.25166443634E+03 -0.41754367672E+02  0.27701869890E+03  0.00000000000E+00 0.  1.
         22    1    1    2    0    0  0.69271163562E+03  0.11912315217E+04  0.14797838590E+04  0.20220391237E+04  0.00000000000E+00 0.  1.
<mgrwt>
<rscale>  0 0.32076585E+04</rscale>
<asrwt>0</asrwt>
<pdfrwt beam="1">  1        2 0.35691807E+00 0.32076585E+04</pdfrwt>
<pdfrwt beam="2">  1       -2 0.17057722E+00 0.32076585E+04</pdfrwt>
<totfact> 0.78466536E-01</totfact>
</mgrwt>
</event>
<event>
 6    1  0.1603085E-006  0.1947935E+04  0.7818608E-02  0.8631357E-01
          1   -1    0    0  501    0  0.00000000000E+00  0.00000000000E+00  0.92967375129E+03  0.92967375129E+03  0.00000000000E+00 0. -1.
         -1   -1    0    0    0  501 -0.00000000000E+00 -0.00000000000E+00 -0.10203717864E+04  0.10203717864E+04  0.00000000000E+00 0.  1.
         23    2    1    2    0    0  0.71848570234E+03 -0.28200330052E+03  0.54504391079E+03  0.95008784472E+03  0.99229441327E+02 0.  0.
         13    1    3    3    0    0  0.52672043767E+02 -0.51168773369E+02  0.55253629621E+02  0.91899679809E+02  0.00000000000E+00 0. -1.
        -13    1    3    3    0    0  0.66581365857E+03 -0.23083452715E+03  0.48979028117E+03  0.85818816491E+03  0.00000000000E+00 0.  1.
         22    1    1    2    0    0 -0.71848570234E+03  0.28200330052E+03 -0.63574194592E+03  0.99995769299E+03  0.00000000000E+00 0.  1.
<mgrwt>
<rscale>  0 0.19479352E+04</rscale>
<asrwt>0</asrwt>
<pdfrwt beam="1">  1        1 0.14302673E+00 0.19479352E+04</pdfrwt>
<pdfrwt beam="2">  1       -1 0.15698027E+00 0.19479352E+04</pdfrwt>
<totfact> 0.49420056E+00</totfact>
</mgrwt>
</event>
<event>
 6    1  0.1603085E-006  0.2283096E+04  0.7818608E-02  0.8484616E-01
          1   -1    0    0  501    0  0.00000000000E+00  0.00000000000E+00  0.81597922029E+03  0.81597922029E+03  0.00000000000E+00 0. -1.
         -1   -1    0    0    0  501 -0.00000000000E+00 -0.00000000000E+00 -0.15970164163E+04  0.15970164163E+04  0.00000000000E+00 0.  1.
         23    2    1    2    0    0 -0.81947171219E+03  0.65721904118E+03 -0.85824766550E+03  0.13596997562E+04  0.93400301970E+02 0.  0.
         13    1    3    3    0    0 -0.25288765519E+03  0.15361296749E+03 -0.21938612795E+03  0.36834682443E+03  0.00000000000E+00 0. -1.
        -13    1    3    3    0    0 -0.56658405700E+03  0.50360607369E+03 -0.63886153755E+03  0.99135293173E+03  0.00000000000E+00 0.  1.
         22    1    1    2    0    0  0.81947171219E+03 -0.65721904118E+03  0.77210469470E+02  0.10532958804E+04  0.00000000000E+00 0. -1.
<mgrwt>
<rscale>  0 0.22830963E+04</rscale>
<asrwt>0</asrwt>
<pdfrwt beam="1">  1        1 0.12553527E+00 0.22830963E+04</pdfrwt>
<pdfrwt beam="2">  1       -1 0.24569483E+00 0.22830963E+04</pdfrwt>
<totfact> 0.14419194E+00</totfact>
</mgrwt>
</event>
<event>
 6    1  0.1603085E-006  0.1082087E+04  0.7818608E-02  0.9222829E-01
          2   -1    0    0  501    0  0.00000000000E+00  0.00000000000E+00  0.41107660718E+04  0.41107660718E+04  0.00000000000E+00 0. -1.
         -2   -1    0    0    0  501 -0.00000000000E+00 -0.00000000000E+00 -0.71210094451E+02  0.71210094451E+02  0.00000000000E+00 0.  1.
         23    2    1    2    0    0  0.75523254226E+02 -0.13708846965E+03  0.40202008573E+04  0.40242687437E+04  0.90702690851E+02 0.  0.
         13    1    3    3    0    0  0.44535477162E+02 -0.48486882860E+01  0.10964313701E+04  0.10973461933E+04  0.00000000000E+00 0. -1.
        -13    1    3    3    0    0  0.30987777065E+02 -0.13223978136E+03  0.29237694872E+04  0.29269225505E+04  0.00000000000E+00 0.  1.
         22    1    1    2    0    0 -0.75523254226E+02  0.13708846965E+03  0.19355120001E+02  0.15770742249E+03  0.00000000000E+00 0.  1.
<mgrwt>
<rscale>  0 0.10820869E+04</rscale>
<asrwt>0</asrwt>
<pdfrwt beam="1">  1        2 0.63242536E+00 0.10820869E+04</pdfrwt>
<pdfrwt beam="2">  1       -2 0.10955402E-01 0.10820869E+04</pdfrwt>
<totfact> 0.17229269E+01</totfact>
</mgrwt>
</event>
<event>
 6    1  0.1603085E-006  0.1053458E+04  0.7818608E-02  0.9251781E-01
         -1   -1    0    0    0  501 -0.00000000000E+00  0.00000000000E+00  0.19255906925E+03  0.19255906925E+03  0.00000000000E+00 0.  1.
          1   -1    0    0  501    0  0.00000000000E+00 -0.00000000000E+00 -0.14408217774E+04  0.14408217774E+04  0.00000000000E+00 0. -1.
         23    2    1    2    0    0  0.17676501076E+03 -0.20344616708E+03 -0.13238778086E+04  0.13534632600E+04  0.81081020827E+02 0.  0.
         11    1    3    3    0    0  0.10614854454E+03 -0.13280226434E+03 -0.63431308858E+03  0.65670164403E+03  0.00000000000E+00 0. -1.
        -11    1    3    3    0    0  0.70616466216E+02 -0.70643902741E+02 -0.68956472006E+03  0.69676161593E+03  0.00000000000E+00 0.  1.
         22    1    1    2    0    0 -0.17676501076E+03  0.20344616708E+03  0.75615100474E+02  0.27991758671E+03  0.00000000000E+00 0.  1.
<mgrwt>
<rscale>  0 0.10534577E+04</rscale>
<asrwt>0</asrwt>
<pdfrwt beam="1">  1        1 0.22166489E+00 0.10534577E+04</pdfrwt>
<pdfrwt beam="2">  1       -1 0.29624471E-01 0.10534577E+04</pdfrwt>
<totfact> 0.74961166E+01</totfact>
</mgrwt>
</event>
<event>
 6    1  0.1603085E-006  0.2086269E+04  0.7818608E-02  0.8567316E-01
          1   -1    0    0  501    0  0.00000000000E+00  0.00000000000E+00  0.28912754734E+04  0.28912754734E+04  0.00000000000E+00 0. -1.
         -1   -1    0    0    0  501 -0.00000000000E+00 -0.00000000000E+00 -0.37634945348E+03  0.37634945348E+03  0.00000000000E+00 0.  1.
         23    2    1    2    0    0 -0.24793720943E+03 -0.88511331345E+03  0.20257437087E+04  0.22263767475E+04  0.90649936321E+02 0.  0.
         13    1    3    3    0    0 -0.94601292647E+02 -0.44889300188E+03  0.10908203710E+04  0.11833610664E+04  0.00000000000E+00 0. -1.
        -13    1    3    3    0    0 -0.15333591679E+03 -0.43622031157E+03  0.93492333776E+03  0.10430156811E+04  0.00000000000E+00 0.  1.
         22    1    1    2    0    0  0.24793720943E+03  0.88511331345E+03  0.48918231121E+03  0.10412481794E+04  0.00000000000E+00 0.  1.
<mgrwt>
<rscale>  0 0.20862693E+04</rscale>
<asrwt>0</asrwt>
<pdfrwt beam="1">  1        1 0.44481160E+00 0.20862693E+04</pdfrwt>
<pdfrwt beam="2">  1       -1 0.57899918E-01 0.20862693E+04</pdfrwt>
<totfact> 0.19966489E+00</totfact>
</mgrwt>
</event>
<event>
 6    1  0.1603085E-006  0.2840404E+04  0.7818608E-02  0.8290833E-01
          2   -1    0    0  501    0  0.00000000000E+00  0.00000000000E+00  0.14307620953E+04  0.14307620953E+04  0.00000000000E+00 0. -1.
         -2   -1    0    0    0  501 -0.00000000000E+00 -0.00000000000E+00 -0.14097193670E+04  0.14097193670E+04  0.00000000000E+00 0.  1.
         23    2    1    2    0    0 -0.96323683006E+03  0.36841803261E+03 -0.96380740133E+03  0.14144776702E+04  0.90913887844E+02 0.  0.
         11    1    3    3    0    0 -0.55032023914E+03  0.16421123728E+03 -0.55276560359E+03  0.79709943455E+03  0.00000000000E+00 0. -1.
        -11    1    3    3    0    0 -0.41291659092E+03  0.20420679533E+03 -0.41104179774E+03  0.61737823561E+03  0.00000000000E+00 0.  1.
         22    1    1    2    0    0  0.96323683006E+03 -0.36841803261E+03  0.98485012959E+03  0.14260037922E+04  0.00000000000E+00 0. -1.
<mgrwt>
<rscale>  0 0.28404035E+04</rscale>
<asrwt>0</asrwt>
<pdfrwt beam="1">  1        2 0.22011725E+00 0.28404035E+04</pdfrwt>
<pdfrwt beam="2">  1       -2 0.21687990E+00 0.28404035E+04</pdfrwt>
<totfact> 0.12469045E+00</totfact>
</mgrwt>
</event>
<event>
 6    1  0.1603085E-006  0.3277792E+04  0.7818608E-02  0.8168569E-01
          2   -1    0    0  501    0  0.00000000000E+00  0.00000000000E+00  0.27390509024E+04  0.27390509024E+04  0.00000000000E+00 0. -1.
         -2   -1    0    0    0  501 -0.00000000000E+00 -0.00000000000E+00 -0.98062443392E+03  0.98062443392E+03  0.00000000000E+00 0.  1.
         23    2    1    2    0    0 -0.25678235050E+03 -0.85545101831E+03 -0.67801356205E+03  0.11246852318E+04  0.86491965002E+02 0.  0.
         11    1    3    3    0    0 -0.23270435779E+03 -0.64991309495E+03 -0.51542259768E+03  0.86150960721E+03  0.00000000000E+00 0.  1.
        -11    1    3    3    0    0 -0.24077992705E+02 -0.20553792336E+03 -0.16259096437E+03  0.26317562457E+03  0.00000000000E+00 0. -1.
         22    1    1    2    0    0  0.25678235050E+03  0.85545101831E+03  0.24364400306E+04  0.25949901046E+04  0.00000000000E+00 0. -1.
<mgrwt>
<rscale>  0 0.32777921E+04</rscale>
<asrwt>0</asrwt>
<pdfrwt beam="1">  1        2 0.42139244E+00 0.32777921E+04</pdfrwt>
<pdfrwt beam="2">  1       -2 0.15086530E+00 0.32777921E+04</pdfrwt>
<totfact> 0.62105587E-01</totfact>
</mgrwt>
</event>
<event>
 6    1  0.1603085E-006  0.1250863E+04  0.7818608E-02  0.9069465E-01
         -1   -1    0    0    0  501 -0.00000000000E+00  0.00000000000E+00  0.20025800243E+03  0.20025800243E+03  0.00000000000E+00 0.  1.
          1   -1    0    0  501    0  0.00000000000E+00 -0.00000000000E+00 -0.19533025757E+04  0.19533025757E+04  0.00000000000E+00 0. -1.
         23    2    1    2    0    0  0.36887603508E+03 -0.21784771289E+03 -0.10480986582E+03  0.45056180946E+03  0.92161168080E+02 0.  0.
         11    1    3    3    0    0  0.27910960334E+03 -0.11761370219E+03 -0.60179507241E+02  0.30879884506E+03  0.00000000000E+00 0. -1.
        -11    1    3    3    0    0  0.89766431744E+02 -0.10023401070E+03 -0.44630358578E+02  0.14176296440E+03  0.00000000000E+00 0.  1.
         22    1    1    2    0    0 -0.36887603508E+03  0.21784771289E+03 -0.16482347074E+04  0.17029987687E+04  0.00000000000E+00 0. -1.
<mgrwt>
<rscale>  0 0.12508629E+04</rscale>
<asrwt>0</asrwt>
<pdfrwt beam="1">  1        1 0.30050809E+00 0.12508629E+04</pdfrwt>
<pdfrwt beam="2">  1       -1 0.30808923E-01 0.12508629E+04</pdfrwt>
<totfact> 0.30818083E+01</totfact>
</mgrwt>
</event>
<event>
 6    1  0.1679251E-006  0.2371275E+04  0.7818608E-02  0.8450337E-01
         -2   -1    0    0    0  501 -0.00000000000E+00  0.00000000000E+00  0.84935509248E+03  0.84935509248E+03  0.00000000000E+00 0.  1.
          2   -1    0    0  501    0  0.00000000000E+00 -0.00000000000E+00 -0.16550631859E+04  0.16550631859E+04  0.00000000000E+00 0. -1.
         23    2    1    2    0    0 -0.60819220713E+03 -0.57138530143E+03 -0.12906015888E+04  0.15392754779E+04  0.85659863915E+02 0.  0.
         13    1    3    3    0    0 -0.20340005053E+03 -0.20263430330E+03 -0.51903680230E+03  0.59315381106E+03  0.00000000000E+00 0.  1.
        -13    1    3    3    0    0 -0.40479215660E+03 -0.36875099813E+03 -0.77156478654E+03  0.94612166686E+03  0.00000000000E+00 0. -1.
         22    1    1    2    0    0  0.60819220713E+03  0.57138530143E+03  0.48489349538E+03  0.96514280050E+03  0.00000000000E+00 0.  1.
<mgrwt>
<rscale>  0 0.23712751E+04</rscale>
<asrwt>0</asrwt>
<pdfrwt beam="1">  1        2 0.25462511E+00 0.23712751E+04</pdfrwt>
<pdfrwt beam="2">  1       -2 0.13067001E+00 0.23712751E+04</pdfrwt>
<totfact> 0.40147786E+00</totfact>
</mgrwt>
</event>
<event>
 6    1  0.1603085E-006  0.3394562E+04  0.7818608E-02  0.8139242E-01
          2   -1    0    0  501    0  0.00000000000E+00  0.00000000000E+00  0.24143107573E+04  0.24143107573E+04  0.00000000000E+00 0.  1.
         -2   -1    0    0    0  501 -0.00000000000E+00 -0.00000000000E+00 -0.11932029064E+04  0.11932029064E+04  0.00000000000E+00 0. -1.
         23    2    1    2    0    0 -0.86809681581E+03 -0.71116632684E+03 -0.74052575695E+03  0.13475676384E+04  0.90611905321E+02 0.  0.
         11    1    3    3    0    0 -0.59587999060E+03 -0.43514623739E+03 -0.50105055597E+03  0.89189510076E+03  0.00000000000E+00 0. -1.
        -11    1    3    3    0    0 -0.27221682522E+03 -0.27602008944E+03 -0.23947520097E+03  0.45567253767E+03  0.00000000000E+00 0.  1.
         22    1    1    2    0    0  0.86809681581E+03  0.71116632684E+03  0.19616336078E+04  0.22599460253E+04  0.00000000000E+00 0.  1.
<mgrwt>
<rscale>  0 0.33945619E+04</rscale>
<asrwt>0</asrwt>
<pdfrwt beam="1">  1        2 0.37143242E+00 0.33945619E+04</pdfrwt>
<pdfrwt beam="2">  1       -2 0.18356968E+00 0.33945619E+04</pdfrwt>
<totfact> 0.55399563E-01</totfact>
</mgrwt>
</event>
<event>
 6    1  0.1603085E-006  0.2343247E+04  0.7818608E-02  0.8461062E-01
          2   -1    0    0  501    0  0.00000000000E+00  0.00000000000E+00  0.16940658675E+04  0.16940658675E+04  0.00000000000E+00 0. -1.
         -2   -1    0    0    0  501 -0.00000000000E+00 -0.00000000000E+00 -0.81030003217E+03  0.81030003217E+03  0.00000000000E+00 0.  1.
         23    2    1    2    0    0  0.92694500312E+03 -0.70786933731E+03  0.34513525034E+03  0.12196756862E+04  0.90467679003E+02 0.  0.
         13    1    3    3    0    0  0.63838593467E+03 -0.43368708414E+03  0.23031371472E+03  0.80539772517E+03  0.00000000000E+00 0. -1.
        -13    1    3    3    0    0  0.28855906845E+03 -0.27418225317E+03  0.11482153562E+03  0.41427796102E+03  0.00000000000E+00 0.  1.
         22    1    1    2    0    0 -0.92694500312E+03  0.70786933731E+03  0.53863058500E+03  0.12846902135E+04  0.00000000000E+00 0. -1.
<mgrwt>
<rscale>  0 0.23432470E+04</rscale>
<asrwt>0</asrwt>
<pdfrwt beam="1">  1        2 0.26062552E+00 0.23432470E+04</pdfrwt>
<pdfrwt beam="2">  1       -2 0.12466154E+00 0.23432470E+04</pdfrwt>
<totfact> 0.43103087E+00</totfact>
</mgrwt>
</event>
<event>
 6    1  0.1603085E-006  0.1955751E+04  0.7818608E-02  0.8627592E-01
         -2   -1    0    0    0  501 -0.00000000000E+00  0.00000000000E+00  0.62377840245E+03  0.62377840245E+03  0.00000000000E+00 0.  1.
          2   -1    0    0  501    0  0.00000000000E+00 -0.00000000000E+00 -0.15329814159E+04  0.15329814159E+04  0.00000000000E+00 0. -1.
         23    2    1    2    0    0 -0.58107258760E+03 -0.76990310823E+03 -0.61777815309E+03  0.11491266523E+04  0.91902494203E+02 0.  0.
         13    1    3    3    0    0 -0.27526677446E+03 -0.42638665820E+03 -0.29207965374E+03  0.58556631012E+03  0.00000000000E+00 0. -1.
        -13    1    3    3    0    0 -0.30580581314E+03 -0.34351645003E+03 -0.32569849935E+03  0.56356034217E+03  0.00000000000E+00 0.  1.
         22    1    1    2    0    0  0.58107258760E+03  0.76990310823E+03 -0.29142486038E+03  0.10076331661E+04  0.00000000000E+00 0. -1.
<mgrwt>
<rscale>  0 0.19557512E+04</rscale>
<asrwt>0</asrwt>
<pdfrwt beam="1">  1        2 0.23584330E+00 0.19557512E+04</pdfrwt>
<pdfrwt beam="2">  1       -2 0.95965908E-01 0.19557512E+04</pdfrwt>
<totfact> 0.10321457E+01</totfact>
</mgrwt>
</event>
<event>
 6    1  0.1603085E-006  0.5759533E+04  0.7818608E-02  0.7720953E-01
          1   -1    0    0  501    0  0.00000000000E+00  0.00000000000E+00  0.29949379379E+04  0.29949379379E+04  0.00000000000E+00 0. -1.
         -1   -1    0    0    0  501 -0.00000000000E+00 -0.00000000000E+00 -0.27690244458E+04  0.27690244458E+04  0.00000000000E+00 0.  1.
         23    2    1    2    0    0 -0.12183957561E+04 -0.14146416857E+04  0.23062823271E+04  0.29686745976E+04  0.91604455648E+02 0.  0.
         11    1    3    3    0    0 -0.61639900034E+03 -0.78380077953E+03  0.12471712785E+04  0.15967866443E+04  0.00000000000E+00 0.  1.
        -11    1    3    3    0    0 -0.60199675577E+03 -0.63084090618E+03  0.10591110487E+04  0.13718879533E+04  0.00000000000E+00 0. -1.
         22    1    1    2    0    0  0.12183957561E+04  0.14146416857E+04 -0.20803688351E+04  0.27952877861E+04  0.00000000000E+00 0.  1.
<mgrwt>
<rscale>  0 0.57595334E+04</rscale>
<asrwt>0</asrwt>
<pdfrwt beam="1">  1        1 0.46075968E+00 0.57595334E+04</pdfrwt>
<pdfrwt beam="2">  1       -1 0.42600376E+00 0.57595334E+04</pdfrwt>
<totfact> 0.19475386E-03</totfact>
</mgrwt>
</event>
<event>
 6    1  0.1603085E-006  0.3099055E+04  0.7818608E-02  0.8215997E-01
         -2   -1    0    0    0  501 -0.00000000000E+00  0.00000000000E+00  0.61308478908E+03  0.61308478908E+03  0.00000000000E+00 0.  1.
          2   -1    0    0  501    0  0.00000000000E+00 -0.00000000000E+00 -0.39163193824E+04  0.39163193824E+04  0.00000000000E+00 0. -1.
         23    2    1    2    0    0  0.36283068150E+03  0.80805709937E+03  0.20273184034E+03  0.91327322623E+03  0.91462600954E+02 0.  0.
         13    1    3    3    0    0  0.14936067171E+03  0.30586273649E+03  0.33883352790E+02  0.34206535256E+03  0.00000000000E+00 0. -1.
        -13    1    3    3    0    0  0.21347000979E+03  0.50219436288E+03  0.16884848755E+03  0.57120787366E+03  0.00000000000E+00 0.  1.
         22    1    1    2    0    0 -0.36283068150E+03 -0.80805709937E+03 -0.35059664337E+04  0.36161309453E+04  0.00000000000E+00 0. -1.
<mgrwt>
<rscale>  0 0.30990552E+04</rscale>
<asrwt>0</asrwt>
<pdfrwt beam="1">  1        2 0.60251067E+00 0.30990552E+04</pdfrwt>
<pdfrwt beam="2">  1       -2 0.94320737E-01 0.30990552E+04</pdfrwt>
<totfact> 0.32079809E-01</totfact>
</mgrwt>
</event>
<event>
 6    1  0.1603085E-006  0.1237993E+04  0.7818608E-02  0.9080237E-01
          2   -1    0    0  501    0  0.00000000000E+00  0.00000000000E+00  0.18371402387E+04  0.18371402387E+04  0.00000000000E+00 0. -1.
         -2   -1    0    0    0  501 -0.00000000000E+00 -0.00000000000E+00 -0.20856133789E+03  0.20856133789E+03  0.00000000000E+00 0.  1.
         23    2    1    2    0    0  0.29391298989E+03 -0.43155527494E+03  0.27948865804E+03  0.59909545048E+03  0.90424818839E+02 0.  0.
         11    1    3    3    0    0  0.19559948013E+03 -0.31313564806E+03  0.23946783167E+03  0.44006582817E+03  0.00000000000E+00 0. -1.
        -11    1    3    3    0    0  0.98313509754E+02 -0.11841962688E+03  0.40020826370E+02  0.15902962232E+03  0.00000000000E+00 0.  1.
         22    1    1    2    0    0 -0.29391298989E+03  0.43155527494E+03  0.13490902428E+04  0.14466061261E+04  0.00000000000E+00 0. -1.
<mgrwt>
<rscale>  0 0.12379926E+04</rscale>
<asrwt>0</asrwt>
<pdfrwt beam="1">  1        2 0.28263695E+00 0.12379926E+04</pdfrwt>
<pdfrwt beam="2">  1       -2 0.32086361E-01 0.12379926E+04</pdfrwt>
<totfact> 0.73224716E+01</totfact>
</mgrwt>
</event>
<event>
 6    1  0.1603085E-006  0.2324456E+04  0.7818608E-02  0.8468340E-01
         -1   -1    0    0    0  501 -0.00000000000E+00  0.00000000000E+00  0.12817888825E+04  0.12817888825E+04  0.00000000000E+00 0.  1.
          1   -1    0    0  501    0  0.00000000000E+00 -0.00000000000E+00 -0.10538197602E+04  0.10538197602E+04  0.00000000000E+00 0. -1.
         23    2    1    2    0    0 -0.11448982437E+04 -0.16359829155E+03  0.20992239287E+03  0.11789401190E+04  0.90972543010E+02 0.  0.
         13    1    3    3    0    0 -0.57696311868E+02 -0.17010027821E+02 -0.73267590947E+01  0.60596095984E+02  0.00000000000E+00 0. -1.
        -13    1    3    3    0    0 -0.10872019319E+04 -0.14658826373E+03  0.21724915196E+03  0.11183440230E+04  0.00000000000E+00 0.  1.
         22    1    1    2    0    0  0.11448982437E+04  0.16359829155E+03  0.18046729423E+02  0.11566685238E+04  0.00000000000E+00 0. -1.
<mgrwt>
<rscale>  0 0.23244565E+04</rscale>
<asrwt>0</asrwt>
<pdfrwt beam="1">  1        1 0.16212612E+00 0.23244565E+04</pdfrwt>
<pdfrwt beam="2">  1       -1 0.19719829E+00 0.23244565E+04</pdfrwt>
<totfact> 0.19512898E+00</totfact>
</mgrwt>
</event>
<event>
 6    1  0.1603085E-006  0.1342624E+04  0.7818608E-02  0.8996430E-01
          2   -1    0    0  501    0  0.00000000000E+00  0.00000000000E+00  0.42250396665E+03  0.42250396665E+03  0.00000000000E+00 0. -1.
         -2   -1    0    0    0  501 -0.00000000000E+00 -0.00000000000E+00 -0.10666410431E+04  0.10666410431E+04  0.00000000000E+00 0.  1.
         23    2    1    2    0    0  0.36092591695E+03 -0.31151957600E+03  0.19452965840E+03  0.52443061891E+03  0.99366605537E+02 0.  0.
         13    1    3    3    0    0  0.26470172890E+03 -0.24423006790E+03  0.18934308063E+03  0.40689818570E+03  0.00000000000E+00 0. -1.
        -13    1    3    3    0    0  0.96224188049E+02 -0.67289508099E+02  0.51865777750E+01  0.11753243320E+03  0.00000000000E+00 0.  1.
         22    1    1    2    0    0 -0.36092591695E+03  0.31151957600E+03 -0.83866673484E+03  0.96471439083E+03  0.00000000000E+00 0.  1.
<mgrwt>
<rscale>  0 0.13426244E+04</rscale>
<asrwt>0</asrwt>
<pdfrwt beam="1">  1        2 0.65000611E-01 0.13426244E+04</pdfrwt>
<pdfrwt beam="2">  1       -2 0.16409862E+00 0.13426244E+04</pdfrwt>
<totfact> 0.17146992E+01</totfact>
</mgrwt>
</event>
<event>
 6    1  0.1603085E-006  0.1520431E+04  0.7818608E-02  0.8870979E-01
         -1   -1    0    0    0  501 -0.00000000000E+00  0.00000000000E+00  0.17469746218E+03  0.17469746218E+03  0.00000000000E+00 0.  1.
          1   -1    0    0  501    0  0.00000000000E+00 -0.00000000000E+00 -0.33081614666E+04  0.33081614666E+04  0.00000000000E+00 0. -1.
         23    2    1    2    0    0 -0.70012270503E+03  0.26652099103E+03 -0.13151210341E+04  0.15162434609E+04  0.90805603574E+02 0.  0.
         11    1    3    3    0    0 -0.24263332630E+03  0.87087819092E+02 -0.54161580783E+03  0.59983572965E+03  0.00000000000E+00 0.  1.
        -11    1    3    3    0    0 -0.45748937873E+03  0.17943317194E+03 -0.77350522622E+03  0.91640773122E+03  0.00000000000E+00 0. -1.
         22    1    1    2    0    0  0.70012270503E+03 -0.26652099103E+03 -0.18183429704E+04  0.19666154679E+04  0.00000000000E+00 0.  1.
<mgrwt>
<rscale>  0 0.15204307E+04</rscale>
<asrwt>0</asrwt>
<pdfrwt beam="1">  1        1 0.50894789E+00 0.15204307E+04</pdfrwt>
<pdfrwt beam="2">  1       -1 0.26876534E-01 0.15204307E+04</pdfrwt>
<totfact> 0.42409973E+00</totfact>
</mgrwt>
</event>
<event>
 6    1  0.2447360E-006  0.4508766E+04  0.7818608E-02  0.7909104E-01
          2   -1    0    0  501    0  0.00000000000E+00  0.00000000000E+00  0.28309187419E+04  0.28309187419E+04  0.00000000000E+00 0. -1.
         -2   -1    0    0    0  501 -0.00000000000E+00 -0.00000000000E+00 -0.17952629742E+04  0.17952629742E+04  0.00000000000E+00 0.  1.
         23    2    1    2    0    0 -0.15970065877E+04 -0.12675206889E+04 -0.46672316721E+03  0.20935583328E+04  0.90095729091E+02 0.  0.
         11    1    3    3    0    0 -0.96150696675E+03 -0.76572109388E+03 -0.32645042752E+03  0.12717681874E+04  0.00000000000E+00 0.  1.
        -11    1    3    3    0    0 -0.63549962091E+03 -0.50179959497E+03 -0.14027273969E+03  0.82179014547E+03  0.00000000000E+00 0. -1.
         22    1    1    2    0    0  0.15970065877E+04  0.12675206889E+04  0.15023789349E+04  0.25326233833E+04  0.00000000000E+00 0. -1.
<mgrwt>
<rscale>  0 0.45087664E+04</rscale>
<asrwt>0</asrwt>
<pdfrwt beam="1">  1        2 0.43552596E+00 0.45087664E+04</pdfrwt>
<pdfrwt beam="2">  1       -2 0.27619430E+00 0.45087664E+04</pdfrwt>
<totfact> 0.74473929E-02</totfact>
</mgrwt>
</event>
<event>
 6    1  0.1603085E-006  0.2875034E+04  0.7818608E-02  0.8280345E-01
         -1   -1    0    0    0  501 -0.00000000000E+00  0.00000000000E+00  0.10913714285E+04  0.10913714285E+04  0.00000000000E+00 0.  1.
          1   -1    0    0  501    0  0.00000000000E+00 -0.00000000000E+00 -0.18934479396E+04  0.18934479396E+04  0.00000000000E+00 0. -1.
         23    2    1    2    0    0  0.11368072389E+04  0.36695083320E+03  0.42589788627E+03  0.12716630024E+04  0.93563720900E+02 0.  0.
         13    1    3    3    0    0  0.76440796904E+03  0.27022818442E+03  0.24860996351E+03  0.84802696227E+03  0.00000000000E+00 0. -1.
        -13    1    3    3    0    0  0.37239926985E+03  0.96722648781E+02  0.17728792276E+03  0.42363604017E+03  0.00000000000E+00 0.  1.
         22    1    1    2    0    0 -0.11368072389E+04 -0.36695083320E+03 -0.12279743974E+04  0.17131563656E+04  0.00000000000E+00 0. -1.
<mgrwt>
<rscale>  0 0.28750339E+04</rscale>
<asrwt>0</asrwt>
<pdfrwt beam="1">  1        1 0.29129968E+00 0.28750339E+04</pdfrwt>
<pdfrwt beam="2">  1       -1 0.16790330E+00 0.28750339E+04</pdfrwt>
<totfact> 0.77206449E-01</totfact>
</mgrwt>
</event>
<event>
 6    1  0.1603085E-006  0.1044958E+04  0.7818608E-02  0.9260566E-01
         -1   -1    0    0    0  501 -0.00000000000E+00  0.00000000000E+00  0.16673021188E+03  0.16673021188E+03  0.00000000000E+00 0.  1.
          1   -1    0    0  501    0  0.00000000000E+00 -0.00000000000E+00 -0.16372801043E+04  0.16372801043E+04  0.00000000000E+00 0. -1.
         23    2    1    2    0    0 -0.10561172856E+03  0.33288846397E+03 -0.79508511736E+02  0.36979809708E+03  0.91980772522E+02 0.  0.
         13    1    3    3    0    0 -0.45161056230E+02  0.68731176368E+02  0.13405351088E+02  0.83325860587E+02  0.00000000000E+00 0. -1.
        -13    1    3    3    0    0 -0.60450672333E+02  0.26415728760E+03 -0.92913862823E+02  0.28647223650E+03  0.00000000000E+00 0.  1.
         22    1    1    2    0    0  0.10561172856E+03 -0.33288846397E+03 -0.13910413807E+04  0.14342122191E+04  0.00000000000E+00 0. -1.
<mgrwt>
<rscale>  0 0.10449575E+04</rscale>
<asrwt>0</asrwt>
<pdfrwt beam="1">  1        1 0.25188923E+00 0.10449575E+04</pdfrwt>
<pdfrwt beam="2">  1       -1 0.25650804E-01 0.10449575E+04</pdfrwt>
<totfact> 0.70539105E+01</totfact>
</mgrwt>
</event>
<event>
 6    1  0.1603085E-006  0.2419347E+04  0.7818608E-02  0.8432296E-01
          1   -1    0    0  501    0  0.00000000000E+00  0.00000000000E+00  0.42519433081E+04  0.42519433081E+04  0.00000000000E+00 0. -1.
         -1   -1    0    0    0  501 -0.00000000000E+00 -0.00000000000E+00 -0.34415076621E+03  0.34415076621E+03  0.00000000000E+00 0.  1.
         23    2    1    2    0    0 -0.38561007896E+03 -0.11068777151E+04  0.25100319792E+04  0.27719208370E+04  0.97011239953E+02 0.  0.
         11    1    3    3    0    0 -0.24322478305E+03 -0.77301360607E+03  0.16429560087E+04  0.18319423508E+04  0.00000000000E+00 0.  1.
        -11    1    3    3    0    0 -0.14238529591E+03 -0.33386410903E+03  0.86707597052E+03  0.93997848616E+03  0.00000000000E+00 0. -1.
         22    1    1    2    0    0  0.38561007896E+03  0.11068777151E+04  0.13977605627E+04  0.18241732373E+04  0.00000000000E+00 0. -1.
<mgrwt>
<rscale>  0 0.24193466E+04</rscale>
<asrwt>0</asrwt>
<pdfrwt beam="1">  1        1 0.65414509E+00 0.24193466E+04</pdfrwt>
<pdfrwt beam="2">  1       -1 0.52946275E-01 0.24193466E+04</pdfrwt>
<totfact> 0.18275190E-01</totfact>
</mgrwt>
</event>
<event>
 6    1  0.1603085E-006  0.2034979E+04  0.7818608E-02  0.8590439E-01
         -1   -1    0    0    0  501 -0.00000000000E+00  0.00000000000E+00  0.16602125376E+04  0.16602125376E+04  0.00000000000E+00 0.  1.
          1   -1    0    0  501    0  0.00000000000E+00 -0.00000000000E+00 -0.62358547471E+03  0.62358547471E+03  0.00000000000E+00 0. -1.
         23    2    1    2    0    0  0.82917766016E+03  0.10761482745E+03  0.11659766069E+04  0.14377200917E+04  0.91766393587E+02 0.  0.
         11    1    3    3    0    0  0.13317630160E+03  0.17859037751E+02  0.24996958585E+03  0.28379511339E+03  0.00000000000E+00 0.  1.
        -11    1    3    3    0    0  0.69600135856E+03  0.89755789703E+02  0.91600702107E+03  0.11539249783E+04  0.00000000000E+00 0. -1.
         22    1    1    2    0    0 -0.82917766016E+03 -0.10761482745E+03 -0.12934954403E+03  0.84607792060E+03  0.00000000000E+00 0. -1.
<mgrwt>
<rscale>  0 0.20349785E+04</rscale>
<asrwt>0</asrwt>
<pdfrwt beam="1">  1        1 0.95936227E-01 0.20349785E+04</pdfrwt>
<pdfrwt beam="2">  1       -1 0.25541731E+00 0.20349785E+04</pdfrwt>
<totfact> 0.19245620E+00</totfact>
</mgrwt>
</event>
<event>
 6    1  0.1603085E-006  0.1380381E+04  0.7818608E-02  0.8968143E-01
         -1   -1    0    0    0  501 -0.00000000000E+00  0.00000000000E+00  0.60628862536E+03  0.60628862536E+03  0.00000000000E+00 0.  1.
          1   -1    0    0  501    0  0.00000000000E+00 -0.00000000000E+00 -0.78570370119E+03  0.78570370119E+03  0.00000000000E+00 0. -1.
         23    2    1    2    0    0  0.18618378478E+03 -0.65702678956E+03 -0.13018394030E+02  0.68911505446E+03  0.91441105532E+02 0.  0.
         11    1    3    3    0    0  0.17814653090E+03 -0.48350440978E+03 -0.86650291929E+01  0.51535209661E+03  0.00000000000E+00 0.  1.
        -11    1    3    3    0    0  0.80372538805E+01 -0.17352237978E+03 -0.43533648372E+01  0.17376295785E+03  0.00000000000E+00 0. -1.
         22    1    1    2    0    0 -0.18618378478E+03  0.65702678956E+03 -0.16639668181E+03  0.70287727210E+03  0.00000000000E+00 0. -1.
<mgrwt>
<rscale>  0 0.13803814E+04</rscale>
<asrwt>0</asrwt>
<pdfrwt beam="1">  1        1 0.12087749E+00 0.13803814E+04</pdfrwt>
<pdfrwt beam="2">  1       -1 0.93275173E-01 0.13803814E+04</pdfrwt>
<totfact> 0.24805259E+01</totfact>
</mgrwt>
</event>
<event>
 6    1  0.1603085E-006  0.3971584E+04  0.7818608E-02  0.8010304E-01
         -2   -1    0    0    0  501 -0.00000000000E+00  0.00000000000E+00  0.16305391864E+04  0.16305391864E+04  0.00000000000E+00 0.  1.
          2   -1    0    0  501    0  0.00000000000E+00 -0.00000000000E+00 -0.24184447764E+04  0.24184447764E+04  0.00000000000E+00 0. -1.
         23    2    1    2    0    0 -0.13846525316E+04  0.10130279995E+04  0.62305977013E+03  0.18276529185E+04  0.92862005635E+02 0.  0.
         13    1    3    3    0    0 -0.56474834475E+03  0.46280660161E+03  0.24104477903E+03  0.76891691936E+03  0.00000000000E+00 0. -1.
        -13    1    3    3    0    0 -0.81990418686E+03  0.55022139794E+03  0.38201499110E+03  0.10587359991E+04  0.00000000000E+00 0.  1.
         22    1    1    2    0    0  0.13846525316E+04 -0.10130279995E+04 -0.14109653601E+04  0.22213310444E+04  0.00000000000E+00 0. -1.
<mgrwt>
<rscale>  0 0.39715836E+04</rscale>
<asrwt>0</asrwt>
<pdfrwt beam="1">  1        2 0.37206843E+00 0.39715836E+04</pdfrwt>
<pdfrwt beam="2">  1       -2 0.25085218E+00 0.39715836E+04</pdfrwt>
<totfact> 0.19477534E-01</totfact>
</mgrwt>
</event>
<event>
 6    1  0.1603085E-006  0.2220332E+04  0.7818608E-02  0.8510013E-01
          1   -1    0    0  501    0  0.00000000000E+00  0.00000000000E+00  0.89481061607E+03  0.89481061607E+03  0.00000000000E+00 0. -1.
         -1   -1    0    0    0  501 -0.00000000000E+00 -0.00000000000E+00 -0.13773510679E+04  0.13773510679E+04  0.00000000000E+00 0.  1.
         23    2    1    2    0    0  0.25151838626E+03  0.88586985109E+03 -0.87276952041E+03  0.12720088867E+04  0.90846466637E+02 0.  0.
         13    1    3    3    0    0  0.11916343353E+03  0.40282609483E+03 -0.46035611407E+03  0.62321468077E+03  0.00000000000E+00 0. -1.
        -13    1    3    3    0    0  0.13235495273E+03  0.48304375626E+03 -0.41241340633E+03  0.64879420597E+03  0.00000000000E+00 0.  1.
         22    1    1    2    0    0 -0.25151838626E+03 -0.88586985109E+03  0.39022906863E+03  0.10001527972E+04  0.00000000000E+00 0. -1.
<mgrwt>
<rscale>  0 0.22203318E+04</rscale>
<asrwt>0</asrwt>
<pdfrwt beam="1">  1        1 0.13766317E+00 0.22203318E+04</pdfrwt>
<pdfrwt beam="2">  1       -1 0.21190016E+00 0.22203318E+04</pdfrwt>
<totfact> 0.20870151E+00</totfact>
</mgrwt>
</event>
<event>
 6    1  0.1603085E-006  0.3669861E+04  0.7818608E-02  0.8074674E-01
          1   -1    0    0  501    0  0.00000000000E+00  0.00000000000E+00  0.10005956248E+04  0.10005956248E+04  0.00000000000E+00 0. -1.
         -1   -1    0    0    0  501 -0.00000000000E+00 -0.00000000000E+00 -0.33649661550E+04  0.33649661550E+04  0.00000000000E+00 0.  1.
         23    2    1    2    0    0 -0.17020961934E+04 -0.30099518549E+02 -0.37202632594E+03  0.17449754215E+04  0.92185691955E+02 0.  0.
         13    1    3    3    0    0 -0.12057442175E+04 -0.63175725635E+02 -0.26145774793E+03  0.12353827117E+04  0.00000000000E+00 0. -1.
        -13    1    3    3    0    0 -0.49635197596E+03  0.33076207087E+02 -0.11056857800E+03  0.50959270987E+03  0.00000000000E+00 0.  1.
         22    1    1    2    0    0  0.17020961934E+04  0.30099518549E+02 -0.19923442043E+04  0.26205863583E+04  0.00000000000E+00 0.  1.
<mgrwt>
<rscale>  0 0.36698613E+04</rscale>
<asrwt>0</asrwt>
<pdfrwt beam="1">  1        1 0.15393779E+00 0.36698613E+04</pdfrwt>
<pdfrwt beam="2">  1       -1 0.51768711E+00 0.36698613E+04</pdfrwt>
<totfact> 0.14003903E-02</totfact>
</mgrwt>
</event>
<event>
 6    1  0.1603085E-006  0.2578814E+04  0.7818608E-02  0.8375433E-01
         -1   -1    0    0    0  501 -0.00000000000E+00  0.00000000000E+00  0.93033354222E+03  0.93033354222E+03  0.00000000000E+00 0.  1.
          1   -1    0    0  501    0  0.00000000000E+00 -0.00000000000E+00 -0.17870691633E+04  0.17870691633E+04  0.00000000000E+00 0. -1.
         23    2    1    2    0    0 -0.27975871349E+03  0.20510504335E+03 -0.17357053633E+04  0.17724578266E+04  0.92739540259E+02 0.  0.
         11    1    3    3    0    0 -0.14117922880E+03  0.12825471482E+03 -0.73815540257E+03  0.76240031798E+03  0.00000000000E+00 0. -1.
        -11    1    3    3    0    0 -0.13857948469E+03  0.76850328530E+02 -0.99754996073E+03  0.10100575086E+04  0.00000000000E+00 0.  1.
         22    1    1    2    0    0  0.27975871349E+03 -0.20510504335E+03  0.87896974218E+03  0.94494487895E+03  0.00000000000E+00 0.  1.
<mgrwt>
<rscale>  0 0.25788140E+04</rscale>
<asrwt>0</asrwt>
<pdfrwt beam="1">  1        1 0.27493371E+00 0.25788140E+04</pdfrwt>
<pdfrwt beam="2">  1       -1 0.14312824E+00 0.25788140E+04</pdfrwt>
<totfact> 0.14506581E+00</totfact>
</mgrwt>
</event>
<event>
 6    1  0.1603085E-006  0.2739423E+04  0.7818608E-02  0.8322326E-01
          2   -1    0    0  501    0  0.00000000000E+00  0.00000000000E+00  0.34466758863E+04  0.34466758863E+04  0.00000000000E+00 0. -1.
         -2   -1    0    0    0  501 -0.00000000000E+00 -0.00000000000E+00 -0.54432433486E+03  0.54432433486E+03  0.00000000000E+00 0.  1.
         23    2    1    2    0    0 -0.10021444877E+04  0.90473558100E+03  0.11303073475E+04  0.17632253882E+04  0.92352714152E+02 0.  0.
         13    1    3    3    0    0 -0.35521822029E+03  0.36042287493E+03  0.37983703257E+03  0.63274070843E+03  0.00000000000E+00 0.  1.
        -13    1    3    3    0    0 -0.64692626744E+03  0.54431270607E+03  0.75047031495E+03  0.11304846797E+04  0.00000000000E+00 0. -1.
         22    1    1    2    0    0  0.10021444877E+04 -0.90473558100E+03  0.17720442039E+04  0.22277748330E+04  0.00000000000E+00 0. -1.
<mgrwt>
<rscale>  0 0.27394230E+04</rscale>
<asrwt>0</asrwt>
<pdfrwt beam="1">  1        2 0.53025781E+00 0.27394230E+04</pdfrwt>
<pdfrwt beam="2">  1       -2 0.83742208E-01 0.27394230E+04</pdfrwt>
<totfact> 0.96520675E-01</totfact>
</mgrwt>
</event>
<event>
 6    1  0.1603085E-006  0.2040789E+04  0.7818608E-02  0.8587784E-01
         -2   -1    0    0    0  501 -0.00000000000E+00  0.00000000000E+00  0.13468185985E+04  0.13468185985E+04  0.00000000000E+00 0.  1.
          2   -1    0    0  501    0  0.00000000000E+00 -0.00000000000E+00 -0.77308485585E+03  0.77308485585E+03  0.00000000000E+00 0. -1.
         23    2    1    2    0    0  0.39050485957E+03  0.63570377231E+03  0.10074059941E+04  0.12569521502E+04  0.91915937110E+02 0.  0.
         11    1    3    3    0    0  0.15546965956E+03  0.22835864483E+03  0.30356435436E+03  0.41045073146E+03  0.00000000000E+00 0.  1.
        -11    1    3    3    0    0  0.23503520001E+03  0.40734512748E+03  0.70384163978E+03  0.84650141879E+03  0.00000000000E+00 0. -1.
         22    1    1    2    0    0 -0.39050485957E+03 -0.63570377231E+03 -0.43367225151E+03  0.86295130408E+03  0.00000000000E+00 0. -1.
<mgrwt>
<rscale>  0 0.20407891E+04</rscale>
<asrwt>0</asrwt>
<pdfrwt beam="1">  1        2 0.11893613E+00 0.20407891E+04</pdfrwt>
<pdfrwt beam="2">  1       -2 0.20720286E+00 0.20407891E+04</pdfrwt>
<totfact> 0.39819238E+00</totfact>
</mgrwt>
</event>
<event>
 6    1  0.1603085E-006  0.7718191E+03  0.7818608E-02  0.9601728E-01
          2   -1    0    0  501    0  0.00000000000E+00  0.00000000000E+00  0.11759748081E+03  0.11759748081E+03  0.00000000000E+00 0. -1.
         -2   -1    0    0    0  501 -0.00000000000E+00 -0.00000000000E+00 -0.12664062635E+04  0.12664062635E+04  0.00000000000E+00 0.  1.
         23    2    1    2    0    0  0.41437795563E+02 -0.22719161970E+03 -0.39505962121E+02  0.25091686738E+03  0.89807740918E+02 0.  0.
         13    1    3    3    0    0  0.50990428288E+02 -0.12401242650E+03 -0.57234806762E+02  0.14579070207E+03  0.00000000000E+00 0.  1.
        -13    1    3    3    0    0 -0.95526327243E+01 -0.10317919320E+03  0.17728844641E+02  0.10512616531E+03  0.00000000000E+00 0. -1.
         22    1    1    2    0    0 -0.41437795563E+02  0.22719161970E+03 -0.11093028206E+04  0.11330868770E+04  0.00000000000E+00 0.  1.
<mgrwt>
<rscale>  0 0.77181911E+03</rscale>
<asrwt>0</asrwt>
<pdfrwt beam="1">  1        2 0.18091921E-01 0.77181911E+03</pdfrwt>
<pdfrwt beam="2">  1       -2 0.19483172E+00 0.77181911E+03</pdfrwt>
<totfact> 0.46729755E+01</totfact>
</mgrwt>
</event>
<event>
 6    1  0.1603085E-006  0.1718505E+04  0.7818608E-02  0.8750880E-01
         -2   -1    0    0    0  501 -0.00000000000E+00  0.00000000000E+00  0.18113919546E+03  0.18113919546E+03  0.00000000000E+00 0.  1.
          2   -1    0    0  501    0  0.00000000000E+00 -0.00000000000E+00 -0.40759548161E+04  0.40759548161E+04  0.00000000000E+00 0. -1.
         23    2    1    2    0    0 -0.57396877958E+03 -0.31356129882E+03 -0.33238375780E+04  0.33888908250E+04  0.94466557405E+02 0.  0.
         13    1    3    3    0    0 -0.29862668279E+03 -0.12738665692E+03 -0.18236602280E+04  0.18523341716E+04  0.00000000000E+00 0. -1.
        -13    1    3    3    0    0 -0.27534209679E+03 -0.18617464189E+03 -0.15001773500E+04  0.15365566534E+04  0.00000000000E+00 0.  1.
         22    1    1    2    0    0  0.57396877958E+03  0.31356129882E+03 -0.57097804262E+03  0.86820318659E+03  0.00000000000E+00 0.  1.
<mgrwt>
<rscale>  0 0.17185054E+04</rscale>
<asrwt>0</asrwt>
<pdfrwt beam="1">  1        2 0.62706998E+00 0.17185054E+04</pdfrwt>
<pdfrwt beam="2">  1       -2 0.27867568E-01 0.17185054E+04</pdfrwt>
<totfact> 0.33718370E+00</totfact>
</mgrwt>
</event>
<event>
 6    1  0.1785714E-006  0.2129644E+04  0.7818608E-02  0.8548296E-01
          2   -1    0    0  501    0  0.00000000000E+00  0.00000000000E+00  0.19446909727E+04  0.19446909727E+04  0.00000000000E+00 0. -1.
         -2   -1    0    0    0  501 -0.00000000000E+00 -0.00000000000E+00 -0.58304698647E+03  0.58304698647E+03  0.00000000000E+00 0.  1.
         23    2    1    2    0    0 -0.58798232045E+03 -0.13685045700E+03  0.17203401374E+04  0.18255170640E+04  0.92147196231E+02 0.  0.
         11    1    3    3    0    0 -0.15303640303E+03 -0.38541935448E+02  0.58013068315E+03  0.60121313273E+03  0.00000000000E+00 0.  1.
        -11    1    3    3    0    0 -0.43494591742E+03 -0.98308521552E+02  0.11402094542E+04  0.12243039312E+04  0.00000000000E+00 0. -1.
         22    1    1    2    0    0  0.58798232045E+03  0.13685045700E+03 -0.35869615119E+03  0.70222089517E+03  0.00000000000E+00 0.  1.
<mgrwt>
<rscale>  0 0.21296443E+04</rscale>
<asrwt>0</asrwt>
<pdfrwt beam="1">  1        2 0.29918322E+00 0.21296443E+04</pdfrwt>
<pdfrwt beam="2">  1       -2 0.89699537E-01 0.21296443E+04</pdfrwt>
<totfact> 0.70210205E+00</totfact>
</mgrwt>
</event>
<event>
 6    1  0.1603085E-006  0.1594152E+04  0.7818608E-02  0.8824149E-01
          1   -1    0    0  501    0  0.00000000000E+00  0.00000000000E+00  0.15529902213E+04  0.15529902213E+04  0.00000000000E+00 0. -1.
         -1   -1    0    0    0  501 -0.00000000000E+00 -0.00000000000E+00 -0.40910128320E+03  0.40910128320E+03  0.00000000000E+00 0.  1.
         23    2    1    2    0    0  0.47117081118E+03 -0.83571422950E+02 -0.20728699918E+03  0.52868209700E+03  0.86895014916E+02 0.  0.
         11    1    3    3    0    0  0.33583165241E+03 -0.51742717522E+02 -0.10357617743E+03  0.35522982998E+03  0.00000000000E+00 0. -1.
        -11    1    3    3    0    0  0.13533915877E+03 -0.31828705429E+02 -0.10371082175E+03  0.17345226702E+03  0.00000000000E+00 0.  1.
         22    1    1    2    0    0 -0.47117081118E+03  0.83571422950E+02  0.13511759373E+04  0.14334094075E+04  0.00000000000E+00 0. -1.
<mgrwt>
<rscale>  0 0.15941522E+04</rscale>
<asrwt>0</asrwt>
<pdfrwt beam="1">  1        1 0.23892157E+00 0.15941522E+04</pdfrwt>
<pdfrwt beam="2">  1       -1 0.62938660E-01 0.15941522E+04</pdfrwt>
<totfact> 0.14776933E+01</totfact>
</mgrwt>
</event>
<event>
 6    1  0.1603085E-006  0.1660605E+04  0.7818608E-02  0.8784157E-01
          2   -1    0    0  501    0  0.00000000000E+00  0.00000000000E+00  0.11119729979E+04  0.11119729979E+04  0.00000000000E+00 0. -1.
         -2   -1    0    0    0  501 -0.00000000000E+00 -0.00000000000E+00 -0.61998083723E+03  0.61998083723E+03  0.00000000000E+00 0.  1.
         23    2    1    2    0    0 -0.76396273716E+03 -0.23663962028E+03  0.24028138054E+02  0.80533217550E+03  0.91351999541E+02 0.  0.
         11    1    3    3    0    0 -0.50378461262E+03 -0.11422235888E+03  0.33305154770E+02  0.51764361922E+03  0.00000000000E+00 0. -1.
        -11    1    3    3    0    0 -0.26017812455E+03 -0.12241726139E+03 -0.92770167160E+01  0.28768855629E+03  0.00000000000E+00 0.  1.
         22    1    1    2    0    0  0.76396273716E+03  0.23663962028E+03  0.46796402266E+03  0.92662165967E+03  0.00000000000E+00 0.  1.
<mgrwt>
<rscale>  0 0.16606046E+04</rscale>
<asrwt>0</asrwt>
<pdfrwt beam="1">  1        2 0.17107277E+00 0.16606046E+04</pdfrwt>
<pdfrwt beam="2">  1       -2 0.95381668E-01 0.16606046E+04</pdfrwt>
<totfact> 0.18879322E+01</totfact>
</mgrwt>
</event>
<event>
 6    1  0.1603085E-006  0.3526160E+04  0.7818608E-02  0.8107618E-01
          1   -1    0    0  501    0  0.00000000000E+00  0.00000000000E+00  0.17005330105E+04  0.17005330105E+04  0.00000000000E+00 0. -1.
         -1   -1    0    0    0  501 -0.00000000000E+00 -0.00000000000E+00 -0.18279272606E+04  0.18279272606E+04  0.00000000000E+00 0.  1.
         23    2    1    2    0    0 -0.11085659112E+04  0.88353505027E+03 -0.11106788560E+04  0.18032353058E+04  0.92181788946E+02 0.  0.
         11    1    3    3    0    0 -0.61974628078E+03  0.55172150021E+03 -0.64273593081E+03  0.10495673123E+04  0.00000000000E+00 0. -1.
        -11    1    3    3    0    0 -0.48881963046E+03  0.33181355006E+03 -0.46794292521E+03  0.75366799347E+03  0.00000000000E+00 0.  1.
         22    1    1    2    0    0  0.11085659112E+04 -0.88353505027E+03  0.98328460598E+03  0.17252249653E+04  0.00000000000E+00 0. -1.
<mgrwt>
<rscale>  0 0.35261598E+04</rscale>
<asrwt>0</asrwt>
<pdfrwt beam="1">  1        1 0.26162046E+00 0.35261598E+04</pdfrwt>
<pdfrwt beam="2">  1       -1 0.28121958E+00 0.35261598E+04</pdfrwt>
<totfact> 0.16941880E-01</totfact>
</mgrwt>
</event>
<event>
 6    1  0.1603085E-006  0.2750478E+04  0.7818608E-02  0.8318810E-01
         -1   -1    0    0    0  501 -0.00000000000E+00  0.00000000000E+00  0.10883438728E+04  0.10883438728E+04  0.00000000000E+00 0.  1.
          1   -1    0    0  501    0  0.00000000000E+00 -0.00000000000E+00 -0.17377618127E+04  0.17377618127E+04  0.00000000000E+00 0. -1.
         23    2    1    2    0    0  0.78879052148E+03  0.11019461326E+04 -0.55632024082E+03  0.14677452961E+04  0.91149756133E+02 0.  0.
         11    1    3    3    0    0  0.43263511738E+03  0.66115600536E+03 -0.29093077651E+03  0.84198641613E+03  0.00000000000E+00 0. -1.
        -11    1    3    3    0    0  0.35615540410E+03  0.44079012720E+03 -0.26538946431E+03  0.62575887998E+03  0.00000000000E+00 0.  1.
         22    1    1    2    0    0 -0.78879052148E+03 -0.11019461326E+04 -0.93097699126E+02  0.13583603894E+04  0.00000000000E+00 0.  1.
<mgrwt>
<rscale>  0 0.27504781E+04</rscale>
<asrwt>0</asrwt>
<pdfrwt beam="1">  1        1 0.26734797E+00 0.27504781E+04</pdfrwt>
<pdfrwt beam="2">  1       -1 0.16743752E+00 0.27504781E+04</pdfrwt>
<totfact> 0.10036764E+00</totfact>
</mgrwt>
</event>
<event>
 6    1  0.1603085E-006  0.2270818E+04  0.7818608E-02  0.8489517E-01
          1   -1    0    0  501    0  0.00000000000E+00  0.00000000000E+00  0.14785889704E+04  0.14785889704E+04  0.00000000000E+00 0. -1.
         -1   -1    0    0    0  501 -0.00000000000E+00 -0.00000000000E+00 -0.87188103282E+03  0.87188103282E+03  0.00000000000E+00 0.  1.
         23    2    1    2    0    0 -0.11597404717E+03  0.10127732054E+04 -0.20942890376E+03  0.10446220454E+04  0.90637777762E+02 0.  0.
         11    1    3    3    0    0 -0.68799082250E+02  0.46466530734E+03 -0.53195858529E+02  0.47273349885E+03  0.00000000000E+00 0.  1.
        -11    1    3    3    0    0 -0.47174964919E+02  0.54810789807E+03 -0.15623304523E+03  0.57188854654E+03  0.00000000000E+00 0. -1.
         22    1    1    2    0    0  0.11597404717E+03 -0.10127732054E+04  0.81613684133E+03  0.13058479578E+04  0.00000000000E+00 0. -1.
<mgrwt>
<rscale>  0 0.22708181E+04</rscale>
<asrwt>0</asrwt>
<pdfrwt beam="1">  1        1 0.22747523E+00 0.22708181E+04</pdfrwt>
<pdfrwt beam="2">  1       -1 0.13413554E+00 0.22708181E+04</pdfrwt>
<totfact> 0.28727529E+00</totfact>
</mgrwt>
</event>
<event>
 6    1  0.1694631E-006  0.2439886E+04  0.7818608E-02  0.8424720E-01
          2   -1    0    0  501    0  0.00000000000E+00  0.00000000000E+00  0.15567113096E+04  0.15567113096E+04  0.00000000000E+00 0. -1.
         -2   -1    0    0    0  501 -0.00000000000E+00 -0.00000000000E+00 -0.95602893700E+03  0.95602893700E+03  0.00000000000E+00 0.  1.
         23    2    1    2    0    0 -0.44982351279E+03 -0.10157997584E+03 -0.86043462963E+03  0.98057753384E+03  0.92330189282E+02 0.  0.
         13    1    3    3    0    0 -0.19917038611E+03 -0.92146945306E+02 -0.40584362152E+03  0.46137722891E+03  0.00000000000E+00 0. -1.
        -13    1    3    3    0    0 -0.25065312668E+03 -0.94330305384E+01 -0.45459100811E+03  0.51920030493E+03  0.00000000000E+00 0.  1.
         22    1    1    2    0    0  0.44982351279E+03  0.10157997584E+03  0.14611170023E+04  0.15321627128E+04  0.00000000000E+00 0. -1.
<mgrwt>
<rscale>  0 0.24398861E+04</rscale>
<asrwt>0</asrwt>
<pdfrwt beam="1">  1        2 0.23949405E+00 0.24398861E+04</pdfrwt>
<pdfrwt beam="2">  1       -2 0.14708138E+00 0.24398861E+04</pdfrwt>
<totfact> 0.33366125E+00</totfact>
</mgrwt>
</event>
<event>
 6    1  0.1603085E-006  0.1814474E+04  0.7818608E-02  0.8698640E-01
          1   -1    0    0  501    0  0.00000000000E+00  0.00000000000E+00  0.41633425049E+03  0.41633425049E+03  0.00000000000E+00 0. -1.
         -1   -1    0    0    0  501 -0.00000000000E+00 -0.00000000000E+00 -0.19769671705E+04  0.19769671705E+04  0.00000000000E+00 0.  1.
         23    2    1    2    0    0  0.46460849281E+03 -0.77425238289E+03 -0.85957187270E+03  0.12501415914E+04  0.93071962212E+02 0.  0.
         13    1    3    3    0    0  0.33854490217E+03 -0.50847493291E+03 -0.62453751656E+03  0.87361691706E+03  0.00000000000E+00 0.  1.
        -13    1    3    3    0    0  0.12606359064E+03 -0.26577744998E+03 -0.23503435614E+03  0.37652467432E+03  0.00000000000E+00 0. -1.
         22    1    1    2    0    0 -0.46460849281E+03  0.77425238289E+03 -0.70106104732E+03  0.11431598296E+04  0.00000000000E+00 0.  1.
<mgrwt>
<rscale>  0 0.18144742E+04</rscale>
<asrwt>0</asrwt>
<pdfrwt beam="1">  1        1 0.64051423E-01 0.18144742E+04</pdfrwt>
<pdfrwt beam="2">  1       -1 0.30414880E+00 0.18144742E+04</pdfrwt>
<totfact> 0.16655787E+00</totfact>
</mgrwt>
</event>
<event>
 6    1  0.1603085E-006  0.2701468E+04  0.7818608E-02  0.8334529E-01
         -2   -1    0    0    0  501 -0.00000000000E+00  0.00000000000E+00  0.10695750364E+04  0.10695750364E+04  0.00000000000E+00 0.  1.
          2   -1    0    0  501    0  0.00000000000E+00 -0.00000000000E+00 -0.17058016908E+04  0.17058016908E+04  0.00000000000E+00 0. -1.
         23    2    1    2    0    0  0.90040191999E+02 -0.13169857029E+04 -0.60559196371E+03  0.14549612387E+04  0.87246787603E+02 0.  0.
         13    1    3    3    0    0  0.31742252617E+02 -0.55637933737E+03 -0.30273675345E+03  0.63420428850E+03  0.00000000000E+00 0. -1.
        -13    1    3    3    0    0  0.58297939382E+02 -0.76060636551E+03 -0.30285521026E+03  0.82075695024E+03  0.00000000000E+00 0.  1.
         22    1    1    2    0    0 -0.90040191999E+02  0.13169857029E+04 -0.30634690671E+02  0.13204154884E+04  0.00000000000E+00 0. -1.
<mgrwt>
<rscale>  0 0.27014684E+04</rscale>
<asrwt>0</asrwt>
<pdfrwt beam="1">  1        2 0.26243102E+00 0.27014684E+04</pdfrwt>
<pdfrwt beam="2">  1       -2 0.16455001E+00 0.27014684E+04</pdfrwt>
<totfact> 0.19921398E+00</totfact>
</mgrwt>
</event>
<event>
 6    1  0.1603085E-006  0.2753273E+04  0.7818608E-02  0.8317924E-01
          2   -1    0    0  501    0  0.00000000000E+00  0.00000000000E+00  0.10868243435E+04  0.10868243435E+04  0.00000000000E+00 0. -1.
         -2   -1    0    0    0  501 -0.00000000000E+00 -0.00000000000E+00 -0.17437297641E+04  0.17437297641E+04  0.00000000000E+00 0.  1.
         23    2    1    2    0    0  0.93484752167E+03  0.10071470973E+04 -0.27601257881E+03  0.14045931960E+04  0.91727522855E+02 0.  0.
         11    1    3    3    0    0  0.48031702413E+03  0.46176469682E+03 -0.15994296914E+03  0.68521006434E+03  0.00000000000E+00 0.  1.
        -11    1    3    3    0    0  0.45453049754E+03  0.54538240043E+03 -0.11606960967E+03  0.71938313171E+03  0.00000000000E+00 0. -1.
         22    1    1    2    0    0 -0.93484752167E+03 -0.10071470973E+04 -0.38089284178E+03  0.14259609115E+04  0.00000000000E+00 0.  1.
<mgrwt>
<rscale>  0 0.27532729E+04</rscale>
<asrwt>0</asrwt>
<pdfrwt beam="1">  1        2 0.16720375E+00 0.27532729E+04</pdfrwt>
<pdfrwt beam="2">  1       -2 0.26826611E+00 0.27532729E+04</pdfrwt>
<totfact> 0.96299248E-01</totfact>
</mgrwt>
</event>
<event>
 6    1  0.1603085E-006  0.2817485E+04  0.7818608E-02  0.8297860E-01
         -2   -1    0    0    0  501 -0.00000000000E+00  0.00000000000E+00  0.17885321841E+04  0.17885321841E+04  0.00000000000E+00 0.  1.
          2   -1    0    0  501    0  0.00000000000E+00 -0.00000000000E+00 -0.11096003131E+04  0.11096003131E+04  0.00000000000E+00 0. -1.
         23    2    1    2    0    0  0.84928965881E+03  0.32991620585E+03 -0.76351880913E+03  0.11920253517E+04  0.88463776409E+02 0.  0.
         13    1    3    3    0    0  0.24268845241E+03  0.57903414567E+02 -0.23486621464E+03  0.34265526281E+03  0.00000000000E+00 0. -1.
        -13    1    3    3    0    0  0.60660120639E+03  0.27201279128E+03 -0.52865259449E+03  0.84937008888E+03  0.00000000000E+00 0.  1.
         22    1    1    2    0    0 -0.84928965881E+03 -0.32991620585E+03  0.14424506801E+04  0.17061071455E+04  0.00000000000E+00 0.  1.
<mgrwt>
<rscale>  0 0.28174853E+04</rscale>
<asrwt>0</asrwt>
<pdfrwt beam="1">  1        2 0.17070774E+00 0.28174853E+04</pdfrwt>
<pdfrwt beam="2">  1       -2 0.27515880E+00 0.28174853E+04</pdfrwt>
<totfact> 0.84172374E-01</totfact>
</mgrwt>
</event>
<event>
 6    1  0.1603085E-006  0.1034825E+04  0.7818608E-02  0.9271152E-01
          3   -1    0    0  501    0  0.00000000000E+00  0.00000000000E+00  0.65922467095E+02  0.65922467095E+02  0.00000000000E+00 0. -1.
         -3   -1    0    0    0  501 -0.00000000000E+00 -0.00000000000E+00 -0.40610728204E+04  0.40610728204E+04  0.00000000000E+00 0.  1.
         23    2    1    2    0    0  0.50180380810E+03 -0.10238170704E+03 -0.18435320999E+04  0.19152651539E+04  0.85679229428E+02 0.  0.
         13    1    3    3    0    0  0.26816810448E+03 -0.17328067250E+02 -0.87560362641E+03  0.91591271678E+03  0.00000000000E+00 0.  1.
        -13    1    3    3    0    0  0.23363570362E+03 -0.85053639791E+02 -0.96792847353E+03  0.99935243709E+03  0.00000000000E+00 0. -1.
         22    1    1    2    0    0 -0.50180380810E+03  0.10238170704E+03 -0.21516182534E+04  0.22117301336E+04  0.00000000000E+00 0.  1.
<mgrwt>
<rscale>  0 0.10348255E+04</rscale>
<asrwt>0</asrwt>
<pdfrwt beam="1">  1        3 0.10141915E-01 0.10348255E+04</pdfrwt>
<pdfrwt beam="2">  1       -3 0.62478065E+00 0.10348255E+04</pdfrwt>
<totfact> 0.13802643E-01</totfact>
</mgrwt>
</event>
<event>
 6    1  0.1603085E-006  0.1956761E+04  0.7818608E-02  0.8627107E-01
         -2   -1    0    0    0  501 -0.00000000000E+00  0.00000000000E+00  0.14425076878E+04  0.14425076878E+04  0.00000000000E+00 0.  1.
          2   -1    0    0  501    0  0.00000000000E+00 -0.00000000000E+00 -0.66358631861E+03  0.66358631861E+03  0.00000000000E+00 0. -1.
         23    2    1    2    0    0 -0.33812392713E+03  0.88956358610E+01 -0.59405089182E+03  0.69207146348E+03  0.10797928529E+03 0.  0.
         13    1    3    3    0    0 -0.42807464157E+02 -0.35459254847E+02 -0.76814843747E+02  0.94817498183E+02  0.00000000000E+00 0. -1.
        -13    1    3    3    0    0 -0.29531646297E+03  0.44354890707E+02 -0.51723604807E+03  0.59725396529E+03  0.00000000000E+00 0.  1.
         22    1    1    2    0    0  0.33812392713E+03 -0.88956358610E+01  0.13729722610E+04  0.14140225429E+04  0.00000000000E+00 0.  1.
<mgrwt>
<rscale>  0 0.19567610E+04</rscale>
<asrwt>0</asrwt>
<pdfrwt beam="1">  1        2 0.10209020E+00 0.19567610E+04</pdfrwt>
<pdfrwt beam="2">  1       -2 0.22192426E+00 0.19567610E+04</pdfrwt>
<totfact> 0.39239756E+00</totfact>
</mgrwt>
</event>
<event>
 6    1  0.1603085E-006  0.1112907E+04  0.7818608E-02  0.9192702E-01
          2   -1    0    0  501    0  0.00000000000E+00  0.00000000000E+00  0.14453655654E+04  0.14453655654E+04  0.00000000000E+00 0. -1.
         -2   -1    0    0    0  501 -0.00000000000E+00 -0.00000000000E+00 -0.21423001464E+03  0.21423001464E+03  0.00000000000E+00 0.  1.
         23    2    1    2    0    0 -0.46654968231E+03 -0.19759208551E+03  0.29027877371E+03  0.59098774121E+03  0.91068685479E+02 0.  0.
         13    1    3    3    0    0 -0.34503977878E+03 -0.17236062455E+03  0.18283189053E+03  0.42683501968E+03  0.00000000000E+00 0.  1.
        -13    1    3    3    0    0 -0.12150990353E+03 -0.25231460957E+02  0.10744688319E+03  0.16415272153E+03  0.00000000000E+00 0. -1.
         22    1    1    2    0    0  0.46654968231E+03  0.19759208551E+03  0.94085677707E+03  0.10686078389E+04  0.00000000000E+00 0. -1.
<mgrwt>
<rscale>  0 0.11129073E+04</rscale>
<asrwt>0</asrwt>
<pdfrwt beam="1">  1        2 0.22236393E+00 0.11129073E+04</pdfrwt>
<pdfrwt beam="2">  1       -2 0.32958465E-01 0.11129073E+04</pdfrwt>
<totfact> 0.11609215E+02</totfact>
</mgrwt>
</event>
<event>
 6    1  0.1603085E-006  0.2112112E+04  0.7818608E-02  0.8555927E-01
          2   -1    0    0  501    0  0.00000000000E+00  0.00000000000E+00  0.17211772568E+04  0.17211772568E+04  0.00000000000E+00 0. -1.
         -2   -1    0    0    0  501 -0.00000000000E+00 -0.00000000000E+00 -0.64796016785E+03  0.64796016785E+03  0.00000000000E+00 0.  1.
         23    2    1    2    0    0  0.30580132315E+03 -0.85344409901E+03  0.11408550950E+04  0.14600410715E+04  0.91040119063E+02 0.  0.
         11    1    3    3    0    0  0.19496608676E+03 -0.64634090593E+03  0.81380199189E+03  0.10573750629E+04  0.00000000000E+00 0.  1.
        -11    1    3    3    0    0  0.11083523640E+03 -0.20710319308E+03  0.32705310315E+03  0.40266600861E+03  0.00000000000E+00 0. -1.
         22    1    1    2    0    0 -0.30580132315E+03  0.85344409901E+03 -0.67638006096E+02  0.90909635311E+03  0.00000000000E+00 0. -1.
<mgrwt>
<rscale>  0 0.21121120E+04</rscale>
<asrwt>0</asrwt>
<pdfrwt beam="1">  1        2 0.26479650E+00 0.21121120E+04</pdfrwt>
<pdfrwt beam="2">  1       -2 0.99686180E-01 0.21121120E+04</pdfrwt>
<totfact> 0.73126212E+00</totfact>
</mgrwt>
</event>
<event>
 6    1  0.1603085E-006  0.1122506E+04  0.7818608E-02  0.9183529E-01
          2   -1    0    0  501    0  0.00000000000E+00  0.00000000000E+00  0.15043026977E+04  0.15043026977E+04  0.00000000000E+00 0. -1.
         -2   -1    0    0    0  501 -0.00000000000E+00 -0.00000000000E+00 -0.20940278873E+03  0.20940278873E+03  0.00000000000E+00 0.  1.
         23    2    1    2    0    0  0.23505229433E+03 -0.93919762933E+02  0.14099916151E+04  0.14356468528E+04  0.94525277760E+02 0.  0.
         11    1    3    3    0    0  0.81690500701E+02 -0.76658773880E+02  0.47709923096E+03  0.49007507762E+03  0.00000000000E+00 0. -1.
        -11    1    3    3    0    0  0.15336179363E+03 -0.17260989052E+02  0.93289238418E+03  0.94557177515E+03  0.00000000000E+00 0.  1.
         22    1    1    2    0    0 -0.23505229433E+03  0.93919762933E+02 -0.11509170615E+03  0.27805863368E+03  0.00000000000E+00 0.  1.
<mgrwt>
<rscale>  0 0.11225064E+04</rscale>
<asrwt>0</asrwt>
<pdfrwt beam="1">  1        2 0.23143118E+00 0.11225064E+04</pdfrwt>
<pdfrwt beam="2">  1       -2 0.32215815E-01 0.11225064E+04</pdfrwt>
<totfact> 0.11218214E+02</totfact>
</mgrwt>
</event>
<event>
 6    1  0.1603085E-006  0.1491662E+04  0.7818608E-02  0.8890016E-01
          2   -1    0    0  501    0  0.00000000000E+00  0.00000000000E+00  0.36814621865E+04  0.36814621865E+04  0.00000000000E+00 0. -1.
         -2   -1    0    0    0  501 -0.00000000000E+00 -0.00000000000E+00 -0.15109866218E+03  0.15109866218E+03  0.00000000000E+00 0.  1.
         23    2    1    2    0    0  0.11906964655E+03 -0.61440447925E+03  0.28009888550E+04  0.28714896478E+04  0.90795302067E+02 0.  0.
         13    1    3    3    0    0  0.26332457210E+02 -0.18309562524E+03  0.65476175538E+03  0.68038986074E+03  0.00000000000E+00 0.  1.
        -13    1    3    3    0    0  0.92737189341E+02 -0.43130885401E+03  0.21462270996E+04  0.21910997871E+04  0.00000000000E+00 0. -1.
         22    1    1    2    0    0 -0.11906964655E+03  0.61440447925E+03  0.72937466931E+03  0.96107120084E+03  0.00000000000E+00 0.  1.
<mgrwt>
<rscale>  0 0.14916622E+04</rscale>
<asrwt>0</asrwt>
<pdfrwt beam="1">  1        2 0.56637873E+00 0.14916622E+04</pdfrwt>
<pdfrwt beam="2">  1       -2 0.23245951E-01 0.14916622E+04</pdfrwt>
<totfact> 0.96970704E+00</totfact>
</mgrwt>
</event>
<event>
 6    1  0.1603085E-006  0.3600884E+03  0.7818608E-02  0.1058549E+00
          1   -1    0    0  501    0  0.00000000000E+00  0.00000000000E+00  0.22461115501E+04  0.22461115501E+04  0.00000000000E+00 0. -1.
         -1   -1    0    0    0  501 -0.00000000000E+00 -0.00000000000E+00 -0.14432014875E+02  0.14432014875E+02  0.00000000000E+00 0.  1.
         23    2    1    2    0    0 -0.93692995858E+02 -0.51025739817E+02  0.20073621432E+04  0.20121481223E+04  0.88630064590E+02 0.  0.
         11    1    3    3    0    0 -0.61419291187E+02  0.16092636535E+02  0.10274902610E+04  0.10294501147E+04  0.00000000000E+00 0.  1.
        -11    1    3    3    0    0 -0.32273704671E+02 -0.67118376352E+02  0.97987188230E+03  0.98269800762E+03  0.00000000000E+00 0. -1.
         22    1    1    2    0    0  0.93692995858E+02  0.51025739817E+02  0.22431739198E+03  0.24839544267E+03  0.00000000000E+00 0.  1.
<mgrwt>
<rscale>  0 0.36008841E+03</rscale>
<asrwt>0</asrwt>
<pdfrwt beam="1">  1        1 0.34555535E+00 0.36008841E+03</pdfrwt>
<pdfrwt beam="2">  1       -1 0.22203118E-02 0.36008841E+03</pdfrwt>
<totfact> 0.13619470E+03</totfact>
</mgrwt>
</event>
<event>
 6    1  0.1603085E-006  0.3886500E+03  0.7818608E-02  0.1047782E+00
          1   -1    0    0  501    0  0.00000000000E+00  0.00000000000E+00  0.16849682768E+03  0.16849682768E+03  0.00000000000E+00 0. -1.
         -1   -1    0    0    0  501 -0.00000000000E+00 -0.00000000000E+00 -0.22411220856E+03  0.22411220856E+03  0.00000000000E+00 0.  1.
         23    2    1    2    0    0  0.26951239714E+02 -0.22517227994E+02 -0.21147114908E+03  0.23284541285E+03  0.90904040127E+02 0.  0.
         13    1    3    3    0    0 -0.29536656072E+02 -0.23001954351E+02 -0.11624373283E+03  0.12212333675E+03  0.00000000000E+00 0. -1.
        -13    1    3    3    0    0  0.56487895786E+02  0.48472635669E+00 -0.95227416247E+02  0.11072207610E+03  0.00000000000E+00 0.  1.
         22    1    1    2    0    0 -0.26951239714E+02  0.22517227994E+02  0.15585576820E+03  0.15976362340E+03  0.00000000000E+00 0. -1.
<mgrwt>
<rscale>  0 0.38864995E+03</rscale>
<asrwt>0</asrwt>
<pdfrwt beam="1">  1        1 0.25922589E-01 0.38864995E+03</pdfrwt>
<pdfrwt beam="2">  1       -1 0.34478801E-01 0.38864995E+03</pdfrwt>
<totfact> 0.14732788E+03</totfact>
</mgrwt>
</event>
<event>
 6    1  0.1603085E-006  0.9892166E+03  0.7818608E-02  0.9320452E-01
          2   -1    0    0  501    0  0.00000000000E+00  0.00000000000E+00  0.15489653550E+04  0.15489653550E+04  0.00000000000E+00 0. -1.
         -2   -1    0    0    0  501 -0.00000000000E+00 -0.00000000000E+00 -0.15793599311E+03  0.15793599311E+03  0.00000000000E+00 0.  1.
         23    2    1    2    0    0 -0.24464056607E+03 -0.17023777325E+03  0.13732616202E+04  0.14083287461E+04  0.93340632233E+02 0.  0.
         13    1    3    3    0    0 -0.97401202765E+02 -0.12433679506E+03  0.67337870991E+03  0.69165419095E+03  0.00000000000E+00 0.  1.
        -13    1    3    3    0    0 -0.14723936330E+03 -0.45900978194E+02  0.69988291031E+03  0.71667455519E+03  0.00000000000E+00 0. -1.
         22    1    1    2    0    0  0.24464056607E+03  0.17023777325E+03  0.17767741687E+02  0.29857260198E+03  0.00000000000E+00 0.  1.
<mgrwt>
<rscale>  0 0.98921662E+03</rscale>
<asrwt>0</asrwt>
<pdfrwt beam="1">  1        2 0.23830235E+00 0.98921662E+03</pdfrwt>
<pdfrwt beam="2">  1       -2 0.24297846E-01 0.98921662E+03</pdfrwt>
<totfact> 0.17965209E+02</totfact>
</mgrwt>
</event>
<event>
 6    1  0.1603085E-006  0.2937280E+04  0.7818608E-02  0.8261871E-01
         -2   -1    0    0    0  501 -0.00000000000E+00  0.00000000000E+00  0.10077144968E+04  0.10077144968E+04  0.00000000000E+00 0.  1.
          2   -1    0    0  501    0  0.00000000000E+00 -0.00000000000E+00 -0.21403916911E+04  0.21403916911E+04  0.00000000000E+00 0. -1.
         23    2    1    2    0    0  0.47831717019E+03 -0.11385772753E+04  0.28184433419E+03  0.12703371175E+04  0.95784322395E+02 0.  0.
         13    1    3    3    0    0  0.19182909330E+03 -0.48903085303E+03  0.73146953027E+02  0.53037727420E+03  0.00000000000E+00 0.  1.
        -13    1    3    3    0    0  0.28648807689E+03 -0.64954642223E+03  0.20869738116E+03  0.73995984333E+03  0.00000000000E+00 0. -1.
         22    1    1    2    0    0 -0.47831717019E+03  0.11385772753E+04 -0.14145215285E+04  0.18777690703E+04  0.00000000000E+00 0. -1.
<mgrwt>
<rscale>  0 0.29372802E+04</rscale>
<asrwt>0</asrwt>
<pdfrwt beam="1">  1        2 0.32929103E+00 0.29372802E+04</pdfrwt>
<pdfrwt beam="2">  1       -2 0.15503300E+00 0.29372802E+04</pdfrwt>
<totfact> 0.13167720E+00</totfact>
</mgrwt>
</event>
<event>
 6    1  0.1603085E-006  0.3317589E+04  0.7818608E-02  0.8158434E-01
         -3   -1    0    0    0  501 -0.00000000000E+00  0.00000000000E+00  0.73168347175E+03  0.73168347175E+03  0.00000000000E+00 0.  1.
          3   -1    0    0  501    0  0.00000000000E+00 -0.00000000000E+00 -0.37606411681E+04  0.37606411681E+04  0.00000000000E+00 0. -1.
         23    2    1    2    0    0  0.90904791180E+03 -0.12733814283E+04 -0.22567428438E+04  0.27475655888E+04  0.91433220221E+02 0.  0.
         13    1    3    3    0    0  0.46639333164E+03 -0.66963771733E+03 -0.12551598595E+04  0.14971184606E+04  0.00000000000E+00 0.  1.
        -13    1    3    3    0    0  0.44265458017E+03 -0.60374371093E+03 -0.10015829843E+04  0.12504471282E+04  0.00000000000E+00 0. -1.
         22    1    1    2    0    0 -0.90904791180E+03  0.12733814283E+04 -0.77221485253E+03  0.17447590511E+04  0.00000000000E+00 0.  1.
<mgrwt>
<rscale>  0 0.33175889E+04</rscale>
<asrwt>0</asrwt>
<pdfrwt beam="1">  1        3 0.57856018E+00 0.33175889E+04</pdfrwt>
<pdfrwt beam="2">  1       -3 0.11256669E+00 0.33175889E+04</pdfrwt>
<totfact> 0.20432446E-03</totfact>
</mgrwt>
</event>
<event>
 6    1  0.1603085E-006  0.2889554E+04  0.7818608E-02  0.8275992E-01
          2   -1    0    0  501    0  0.00000000000E+00  0.00000000000E+00  0.42212757945E+04  0.42212757945E+04  0.00000000000E+00 0. -1.
         -2   -1    0    0    0  501 -0.00000000000E+00 -0.00000000000E+00 -0.49449060605E+03  0.49449060605E+03  0.00000000000E+00 0.  1.
         23    2    1    2    0    0  0.77564903030E+03 -0.11814269394E+04  0.13870287153E+04  0.19822958255E+04  0.90813277023E+02 0.  0.
         13    1    3    3    0    0  0.27259316697E+03 -0.49600511239E+03  0.55909329454E+03  0.79555855737E+03  0.00000000000E+00 0. -1.
        -13    1    3    3    0    0  0.50305586333E+03 -0.68542182697E+03  0.82793542076E+03  0.11867372681E+04  0.00000000000E+00 0.  1.
         22    1    1    2    0    0 -0.77564903030E+03  0.11814269394E+04  0.23397564732E+04  0.27334705751E+04  0.00000000000E+00 0. -1.
<mgrwt>
<rscale>  0 0.28895544E+04</rscale>
<asrwt>0</asrwt>
<pdfrwt beam="1">  1        2 0.64942702E+00 0.28895544E+04</pdfrwt>
<pdfrwt beam="2">  1       -2 0.76075481E-01 0.28895544E+04</pdfrwt>
<totfact> 0.29784159E-01</totfact>
</mgrwt>
</event>
<event>
 6    1  0.1603085E-006  0.1884463E+04  0.7818608E-02  0.8662629E-01
          3   -1    0    0  501    0  0.00000000000E+00  0.00000000000E+00  0.95391238913E+03  0.95391238913E+03  0.00000000000E+00 0. -1.
         -3   -1    0    0    0  501 -0.00000000000E+00 -0.00000000000E+00 -0.93069322462E+03  0.93069322462E+03  0.00000000000E+00 0.  1.
         23    2    1    2    0    0 -0.37504100878E+03  0.47336531047E+03  0.73196879220E+03  0.95344692149E+03  0.92478342953E+02 0.  0.
         13    1    3    3    0    0 -0.18557078453E+03  0.30677668134E+03  0.43970421618E+03  0.56735195956E+03  0.00000000000E+00 0. -1.
        -13    1    3    3    0    0 -0.18947022425E+03  0.16658862913E+03  0.29226457602E+03  0.38609496193E+03  0.00000000000E+00 0.  1.
         22    1    1    2    0    0  0.37504100878E+03 -0.47336531047E+03 -0.70874962769E+03  0.93115869226E+03  0.00000000000E+00 0.  1.
<mgrwt>
<rscale>  0 0.18844626E+04</rscale>
<asrwt>0</asrwt>
<pdfrwt beam="1">  1        3 0.14675575E+00 0.18844626E+04</pdfrwt>
<pdfrwt beam="2">  1       -3 0.14318357E+00 0.18844626E+04</pdfrwt>
<totfact> 0.30521773E-01</totfact>
</mgrwt>
</event>
<event>
 6    1  0.1603085E-006  0.3467947E+04  0.7818608E-02  0.8121428E-01
         -2   -1    0    0    0  501 -0.00000000000E+00  0.00000000000E+00  0.26580797007E+04  0.26580797007E+04  0.00000000000E+00 0.  1.
          2   -1    0    0  501    0  0.00000000000E+00 -0.00000000000E+00 -0.11311412428E+04  0.11311412428E+04  0.00000000000E+00 0. -1.
         23    2    1    2    0    0 -0.12016521653E+04  0.91878789099E+03  0.16877123439E+04  0.22680413495E+04  0.86599609083E+02 0.  0.
         11    1    3    3    0    0 -0.79716243834E+03  0.65567433916E+03  0.11750615578E+04  0.15640161306E+04  0.00000000000E+00 0. -1.
        -11    1    3    3    0    0 -0.40448972694E+03  0.26311355183E+03  0.51265078611E+03  0.70402521890E+03  0.00000000000E+00 0.  1.
         22    1    1    2    0    0  0.12016521653E+04 -0.91878789099E+03 -0.16077388604E+03  0.15211795941E+04  0.00000000000E+00 0. -1.
<mgrwt>
<rscale>  0 0.34679467E+04</rscale>
<asrwt>0</asrwt>
<pdfrwt beam="1">  1        2 0.17402173E+00 0.34679467E+04</pdfrwt>
<pdfrwt beam="2">  1       -2 0.40893534E+00 0.34679467E+04</pdfrwt>
<totfact> 0.11128316E-01</totfact>
</mgrwt>
</event>
<event>
 6    1  0.1603085E-006  0.6608772E+04  0.7818608E-02  0.7619186E-01
         -2   -1    0    0    0  501 -0.00000000000E+00  0.00000000000E+00  0.33388209212E+04  0.33388209212E+04  0.00000000000E+00 0.  1.
          2   -1    0    0  501    0  0.00000000000E+00 -0.00000000000E+00 -0.32703065974E+04  0.32703065974E+04  0.00000000000E+00 0. -1.
         23    2    1    2    0    0  0.71253775446E+03 -0.12326137467E+04  0.30156262514E+04  0.33361295941E+04  0.93339596267E+02 0.  0.
         13    1    3    3    0    0  0.34189763171E+03 -0.67225347313E+03  0.16488940463E+04  0.18131933980E+04  0.00000000000E+00 0. -1.
        -13    1    3    3    0    0  0.37064012275E+03 -0.56036027354E+03  0.13667322052E+04  0.15229361961E+04  0.00000000000E+00 0.  1.
         22    1    1    2    0    0 -0.71253775446E+03  0.12326137467E+04 -0.29471119276E+04  0.32729979245E+04  0.00000000000E+00 0. -1.
<mgrwt>
<rscale>  0 0.66087724E+04</rscale>
<asrwt>0</asrwt>
<pdfrwt beam="1">  1        2 0.50312409E+00 0.66087724E+04</pdfrwt>
<pdfrwt beam="2">  1       -2 0.51366476E+00 0.66087724E+04</pdfrwt>
<totfact> 0.10351353E-03</totfact>
</mgrwt>
</event>
<event>
 6    1  0.1603085E-006  0.4783065E+03  0.7818608E-02  0.1019602E+00
          3   -1    0    0  501    0  0.00000000000E+00  0.00000000000E+00  0.13366637170E+03  0.13366637170E+03  0.00000000000E+00 0.  1.
         -3   -1    0    0    0  501 -0.00000000000E+00 -0.00000000000E+00 -0.42788825354E+03  0.42788825354E+03  0.00000000000E+00 0. -1.
         23    2    1    2    0    0 -0.27999556000E+02  0.82746466583E+02  0.97446848281E+02  0.16026252836E+03  0.92505334368E+02 0.  0.
         11    1    3    3    0    0 -0.41167730733E+02  0.20127444803E+02  0.82775826920E+02  0.94613601613E+02  0.00000000000E+00 0.  1.
        -11    1    3    3    0    0  0.13168174733E+02  0.62619021781E+02  0.14671021362E+02  0.65648926742E+02  0.00000000000E+00 0. -1.
         22    1    1    2    0    0  0.27999556000E+02 -0.82746466583E+02 -0.39166873012E+03  0.40129209688E+03  0.00000000000E+00 0. -1.
<mgrwt>
<rscale>  0 0.47830647E+03</rscale>
<asrwt>0</asrwt>
<pdfrwt beam="1">  1        3 0.20564058E-01 0.47830647E+03</pdfrwt>
<pdfrwt beam="2">  1       -3 0.65828960E-01 0.47830647E+03</pdfrwt>
<totfact> 0.12640242E+02</totfact>
</mgrwt>
</event>
<event>
 6    1  0.1603085E-006  0.2973307E+04  0.7818608E-02  0.8251394E-01
         -2   -1    0    0    0  501 -0.00000000000E+00  0.00000000000E+00  0.10567925698E+04  0.10567925698E+04  0.00000000000E+00 0.  1.
          2   -1    0    0  501    0  0.00000000000E+00 -0.00000000000E+00 -0.20913653362E+04  0.20913653362E+04  0.00000000000E+00 0. -1.
         23    2    1    2    0    0  0.86471337266E+03 -0.11912180779E+04 -0.72735402814E+03  0.16444581090E+04  0.92026431337E+02 0.  0.
         13    1    3    3    0    0  0.56887198308E+03 -0.85362061305E+03 -0.51726620751E+03  0.11488462968E+04  0.00000000000E+00 0. -1.
        -13    1    3    3    0    0  0.29584138958E+03 -0.33759746488E+03 -0.21008782064E+03  0.49561181227E+03  0.00000000000E+00 0.  1.
         22    1    1    2    0    0 -0.86471337266E+03  0.11912180779E+04 -0.30721873827E+03  0.15036997969E+04  0.00000000000E+00 0.  1.
<mgrwt>
<rscale>  0 0.29733075E+04</rscale>
<asrwt>0</asrwt>
<pdfrwt beam="1">  1        2 0.32174851E+00 0.29733075E+04</pdfrwt>
<pdfrwt beam="2">  1       -2 0.16258347E+00 0.29733075E+04</pdfrwt>
<totfact> 0.12289892E+00</totfact>
</mgrwt>
</event>
<event>
 6    1  0.1603085E-006  0.1834042E+04  0.7818608E-02  0.8688403E-01
         -2   -1    0    0    0  501 -0.00000000000E+00  0.00000000000E+00  0.40004255716E+03  0.40004255716E+03  0.00000000000E+00 0.  1.
          2   -1    0    0  501    0  0.00000000000E+00 -0.00000000000E+00 -0.21020947344E+04  0.21020947344E+04  0.00000000000E+00 0. -1.
         23    2    1    2    0    0 -0.96427767829E+02  0.41888617098E+03  0.24890010849E+03  0.50439387464E+03  0.87738122369E+02 0.  0.
         11    1    3    3    0    0 -0.61953856410E+02  0.26673975548E+03  0.10862203850E+03  0.29459654568E+03  0.00000000000E+00 0. -1.
        -11    1    3    3    0    0 -0.34473911419E+02  0.15214641550E+03  0.14027806998E+03  0.20979732895E+03  0.00000000000E+00 0.  1.
         22    1    1    2    0    0  0.96427767829E+02 -0.41888617098E+03 -0.19509522857E+04  0.19977434169E+04  0.00000000000E+00 0. -1.
<mgrwt>
<rscale>  0 0.18340418E+04</rscale>
<asrwt>0</asrwt>
<pdfrwt beam="1">  1        2 0.32339919E+00 0.18340418E+04</pdfrwt>
<pdfrwt beam="2">  1       -2 0.61545008E-01 0.18340418E+04</pdfrwt>
<totfact> 0.13539624E+01</totfact>
</mgrwt>
</event>
<event>
 6    1  0.1603085E-006  0.1186031E+04  0.7818608E-02  0.9125172E-01
         -2   -1    0    0    0  501 -0.00000000000E+00  0.00000000000E+00  0.25936935953E+03  0.25936935953E+03  0.00000000000E+00 0.  1.
          2   -1    0    0  501    0  0.00000000000E+00 -0.00000000000E+00 -0.13558559011E+04  0.13558559011E+04  0.00000000000E+00 0. -1.
         23    2    1    2    0    0 -0.15690721035E+03  0.49775970068E+03 -0.17678660877E+03  0.55776010343E+03  0.86361077243E+02 0.  0.
         13    1    3    3    0    0 -0.83757640295E+02  0.37427260452E+03 -0.10705744443E+03  0.39819168903E+03  0.00000000000E+00 0. -1.
        -13    1    3    3    0    0 -0.73149570057E+02  0.12348709616E+03 -0.69729164338E+02  0.15956841441E+03  0.00000000000E+00 0.  1.
         22    1    1    2    0    0  0.15690721035E+03 -0.49775970068E+03 -0.91969993277E+03  0.10574651572E+04  0.00000000000E+00 0. -1.
<mgrwt>
<rscale>  0 0.11860312E+04</rscale>
<asrwt>0</asrwt>
<pdfrwt beam="1">  1        2 0.20859321E+00 0.11860312E+04</pdfrwt>
<pdfrwt beam="2">  1       -2 0.39902979E-01 0.11860312E+04</pdfrwt>
<totfact> 0.89983411E+01</totfact>
</mgrwt>
</event>
<event>
 6    1  0.1603085E-006  0.1776391E+04  0.7818608E-02  0.8718956E-01
          1   -1    0    0  501    0  0.00000000000E+00  0.00000000000E+00  0.54369074932E+03  0.54369074932E+03  0.00000000000E+00 0. -1.
         -1   -1    0    0    0  501 -0.00000000000E+00 -0.00000000000E+00 -0.14509925818E+04  0.14509925818E+04  0.00000000000E+00 0.  1.
         23    2    1    2    0    0  0.12667774409E+03  0.31446797040E+02 -0.14387165709E+04  0.14474742522E+04  0.90775478638E+02 0.  0.
         11    1    3    3    0    0  0.25877333629E+02 -0.29388667865E+02 -0.26676839493E+03  0.26962697700E+03  0.00000000000E+00 0.  1.
        -11    1    3    3    0    0  0.10080041046E+03  0.60835464905E+02 -0.11719481760E+04  0.11778472752E+04  0.00000000000E+00 0. -1.
         22    1    1    2    0    0 -0.12667774409E+03 -0.31446797040E+02  0.53141473840E+03  0.54720907894E+03  0.00000000000E+00 0. -1.
<mgrwt>
<rscale>  0 0.17763910E+04</rscale>
<asrwt>0</asrwt>
<pdfrwt beam="1">  1        1 0.83644731E-01 0.17763910E+04</pdfrwt>
<pdfrwt beam="2">  1       -1 0.22322963E+00 0.17763910E+04</pdfrwt>
<totfact> 0.39030197E+00</totfact>
</mgrwt>
</event>
<event>
 6    1  0.1603085E-006  0.2320348E+04  0.7818608E-02  0.8469941E-01
          2   -1    0    0  501    0  0.00000000000E+00  0.00000000000E+00  0.28864417478E+04  0.28864417478E+04  0.00000000000E+00 0. -1.
         -2   -1    0    0    0  501 -0.00000000000E+00 -0.00000000000E+00 -0.46631940842E+03  0.46631940842E+03  0.00000000000E+00 0.  1.
         23    2    1    2    0    0  0.18199339908E+02 -0.55919280744E+03  0.26775629219E+04  0.27368849793E+04  0.90379075060E+02 0.  0.
         13    1    3    3    0    0  0.22482162763E+02 -0.47785033070E+03  0.21129437711E+04  0.21664204961E+04  0.00000000000E+00 0. -1.
        -13    1    3    3    0    0 -0.42828228546E+01 -0.81342476742E+02  0.56461915076E+03  0.57046448312E+03  0.00000000000E+00 0.  1.
         22    1    1    2    0    0 -0.18199339908E+02  0.55919280744E+03 -0.25744058248E+03  0.61587617698E+03  0.00000000000E+00 0.  1.
<mgrwt>
<rscale>  0 0.23203481E+04</rscale>
<asrwt>0</asrwt>
<pdfrwt beam="1">  1        2 0.44406795E+00 0.23203481E+04</pdfrwt>
<pdfrwt beam="2">  1       -2 0.71741449E-01 0.23203481E+04</pdfrwt>
<totfact> 0.32666858E+00</totfact>
</mgrwt>
</event>
<event>
 6    1  0.1603085E-006  0.1608580E+04  0.7818608E-02  0.8815294E-01
          2   -1    0    0  501    0  0.00000000000E+00  0.00000000000E+00  0.65662213950E+03  0.65662213950E+03  0.00000000000E+00 0. -1.
         -2   -1    0    0    0  501 -0.00000000000E+00 -0.00000000000E+00 -0.98516733341E+03  0.98516733341E+03  0.00000000000E+00 0.  1.
         23    2    1    2    0    0  0.14494088125E+03  0.22797502421E+03  0.60544532719E+03  0.66951442735E+03  0.93300876150E+02 0.  0.
         11    1    3    3    0    0  0.13637306466E+03  0.14239636059E+03  0.46115343523E+03  0.50153447249E+03  0.00000000000E+00 0.  1.
        -11    1    3    3    0    0  0.85678165872E+01  0.85578663616E+02  0.14429189196E+03  0.16797995486E+03  0.00000000000E+00 0. -1.
         22    1    1    2    0    0 -0.14494088125E+03 -0.22797502421E+03 -0.93399052110E+03  0.97227504556E+03  0.00000000000E+00 0.  1.
<mgrwt>
<rscale>  0 0.16085803E+04</rscale>
<asrwt>0</asrwt>
<pdfrwt beam="1">  1        2 0.10101879E+00 0.16085803E+04</pdfrwt>
<pdfrwt beam="2">  1       -2 0.15156420E+00 0.16085803E+04</pdfrwt>
<totfact> 0.12393627E+01</totfact>
</mgrwt>
</event>
<event>
 6    1  0.1603085E-006  0.3225960E+04  0.7818608E-02  0.8181995E-01
         -2   -1    0    0    0  501 -0.00000000000E+00  0.00000000000E+00  0.97492570858E+03  0.97492570858E+03  0.00000000000E+00 0.  1.
          2   -1    0    0  501    0  0.00000000000E+00 -0.00000000000E+00 -0.26686173831E+04  0.26686173831E+04  0.00000000000E+00 0. -1.
         23    2    1    2    0    0 -0.64877462069E+03  0.14144261551E+04 -0.37377871695E+03  0.16030333337E+04  0.92170945608E+02 0.  0.
         11    1    3    3    0    0 -0.19710725017E+03  0.35945983844E+03 -0.69638196954E+02  0.41582703375E+03  0.00000000000E+00 0.  1.
        -11    1    3    3    0    0 -0.45166737051E+03  0.10549663166E+04 -0.30414052000E+03  0.11872063000E+04  0.00000000000E+00 0. -1.
         22    1    1    2    0    0  0.64877462069E+03 -0.14144261551E+04 -0.13199129576E+04  0.20405097579E+04  0.00000000000E+00 0.  1.
<mgrwt>
<rscale>  0 0.32259595E+04</rscale>
<asrwt>0</asrwt>
<pdfrwt beam="1">  1        2 0.41055652E+00 0.32259595E+04</pdfrwt>
<pdfrwt beam="2">  1       -2 0.14998857E+00 0.32259595E+04</pdfrwt>
<totfact> 0.69780632E-01</totfact>
</mgrwt>
</event>
<event>
 6    1  0.1603085E-006  0.3158425E+04  0.7818608E-02  0.8199884E-01
         -2   -1    0    0    0  501 -0.00000000000E+00  0.00000000000E+00  0.15823318851E+04  0.15823318851E+04  0.00000000000E+00 0.  1.
          2   -1    0    0  501    0  0.00000000000E+00 -0.00000000000E+00 -0.15760992662E+04  0.15760992662E+04  0.00000000000E+00 0. -1.
         23    2    1    2    0    0 -0.11386740544E+04  0.96764524117E+03  0.51000160037E+03  0.15815040440E+04  0.90208059969E+02 0.  0.
         13    1    3    3    0    0 -0.92273287155E+03  0.82767889950E+03  0.41448025623E+03  0.13070126991E+04  0.00000000000E+00 0. -1.
        -13    1    3    3    0    0 -0.21594118281E+03  0.13996634167E+03  0.95521344136E+02  0.27449134489E+03  0.00000000000E+00 0.  1.
         22    1    1    2    0    0  0.11386740544E+04 -0.96764524117E+03 -0.50376898150E+03  0.15769271072E+04  0.00000000000E+00 0. -1.
<mgrwt>
<rscale>  0 0.31584250E+04</rscale>
<asrwt>0</asrwt>
<pdfrwt beam="1">  1        2 0.24247681E+00 0.31584250E+04</pdfrwt>
<pdfrwt beam="2">  1       -2 0.24343568E+00 0.31584250E+04</pdfrwt>
<totfact> 0.68551237E-01</totfact>
</mgrwt>
</event>
<event>
 6    1  0.1603085E-006  0.1354656E+04  0.7818608E-02  0.8987311E-01
          1   -1    0    0  501    0  0.00000000000E+00  0.00000000000E+00  0.62886725700E+03  0.62886725700E+03  0.00000000000E+00 0. -1.
         -1   -1    0    0    0  501 -0.00000000000E+00 -0.00000000000E+00 -0.72952303974E+03  0.72952303974E+03  0.00000000000E+00 0.  1.
         23    2    1    2    0    0  0.38670987489E+02  0.22458405091E+03 -0.68789429380E+03  0.72848354962E+03  0.74540468430E+02 0.  0.
         13    1    3    3    0    0  0.55029669394E+02  0.15293230075E+03 -0.52919924867E+03  0.55359587960E+03  0.00000000000E+00 0.  1.
        -13    1    3    3    0    0 -0.16358681906E+02  0.71651750161E+02 -0.15869504513E+03  0.17488767002E+03  0.00000000000E+00 0. -1.
         22    1    1    2    0    0 -0.38670987489E+02 -0.22458405091E+03  0.58723851105E+03  0.62990674711E+03  0.00000000000E+00 0. -1.
<mgrwt>
<rscale>  0 0.13546559E+04</rscale>
<asrwt>0</asrwt>
<pdfrwt beam="1">  1        1 0.96748808E-01 0.13546559E+04</pdfrwt>
<pdfrwt beam="2">  1       -1 0.11223431E+00 0.13546559E+04</pdfrwt>
<totfact> 0.22777035E+01</totfact>
</mgrwt>
</event>
<event>
 6    1  0.1603085E-006  0.3243996E+04  0.7818608E-02  0.8177294E-01
          2   -1    0    0  501    0  0.00000000000E+00  0.00000000000E+00  0.24078143685E+04  0.24078143685E+04  0.00000000000E+00 0. -1.
         -2   -1    0    0    0  501 -0.00000000000E+00 -0.00000000000E+00 -0.10926412760E+04  0.10926412760E+04  0.00000000000E+00 0.  1.
         23    2    1    2    0    0  0.10302071846E+04  0.10126322927E+04 -0.13472687039E+03  0.14537605266E+04  0.92289412584E+02 0.  0.
         11    1    3    3    0    0  0.27226230826E+03  0.25711246705E+03  0.48863754749E+01  0.37450962855E+03  0.00000000000E+00 0. -1.
        -11    1    3    3    0    0  0.75794487634E+03  0.75551982564E+03 -0.13961324587E+03  0.10792508980E+04  0.00000000000E+00 0.  1.
         22    1    1    2    0    0 -0.10302071846E+04 -0.10126322927E+04  0.14498999629E+04  0.20466951180E+04  0.00000000000E+00 0. -1.
<mgrwt>
<rscale>  0 0.32439959E+04</rscale>
<asrwt>0</asrwt>
<pdfrwt beam="1">  1        2 0.37043298E+00 0.32439959E+04</pdfrwt>
<pdfrwt beam="2">  1       -2 0.16809866E+00 0.32439959E+04</pdfrwt>
<totfact> 0.72588545E-01</totfact>
</mgrwt>
</event>
<event>
 6    1  0.1603085E-006  0.1587782E+04  0.7818608E-02  0.8828089E-01
          2   -1    0    0  501    0  0.00000000000E+00  0.00000000000E+00  0.54051958638E+03  0.54051958638E+03  0.00000000000E+00 0. -1.
         -2   -1    0    0    0  501 -0.00000000000E+00 -0.00000000000E+00 -0.11660322554E+04  0.11660322554E+04  0.00000000000E+00 0.  1.
         23    2    1    2    0    0  0.36534793596E+03 -0.11801698126E+03 -0.10581402151E+04  0.11281283674E+04  0.74871732613E+02 0.  0.
         11    1    3    3    0    0  0.20646050085E+03 -0.51678487430E+02 -0.68234202070E+03  0.71476376355E+03  0.00000000000E+00 0.  1.
        -11    1    3    3    0    0  0.15888743511E+03 -0.66338493832E+02 -0.37579819438E+03  0.41336460383E+03  0.00000000000E+00 0. -1.
         22    1    1    2    0    0 -0.36534793596E+03  0.11801698126E+03  0.43262754603E+03  0.57842347442E+03  0.00000000000E+00 0. -1.
<mgrwt>
<rscale>  0 0.15877824E+04</rscale>
<asrwt>0</asrwt>
<pdfrwt beam="1">  1        2 0.83156858E-01 0.15877824E+04</pdfrwt>
<pdfrwt beam="2">  1       -2 0.17938958E+00 0.15877824E+04</pdfrwt>
<totfact> 0.98663598E+00</totfact>
</mgrwt>
</event>
<event>
 6    1  0.1816480E-006  0.2994504E+04  0.7818608E-02  0.8245302E-01
         -1   -1    0    0    0  501 -0.00000000000E+00  0.00000000000E+00  0.19253810030E+04  0.19253810030E+04  0.00000000000E+00 0.  1.
          1   -1    0    0  501    0  0.00000000000E+00 -0.00000000000E+00 -0.11643219556E+04  0.11643219556E+04  0.00000000000E+00 0. -1.
         23    2    1    2    0    0 -0.63361024492E+03 -0.17764779663E+03 -0.10052431617E+04  0.12048039756E+04  0.89543973997E+02 0.  0.
         13    1    3    3    0    0 -0.23772292661E+03 -0.28388360004E+02 -0.32371299803E+03  0.40262661849E+03  0.00000000000E+00 0. -1.
        -13    1    3    3    0    0 -0.39588731831E+03 -0.14925943662E+03 -0.68153016366E+03  0.80217735707E+03  0.00000000000E+00 0.  1.
         22    1    1    2    0    0  0.63361024492E+03  0.17764779663E+03  0.17663022091E+04  0.18848989830E+04  0.00000000000E+00 0.  1.
<mgrwt>
<rscale>  0 0.29945039E+04</rscale>
<asrwt>0</asrwt>
<pdfrwt beam="1">  1        1 0.17912645E+00 0.29945039E+04</pdfrwt>
<pdfrwt beam="2">  1       -1 0.29621246E+00 0.29945039E+04</pdfrwt>
<totfact> 0.33772813E-01</totfact>
</mgrwt>
</event>
<event>
 6    1  0.1603085E-006  0.1896570E+04  0.7818608E-02  0.8656566E-01
          2   -1    0    0  501    0  0.00000000000E+00  0.00000000000E+00  0.10763433687E+04  0.10763433687E+04  0.00000000000E+00 0. -1.
         -2   -1    0    0    0  501 -0.00000000000E+00 -0.00000000000E+00 -0.83546221256E+03  0.83546221256E+03  0.00000000000E+00 0.  1.
         23    2    1    2    0    0 -0.56823239984E+03 -0.47702463911E+03  0.71235784851E+03  0.10327544804E+04  0.93207005967E+02 0.  0.
         13    1    3    3    0    0 -0.10148952416E+03 -0.13209447053E+03  0.13938303885E+03  0.21720198936E+03  0.00000000000E+00 0. -1.
        -13    1    3    3    0    0 -0.46674287568E+03 -0.34493016858E+03  0.57297480966E+03  0.81555249107E+03  0.00000000000E+00 0.  1.
         22    1    1    2    0    0  0.56823239984E+03  0.47702463911E+03 -0.47147669232E+03  0.87905110088E+03  0.00000000000E+00 0.  1.
<mgrwt>
<rscale>  0 0.18965698E+04</rscale>
<asrwt>0</asrwt>
<pdfrwt beam="1">  1        2 0.16559129E+00 0.18965698E+04</pdfrwt>
<pdfrwt beam="2">  1       -2 0.12853265E+00 0.18965698E+04</pdfrwt>
<totfact> 0.94367580E+00</totfact>
</mgrwt>
</event>
<event>
 6    1  0.1603085E-006  0.1830728E+04  0.7818608E-02  0.8690127E-01
         -1   -1    0    0    0  501 -0.00000000000E+00  0.00000000000E+00  0.17200696520E+04  0.17200696520E+04  0.00000000000E+00 0.  1.
          1   -1    0    0  501    0  0.00000000000E+00 -0.00000000000E+00 -0.48712631521E+03  0.48712631521E+03  0.00000000000E+00 0. -1.
         23    2    1    2    0    0  0.46752844952E+03 -0.70659704440E+03  0.10295160078E+04  0.13358493585E+04  0.82024777036E+02 0.  0.
         11    1    3    3    0    0  0.46831490735E+03 -0.69594006299E+03  0.10047925936E+04  0.13089154212E+04  0.00000000000E+00 0. -1.
        -11    1    3    3    0    0 -0.78645783052E+00 -0.10656981414E+02  0.24723414227E+02  0.26933937325E+02  0.00000000000E+00 0.  1.
         22    1    1    2    0    0 -0.46752844952E+03  0.70659704440E+03  0.20342732895E+03  0.87134660867E+03  0.00000000000E+00 0.  1.
<mgrwt>
<rscale>  0 0.18307279E+04</rscale>
<asrwt>0</asrwt>
<pdfrwt beam="1">  1        1 0.74942511E-01 0.18307279E+04</pdfrwt>
<pdfrwt beam="2">  1       -1 0.26462610E+00 0.18307279E+04</pdfrwt>
<totfact> 0.24218825E+00</totfact>
</mgrwt>
</event>
<event>
 6    1  0.1603085E-006  0.8250607E+03  0.7818608E-02  0.9524435E-01
          1   -1    0    0  501    0  0.00000000000E+00  0.00000000000E+00  0.41660271527E+03  0.41660271527E+03  0.00000000000E+00 0. -1.
         -1   -1    0    0    0  501 -0.00000000000E+00 -0.00000000000E+00 -0.40849778487E+03  0.40849778487E+03  0.00000000000E+00 0.  1.
         23    2    1    2    0    0  0.15374904768E+03 -0.83114655620E+02  0.37250085998E+03  0.42095793973E+03  0.88892523271E+02 0.  0.
         13    1    3    3    0    0  0.12873184926E+03 -0.70399518935E+02  0.21077448239E+03  0.25681484324E+03  0.00000000000E+00 0.  1.
        -13    1    3    3    0    0  0.25017198419E+02 -0.12715136685E+02  0.16172637759E+03  0.16414309649E+03  0.00000000000E+00 0. -1.
         22    1    1    2    0    0 -0.15374904768E+03  0.83114655620E+02 -0.36439592959E+03  0.40414256042E+03  0.00000000000E+00 0.  1.
<mgrwt>
<rscale>  0 0.82506069E+03</rscale>
<asrwt>0</asrwt>
<pdfrwt beam="1">  1        1 0.64092725E-01 0.82506069E+03</pdfrwt>
<pdfrwt beam="2">  1       -1 0.62845813E-01 0.82506069E+03</pdfrwt>
<totfact> 0.14756792E+02</totfact>
</mgrwt>
</event>
<event>
 6    1  0.1603085E-006  0.4497947E+04  0.7818608E-02  0.7910996E-01
          2   -1    0    0  501    0  0.00000000000E+00  0.00000000000E+00  0.20750680113E+04  0.20750680113E+04  0.00000000000E+00 0. -1.
         -2   -1    0    0    0  501 -0.00000000000E+00 -0.00000000000E+00 -0.24374530660E+04  0.24374530660E+04  0.00000000000E+00 0.  1.
         23    2    1    2    0    0  0.21171409026E+04  0.65324180129E+03 -0.56285871021E+03  0.22878412939E+04  0.91637362989E+02 0.  0.
         11    1    3    3    0    0  0.17619056250E+04  0.53976407453E+03 -0.43261829010E+03  0.18928326055E+04  0.00000000000E+00 0. -1.
        -11    1    3    3    0    0  0.35523527756E+03  0.11347772676E+03 -0.13024042011E+03  0.39500868841E+03  0.00000000000E+00 0.  1.
         22    1    1    2    0    0 -0.21171409026E+04 -0.65324180129E+03  0.20047365554E+03  0.22246797834E+04  0.00000000000E+00 0. -1.
<mgrwt>
<rscale>  0 0.44979466E+04</rscale>
<asrwt>0</asrwt>
<pdfrwt beam="1">  1        2 0.31924123E+00 0.44979466E+04</pdfrwt>
<pdfrwt beam="2">  1       -2 0.37499278E+00 0.44979466E+04</pdfrwt>
<totfact> 0.49586710E-02</totfact>
</mgrwt>
</event>
<event>
 6    1  0.1603085E-006  0.3304398E+04  0.7818608E-02  0.8161777E-01
          1   -1    0    0  501    0  0.00000000000E+00  0.00000000000E+00  0.28603373765E+04  0.28603373765E+04  0.00000000000E+00 0. -1.
         -1   -1    0    0    0  501 -0.00000000000E+00 -0.00000000000E+00 -0.95434932213E+03  0.95434932213E+03  0.00000000000E+00 0.  1.
         23    2    1    2    0    0 -0.11404849947E+04  0.80934994565E+02  0.23286021556E+04  0.25957284651E+04  0.90342511033E+02 0.  0.
         13    1    3    3    0    0 -0.63196548866E+03  0.85661756651E+02  0.12526297769E+04  0.14056314145E+04  0.00000000000E+00 0.  1.
        -13    1    3    3    0    0 -0.50851950607E+03 -0.47267620865E+01  0.10759723787E+04  0.11900970507E+04  0.00000000000E+00 0. -1.
         22    1    1    2    0    0  0.11404849947E+04 -0.80934994565E+02 -0.42261410116E+03  0.12189582335E+04  0.00000000000E+00 0.  1.
<mgrwt>
<rscale>  0 0.33043977E+04</rscale>
<asrwt>0</asrwt>
<pdfrwt beam="1">  1        1 0.44005190E+00 0.33043977E+04</pdfrwt>
<pdfrwt beam="2">  1       -1 0.14682297E+00 0.33043977E+04</pdfrwt>
<totfact> 0.23108351E-01</totfact>
</mgrwt>
</event>
<event>
 6    1  0.1603085E-006  0.3489393E+04  0.7818608E-02  0.8116308E-01
          2   -1    0    0  501    0  0.00000000000E+00  0.00000000000E+00  0.38339085018E+04  0.38339085018E+04  0.00000000000E+00 0. -1.
         -2   -1    0    0    0  501 -0.00000000000E+00 -0.00000000000E+00 -0.79395910291E+03  0.79395910291E+03  0.00000000000E+00 0.  1.
         23    2    1    2    0    0 -0.12088630269E+04  0.37931758866E+03  0.31092848668E+04  0.33589944597E+04  0.99798527709E+02 0.  0.
         11    1    3    3    0    0 -0.97048960773E+03  0.33926669627E+03  0.25707559318E+04  0.27687069239E+04  0.00000000000E+00 0. -1.
        -11    1    3    3    0    0 -0.23837341920E+03  0.40050892394E+02  0.53852893504E+03  0.59028753573E+03  0.00000000000E+00 0.  1.
         22    1    1    2    0    0  0.12088630269E+04 -0.37931758866E+03 -0.69335467976E+02  0.12688731450E+04  0.00000000000E+00 0.  1.
<mgrwt>
<rscale>  0 0.34893934E+04</rscale>
<asrwt>0</asrwt>
<pdfrwt beam="1">  1        2 0.58983207E+00 0.34893934E+04</pdfrwt>
<pdfrwt beam="2">  1       -2 0.12214756E+00 0.34893934E+04</pdfrwt>
<totfact> 0.19286286E-01</totfact>
</mgrwt>
</event>
<event>
 6    1  0.1603085E-006  0.3298030E+04  0.7818608E-02  0.8163397E-01
          2   -1    0    0  501    0  0.00000000000E+00  0.00000000000E+00  0.19138043301E+04  0.19138043301E+04  0.00000000000E+00 0. -1.
         -2   -1    0    0    0  501 -0.00000000000E+00 -0.00000000000E+00 -0.14208614064E+04  0.14208614064E+04  0.00000000000E+00 0.  1.
         23    2    1    2    0    0  0.17746683131E+03  0.11022450363E+04 -0.97869103619E+03  0.14874664760E+04  0.91004266676E+02 0.  0.
         13    1    3    3    0    0  0.11212270133E+03  0.74631938035E+03 -0.60481033614E+03  0.96713993834E+03  0.00000000000E+00 0.  1.
        -13    1    3    3    0    0  0.65344129987E+02  0.35592565593E+03 -0.37388070005E+03  0.52032653761E+03  0.00000000000E+00 0. -1.
         22    1    1    2    0    0 -0.17746683131E+03 -0.11022450363E+04  0.14716339599E+04  0.18471992605E+04  0.00000000000E+00 0. -1.
<mgrwt>
<rscale>  0 0.32980301E+04</rscale>
<asrwt>0</asrwt>
<pdfrwt beam="1">  1        2 0.29443144E+00 0.32980301E+04</pdfrwt>
<pdfrwt beam="2">  1       -2 0.21859406E+00 0.32980301E+04</pdfrwt>
<totfact> 0.62879268E-01</totfact>
</mgrwt>
</event>
<event>
 6    1  0.1603085E-006  0.1253434E+04  0.7818608E-02  0.9067330E-01
         -2   -1    0    0    0  501 -0.00000000000E+00  0.00000000000E+00  0.15005176950E+03  0.15005176950E+03  0.00000000000E+00 0. -1.
          2   -1    0    0  501    0  0.00000000000E+00 -0.00000000000E+00 -0.26175927353E+04  0.26175927353E+04  0.00000000000E+00 0.  1.
         23    2    1    2    0    0  0.21021794245E+02  0.60925844092E+03 -0.94892536611E+03  0.11312365168E+04  0.87171914857E+02 0.  0.
         11    1    3    3    0    0  0.17395584582E+02  0.18845602677E+03 -0.22628656014E+03  0.29499811472E+03  0.00000000000E+00 0. -1.
        -11    1    3    3    0    0  0.36262096623E+01  0.42080241415E+03 -0.72263880597E+03  0.83623840204E+03  0.00000000000E+00 0.  1.
         22    1    1    2    0    0 -0.21021794245E+02 -0.60925844092E+03 -0.15186155997E+04  0.16364079880E+04  0.00000000000E+00 0. -1.
<mgrwt>
<rscale>  0 0.12534344E+04</rscale>
<asrwt>0</asrwt>
<pdfrwt beam="1">  1        2 0.40270653E+00 0.12534344E+04</pdfrwt>
<pdfrwt beam="2">  1       -2 0.23084890E-01 0.12534344E+04</pdfrwt>
<totfact> 0.48738256E+01</totfact>
</mgrwt>
</event>
<event>
 6    1  0.1603085E-006  0.1420391E+04  0.7818608E-02  0.8939189E-01
          2   -1    0    0  501    0  0.00000000000E+00  0.00000000000E+00  0.10316074380E+04  0.10316074380E+04  0.00000000000E+00 0. -1.
         -2   -1    0    0    0  501 -0.00000000000E+00 -0.00000000000E+00 -0.48892393322E+03  0.48892393322E+03  0.00000000000E+00 0.  1.
         23    2    1    2    0    0  0.17907811908E+03  0.61643372306E+03  0.59090627227E+03  0.87680398877E+03  0.86922404771E+02 0.  0.
         13    1    3    3    0    0 -0.33924179040E+01  0.24718642011E+02  0.75121564346E+01  0.26056712310E+02  0.00000000000E+00 0.  1.
        -13    1    3    3    0    0  0.18247053698E+03  0.59171508105E+03  0.58339411583E+03  0.85074727646E+03  0.00000000000E+00 0. -1.
         22    1    1    2    0    0 -0.17907811908E+03 -0.61643372306E+03 -0.48222767460E+02  0.64372738249E+03  0.00000000000E+00 0.  1.
<mgrwt>
<rscale>  0 0.14203909E+04</rscale>
<asrwt>0</asrwt>
<pdfrwt beam="1">  1        2 0.15870884E+00 0.14203909E+04</pdfrwt>
<pdfrwt beam="2">  1       -2 0.75219067E-01 0.14203909E+04</pdfrwt>
<totfact> 0.37081008E+01</totfact>
</mgrwt>
</event>
<event>
 6    1  0.1603085E-006  0.5282029E+03  0.7818608E-02  0.1006669E+00
          1   -1    0    0  501    0  0.00000000000E+00  0.00000000000E+00  0.15570187649E+04  0.15570187649E+04  0.00000000000E+00 0. -1.
         -1   -1    0    0    0  501 -0.00000000000E+00 -0.00000000000E+00 -0.44796873472E+02  0.44796873472E+02  0.00000000000E+00 0.  1.
         23    2    1    2    0    0 -0.23151566510E+03 -0.73027840630E+02  0.59695441745E+03  0.65490111340E+03  0.11665471750E+03 0.  0.
         11    1    3    3    0    0 -0.20416670754E+03 -0.16199949869E+02  0.48365084568E+03  0.52522816315E+03  0.00000000000E+00 0. -1.
        -11    1    3    3    0    0 -0.27348957564E+02 -0.56827890760E+02  0.11330357177E+03  0.12967295024E+03  0.00000000000E+00 0.  1.
         22    1    1    2    0    0  0.23151566510E+03  0.73027840630E+02  0.91526747399E+03  0.94691452499E+03  0.00000000000E+00 0. -1.
<mgrwt>
<rscale>  0 0.52820289E+03</rscale>
<asrwt>0</asrwt>
<pdfrwt beam="1">  1        1 0.23954131E+00 0.52820289E+03</pdfrwt>
<pdfrwt beam="2">  1       -1 0.68918279E-02 0.52820289E+03</pdfrwt>
<totfact> 0.69672848E+02</totfact>
</mgrwt>
</event>
<event>
 6    1  0.1603085E-006  0.7723805E+04  0.7818608E-02  0.7507071E-01
         -2   -1    0    0    0  501 -0.00000000000E+00  0.00000000000E+00  0.37881012992E+04  0.37881012992E+04  0.00000000000E+00 0.  1.
          2   -1    0    0  501    0  0.00000000000E+00 -0.00000000000E+00 -0.39371415126E+04  0.39371415126E+04  0.00000000000E+00 0. -1.
         23    2    1    2    0    0 -0.22236391972E+04 -0.42379069101E+03  0.30544119457E+04  0.38027084824E+04  0.83604061089E+02 0.  0.
         11    1    3    3    0    0 -0.14314040553E+04 -0.29400371654E+03  0.19136172735E+04  0.24077555574E+04  0.00000000000E+00 0. -1.
        -11    1    3    3    0    0 -0.79223514192E+03 -0.12978697448E+03  0.11407946722E+04  0.13949529250E+04  0.00000000000E+00 0.  1.
         22    1    1    2    0    0  0.22236391972E+04  0.42379069101E+03 -0.32034521592E+04  0.39225343294E+04  0.00000000000E+00 0. -1.
<mgrwt>
<rscale>  0 0.77238050E+04</rscale>
<asrwt>0</asrwt>
<pdfrwt beam="1">  1        2 0.60571408E+00 0.77238050E+04</pdfrwt>
<pdfrwt beam="2">  1       -2 0.58278482E+00 0.77238050E+04</pdfrwt>
<totfact> 0.13947868E-04</totfact>
</mgrwt>
</event>
<event>
 6    1  0.1603085E-006  0.1098895E+04  0.7818608E-02  0.9206269E-01
         -2   -1    0    0    0  501 -0.00000000000E+00  0.00000000000E+00  0.10498513173E+03  0.10498513173E+03  0.00000000000E+00 0.  1.
          2   -1    0    0  501    0  0.00000000000E+00 -0.00000000000E+00 -0.28755750024E+04  0.28755750024E+04  0.00000000000E+00 0. -1.
         23    2    1    2    0    0 -0.23756112835E+02  0.19560404511E+03 -0.27749638480E+04  0.27834702383E+04  0.91961485621E+02 0.  0.
         11    1    3    3    0    0  0.35293041861E+02  0.69739469294E+02 -0.10643402404E+04  0.10672063248E+04  0.00000000000E+00 0.  1.
        -11    1    3    3    0    0 -0.59049154697E+02  0.12586457582E+03 -0.17106236076E+04  0.17162639136E+04  0.00000000000E+00 0. -1.
         22    1    1    2    0    0  0.23756112835E+02 -0.19560404511E+03  0.43739772577E+01  0.19708989583E+03  0.00000000000E+00 0.  1.
<mgrwt>
<rscale>  0 0.10988951E+04</rscale>
<asrwt>0</asrwt>
<pdfrwt beam="1">  1        2 0.44239621E+00 0.10988951E+04</pdfrwt>
<pdfrwt beam="2">  1       -2 0.16151557E-01 0.10988951E+04</pdfrwt>
<totfact> 0.64969353E+01</totfact>
</mgrwt>
</event>
<event>
 6    1  0.1603085E-006  0.1358257E+04  0.7818608E-02  0.8984601E-01
         -2   -1    0    0    0  501 -0.00000000000E+00  0.00000000000E+00  0.98030811362E+03  0.98030811362E+03  0.00000000000E+00 0.  1.
          2   -1    0    0  501    0  0.00000000000E+00 -0.00000000000E+00 -0.47048006558E+03  0.47048006558E+03  0.00000000000E+00 0. -1.
         23    2    1    2    0    0  0.34174783194E+03  0.13936161550E+03  0.86110192021E+03  0.94127216003E+03  0.91013854732E+02 0.  0.
         13    1    3    3    0    0  0.52095499129E+02  0.32914091170E+02  0.23928389753E+03  0.24709120187E+03  0.00000000000E+00 0. -1.
        -13    1    3    3    0    0  0.28965233281E+03  0.10644752433E+03  0.62181802268E+03  0.69418095816E+03  0.00000000000E+00 0.  1.
         22    1    1    2    0    0 -0.34174783194E+03 -0.13936161550E+03 -0.35127387217E+03  0.50951601916E+03  0.00000000000E+00 0. -1.
<mgrwt>
<rscale>  0 0.13582569E+04</rscale>
<asrwt>0</asrwt>
<pdfrwt beam="1">  1        2 0.72381549E-01 0.13582569E+04</pdfrwt>
<pdfrwt beam="2">  1       -2 0.15081663E+00 0.13582569E+04</pdfrwt>
<totfact> 0.19032824E+01</totfact>
</mgrwt>
</event>
<event>
 6    1  0.1603085E-006  0.1835259E+04  0.7818608E-02  0.8687771E-01
         -2   -1    0    0    0  501 -0.00000000000E+00  0.00000000000E+00  0.85326411948E+03  0.85326411948E+03  0.00000000000E+00 0.  1.
          2   -1    0    0  501    0  0.00000000000E+00 -0.00000000000E+00 -0.98684983830E+03  0.98684983830E+03  0.00000000000E+00 0. -1.
         23    2    1    2    0    0 -0.18808508746E+03  0.42536164171E+03  0.72361437024E+03  0.86487013234E+03  0.89855787924E+02 0.  0.
         13    1    3    3    0    0 -0.14224988040E+03  0.35371281609E+03  0.64388704738E+03  0.74829026088E+03  0.00000000000E+00 0.  1.
        -13    1    3    3    0    0 -0.45835207055E+02  0.71648825616E+02  0.79727322862E+02  0.11657987146E+03  0.00000000000E+00 0. -1.
         22    1    1    2    0    0  0.18808508746E+03 -0.42536164171E+03 -0.85720008907E+03  0.97524382544E+03  0.00000000000E+00 0. -1.
<mgrwt>
<rscale>  0 0.18352586E+04</rscale>
<asrwt>0</asrwt>
<pdfrwt beam="1">  1        2 0.15182305E+00 0.18352586E+04</pdfrwt>
<pdfrwt beam="2">  1       -2 0.13127140E+00 0.18352586E+04</pdfrwt>
<totfact> 0.10245479E+01</totfact>
</mgrwt>
</event>
<event>
 6    1  0.1603085E-006  0.3992281E+04  0.7818608E-02  0.8006106E-01
          2   -1    0    0  501    0  0.00000000000E+00  0.00000000000E+00  0.20267539701E+04  0.20267539701E+04  0.00000000000E+00 0. -1.
         -2   -1    0    0    0  501 -0.00000000000E+00 -0.00000000000E+00 -0.19659895546E+04  0.19659895546E+04  0.00000000000E+00 0.  1.
         23    2    1    2    0    0 -0.11526892643E+04 -0.15360446533E+04 -0.51008328153E+03  0.19892483762E+04  0.93799952784E+02 0.  0.
         11    1    3    3    0    0 -0.92290769645E+03 -0.12414389683E+04 -0.37273417297E+03  0.15911819795E+04  0.00000000000E+00 0. -1.
        -11    1    3    3    0    0 -0.22978156783E+03 -0.29460568498E+03 -0.13734910856E+03  0.39806639667E+03  0.00000000000E+00 0.  1.
         22    1    1    2    0    0  0.11526892643E+04  0.15360446533E+04  0.57084769695E+03  0.20034951485E+04  0.00000000000E+00 0. -1.
<mgrwt>
<rscale>  0 0.39922811E+04</rscale>
<asrwt>0</asrwt>
<pdfrwt beam="1">  1        2 0.31180830E+00 0.39922811E+04</pdfrwt>
<pdfrwt beam="2">  1       -2 0.30245993E+00 0.39922811E+04</pdfrwt>
<totfact> 0.15645187E-01</totfact>
</mgrwt>
</event>
<event>
 6    1  0.1603085E-006  0.3857362E+04  0.7818608E-02  0.8033956E-01
          2   -1    0    0  501    0  0.00000000000E+00  0.00000000000E+00  0.18007107210E+04  0.18007107210E+04  0.00000000000E+00 0. -1.
         -2   -1    0    0    0  501 -0.00000000000E+00 -0.00000000000E+00 -0.20657451812E+04  0.20657451812E+04  0.00000000000E+00 0.  1.
         23    2    1    2    0    0 -0.28073142289E+03 -0.11738107545E+04 -0.16391511946E+04  0.20375659057E+04  0.90644149798E+02 0.  0.
         11    1    3    3    0    0 -0.19478296213E+03 -0.72279241243E+03 -0.10799643414E+04  0.13140366252E+04  0.00000000000E+00 0.  1.
        -11    1    3    3    0    0 -0.85948460756E+02 -0.45101834212E+03 -0.55918685324E+03  0.72352928045E+03  0.00000000000E+00 0. -1.
         22    1    1    2    0    0  0.28073142289E+03  0.11738107545E+04  0.13741167344E+04  0.18288899964E+04  0.00000000000E+00 0. -1.
<mgrwt>
<rscale>  0 0.38573615E+04</rscale>
<asrwt>0</asrwt>
<pdfrwt beam="1">  1        2 0.27703242E+00 0.38573615E+04</pdfrwt>
<pdfrwt beam="2">  1       -2 0.31780695E+00 0.38573615E+04</pdfrwt>
<totfact> 0.16993753E-01</totfact>
</mgrwt>
</event>
<event>
 6    1  0.1603085E-006  0.2649695E+04  0.7818608E-02  0.8351514E-01
          2   -1    0    0  501    0  0.00000000000E+00  0.00000000000E+00  0.15749766755E+04  0.15749766755E+04  0.00000000000E+00 0. -1.
         -2   -1    0    0    0  501 -0.00000000000E+00 -0.00000000000E+00 -0.11144424032E+04  0.11144424032E+04  0.00000000000E+00 0.  1.
         23    2    1    2    0    0  0.12600213077E+04 -0.25649718126E+03 -0.86790881627E+02  0.12919179788E+04  0.89860485739E+02 0.  0.
         11    1    3    3    0    0  0.54644486297E+03 -0.76032748912E+02 -0.65317446245E+02  0.55556218010E+03  0.00000000000E+00 0.  1.
        -11    1    3    3    0    0  0.71357644478E+03 -0.18046443235E+03 -0.21473435383E+02  0.73635579872E+03  0.00000000000E+00 0. -1.
         22    1    1    2    0    0 -0.12600213077E+04  0.25649718126E+03  0.54732515392E+03  0.13975010999E+04  0.00000000000E+00 0. -1.
<mgrwt>
<rscale>  0 0.26496949E+04</rscale>
<asrwt>0</asrwt>
<pdfrwt beam="1">  1        2 0.24230410E+00 0.26496949E+04</pdfrwt>
<pdfrwt beam="2">  1       -2 0.17145268E+00 0.26496949E+04</pdfrwt>
<totfact> 0.21121503E+00</totfact>
</mgrwt>
</event>
<event>
 6    1  0.1603085E-006  0.2510352E+04  0.7818608E-02  0.8399307E-01
         -1   -1    0    0    0  501 -0.00000000000E+00  0.00000000000E+00  0.66940202401E+03  0.66940202401E+03  0.00000000000E+00 0.  1.
          1   -1    0    0  501    0  0.00000000000E+00 -0.00000000000E+00 -0.23535428141E+04  0.23535428141E+04  0.00000000000E+00 0. -1.
         23    2    1    2    0    0 -0.44350751369E+03 -0.11680059667E+04 -0.72049457588E+03  0.14451137701E+04  0.91129148376E+02 0.  0.
         11    1    3    3    0    0 -0.18180815160E+03 -0.36477931111E+03 -0.25018305740E+03  0.47823604215E+03  0.00000000000E+00 0. -1.
        -11    1    3    3    0    0 -0.26169936209E+03 -0.80322665560E+03 -0.47031151848E+03  0.96687772794E+03  0.00000000000E+00 0.  1.
         22    1    1    2    0    0  0.44350751369E+03  0.11680059667E+04 -0.96364621420E+03  0.15778310680E+04  0.00000000000E+00 0. -1.
<mgrwt>
<rscale>  0 0.25103516E+04</rscale>
<asrwt>0</asrwt>
<pdfrwt beam="1">  1        1 0.36208350E+00 0.25103516E+04</pdfrwt>
<pdfrwt beam="2">  1       -1 0.10298493E+00 0.25103516E+04</pdfrwt>
<totfact> 0.13514350E+00</totfact>
</mgrwt>
</event>
<event>
 6    1  0.1603085E-006  0.2770917E+04  0.7818608E-02  0.8312355E-01
          1   -1    0    0  501    0  0.00000000000E+00  0.00000000000E+00  0.13726465372E+04  0.13726465372E+04  0.00000000000E+00 0. -1.
         -1   -1    0    0    0  501 -0.00000000000E+00 -0.00000000000E+00 -0.13983896132E+04  0.13983896132E+04  0.00000000000E+00 0.  1.
         23    2    1    2    0    0 -0.53898640715E+03  0.41578667842E+03 -0.12179190757E+04  0.13982038506E+04  0.90896776492E+02 0.  0.
         11    1    3    3    0    0 -0.34188671826E+02  0.56096995471E+02 -0.14323451011E+03  0.15758129035E+03  0.00000000000E+00 0. -1.
        -11    1    3    3    0    0 -0.50479773533E+03  0.35968968295E+03 -0.10746845656E+04  0.12406225603E+04  0.00000000000E+00 0.  1.
         22    1    1    2    0    0  0.53898640715E+03 -0.41578667842E+03  0.11921759997E+04  0.13728322998E+04  0.00000000000E+00 0. -1.
<mgrwt>
<rscale>  0 0.27709166E+04</rscale>
<asrwt>0</asrwt>
<pdfrwt beam="1">  1        1 0.21117639E+00 0.27709166E+04</pdfrwt>
<pdfrwt beam="2">  1       -1 0.21513686E+00 0.27709166E+04</pdfrwt>
<totfact> 0.82713858E-01</totfact>
</mgrwt>
</event>
<event>
 6    1  0.1603085E-006  0.4021708E+04  0.7818608E-02  0.8000182E-01
          1   -1    0    0  501    0  0.00000000000E+00  0.00000000000E+00  0.25751538887E+04  0.25751538887E+04  0.00000000000E+00 0. -1.
         -1   -1    0    0    0  501 -0.00000000000E+00 -0.00000000000E+00 -0.15702104432E+04  0.15702104432E+04  0.00000000000E+00 0.  1.
         23    2    1    2    0    0 -0.83480617554E+02  0.16403844108E+04 -0.69147084434E+03  0.17840825885E+04  0.83598596915E+02 0.  0.
         11    1    3    3    0    0 -0.10011701464E+03  0.14341982967E+04 -0.59832460343E+03  0.15572220465E+04  0.00000000000E+00 0. -1.
        -11    1    3    3    0    0  0.16636397083E+02  0.20618611407E+03 -0.93146240912E+02  0.22686054205E+03  0.00000000000E+00 0.  1.
         22    1    1    2    0    0  0.83480617554E+02 -0.16403844108E+04  0.16964142899E+04  0.23612817434E+04  0.00000000000E+00 0. -1.
<mgrwt>
<rscale>  0 0.40217079E+04</rscale>
<asrwt>0</asrwt>
<pdfrwt beam="1">  1        1 0.39617752E+00 0.40217079E+04</pdfrwt>
<pdfrwt beam="2">  1       -1 0.24157084E+00 0.40217079E+04</pdfrwt>
<totfact> 0.74278724E-02</totfact>
</mgrwt>
</event>
<event>
 6    1  0.1603085E-006  0.1022983E+04  0.7818608E-02  0.9283691E-01
         -1   -1    0    0    0  501 -0.00000000000E+00  0.00000000000E+00  0.13805394090E+04  0.13805394090E+04  0.00000000000E+00 0.  1.
          1   -1    0    0  501    0  0.00000000000E+00 -0.00000000000E+00 -0.18950807619E+03  0.18950807619E+03  0.00000000000E+00 0. -1.
         23    2    1    2    0    0 -0.20421616951E+00 -0.41065005663E+03  0.10575741973E+04  0.11382555008E+04  0.92351998307E+02 0.  0.
         13    1    3    3    0    0 -0.29398189272E+01 -0.68138771793E+02  0.28686499927E+03  0.29486109029E+03  0.00000000000E+00 0.  1.
        -13    1    3    3    0    0  0.27356027577E+01 -0.34251128484E+03  0.77070919807E+03  0.84339441055E+03  0.00000000000E+00 0. -1.
         22    1    1    2    0    0  0.20421616951E+00  0.41065005663E+03  0.13345713543E+03  0.43179198431E+03  0.00000000000E+00 0. -1.
<mgrwt>
<rscale>  0 0.10229826E+04</rscale>
<asrwt>0</asrwt>
<pdfrwt beam="1">  1        1 0.29155090E-01 0.10229826E+04</pdfrwt>
<pdfrwt beam="2">  1       -1 0.21239067E+00 0.10229826E+04</pdfrwt>
<totfact> 0.19842242E+01</totfact>
</mgrwt>
</event>
<event>
 6    1  0.1603085E-006  0.2223725E+04  0.7818608E-02  0.8508618E-01
          1   -1    0    0  501    0  0.00000000000E+00  0.00000000000E+00  0.10349841768E+04  0.10349841768E+04  0.00000000000E+00 0. -1.
         -1   -1    0    0    0  501 -0.00000000000E+00 -0.00000000000E+00 -0.11944511874E+04  0.11944511874E+04  0.00000000000E+00 0.  1.
         23    2    1    2    0    0 -0.97703889698E+03 -0.17763333465E+03  0.41778598199E+03  0.10807928500E+04  0.86078162971E+02 0.  0.
         11    1    3    3    0    0 -0.89373211487E+03 -0.18647119610E+03  0.38485789732E+03  0.99077959267E+03  0.00000000000E+00 0.  1.
        -11    1    3    3    0    0 -0.83306782109E+02  0.88378614483E+01  0.32928084670E+02  0.90013257359E+02  0.00000000000E+00 0. -1.
         22    1    1    2    0    0  0.97703889698E+03  0.17763333465E+03 -0.57725299257E+03  0.11486425141E+04  0.00000000000E+00 0.  1.
<mgrwt>
<rscale>  0 0.22237249E+04</rscale>
<asrwt>0</asrwt>
<pdfrwt beam="1">  1        1 0.15922833E+00 0.22237249E+04</pdfrwt>
<pdfrwt beam="2">  1       -1 0.18376172E+00 0.22237249E+04</pdfrwt>
<totfact> 0.25293620E+00</totfact>
</mgrwt>
</event>
<event>
 6    1  0.1603085E-006  0.3804221E+04  0.7818608E-02  0.8045250E-01
         -3   -1    0    0    0  501 -0.00000000000E+00  0.00000000000E+00  0.11356222863E+04  0.11356222863E+04  0.00000000000E+00 0.  1.
          3   -1    0    0  501    0  0.00000000000E+00 -0.00000000000E+00 -0.31859401708E+04  0.31859401708E+04  0.00000000000E+00 0. -1.
         23    2    1    2    0    0 -0.12634895195E+04  0.58383973148E+03 -0.24966635599E+04  0.28598856597E+04  0.91337053171E+02 0.  0.
         11    1    3    3    0    0 -0.91824518790E+03  0.46658972555E+03 -0.18198041646E+04  0.20910684816E+04  0.00000000000E+00 0.  1.
        -11    1    3    3    0    0 -0.34524433159E+03  0.11725000593E+03 -0.67685939532E+03  0.76881717815E+03  0.00000000000E+00 0. -1.
         22    1    1    2    0    0  0.12634895195E+04 -0.58383973148E+03  0.44634567542E+03  0.14616767973E+04  0.00000000000E+00 0.  1.
<mgrwt>
<rscale>  0 0.38042212E+04</rscale>
<asrwt>0</asrwt>
<pdfrwt beam="1">  1        3 0.49014464E+00 0.38042212E+04</pdfrwt>
<pdfrwt beam="2">  1       -3 0.17471112E+00 0.38042212E+04</pdfrwt>
<totfact> 0.17033425E-03</totfact>
</mgrwt>
</event>
<event>
 6    1  0.2201840E-006  0.3651584E+04  0.7818608E-02  0.8078777E-01
          2   -1    0    0  501    0  0.00000000000E+00  0.00000000000E+00  0.29884661344E+04  0.29884661344E+04  0.00000000000E+00 0. -1.
         -2   -1    0    0    0  501 -0.00000000000E+00 -0.00000000000E+00 -0.11154606679E+04  0.11154606679E+04  0.00000000000E+00 0.  1.
         23    2    1    2    0    0 -0.51782048313E+03  0.80004734378E+03  0.26858280721E+04  0.28513716565E+04  0.91837280122E+02 0.  0.
         11    1    3    3    0    0 -0.23070549622E+03  0.43510890779E+03  0.13325473908E+04  0.14206432826E+04  0.00000000000E+00 0. -1.
        -11    1    3    3    0    0 -0.28711498691E+03  0.36493843598E+03  0.13532806813E+04  0.14307283740E+04  0.00000000000E+00 0.  1.
         22    1    1    2    0    0  0.51782048313E+03 -0.80004734378E+03 -0.81282260558E+03  0.12525551458E+04  0.00000000000E+00 0.  1.
<mgrwt>
<rscale>  0 0.36515840E+04</rscale>
<asrwt>0</asrwt>
<pdfrwt beam="1">  1        2 0.45976402E+00 0.36515840E+04</pdfrwt>
<pdfrwt beam="2">  1       -2 0.17160933E+00 0.36515840E+04</pdfrwt>
<totfact> 0.29808927E-01</totfact>
</mgrwt>
</event>
<event>
 6    1  0.1603085E-006  0.4374876E+04  0.7818608E-02  0.7932916E-01
          1   -1    0    0  501    0  0.00000000000E+00  0.00000000000E+00  0.46011513685E+04  0.46011513685E+04  0.00000000000E+00 0. -1.
         -1   -1    0    0    0  501 -0.00000000000E+00 -0.00000000000E+00 -0.10399321033E+04  0.10399321033E+04  0.00000000000E+00 0.  1.
         23    2    1    2    0    0  0.73605531593E+03  0.31372616451E+03 -0.84236666029E+03  0.11653968723E+04  0.91469913645E+02 0.  0.
         11    1    3    3    0    0  0.40838711494E+03  0.21783757632E+03 -0.51434572560E+03  0.69194275106E+03  0.00000000000E+00 0. -1.
        -11    1    3    3    0    0  0.32766820099E+03  0.95888588193E+02 -0.32802093469E+03  0.47345412120E+03  0.00000000000E+00 0.  1.
         22    1    1    2    0    0 -0.73605531593E+03 -0.31372616451E+03  0.44035859254E+04  0.44756865995E+04  0.00000000000E+00 0. -1.
<mgrwt>
<rscale>  0 0.43748760E+04</rscale>
<asrwt>0</asrwt>
<pdfrwt beam="1">  1        1 0.70786943E+00 0.43748760E+04</pdfrwt>
<pdfrwt beam="2">  1       -1 0.15998956E+00 0.43748760E+04</pdfrwt>
<totfact> 0.55577668E-03</totfact>
</mgrwt>
</event>
<event>
 6    1  0.1603085E-006  0.1887815E+04  0.7818608E-02  0.8660945E-01
         -2   -1    0    0    0  501 -0.00000000000E+00  0.00000000000E+00  0.64279836120E+03  0.64279836120E+03  0.00000000000E+00 0.  1.
          2   -1    0    0  501    0  0.00000000000E+00 -0.00000000000E+00 -0.13860669837E+04  0.13860669837E+04  0.00000000000E+00 0. -1.
         23    2    1    2    0    0 -0.30825388930E+03  0.68629013972E+03 -0.98108787740E+03  0.12398326370E+04  0.92935077127E+02 0.  0.
         11    1    3    3    0    0 -0.12858898924E+03  0.34130369462E+03 -0.54136016397E+03  0.65275888906E+03  0.00000000000E+00 0.  1.
        -11    1    3    3    0    0 -0.17966490005E+03  0.34498644510E+03 -0.43972771343E+03  0.58707374799E+03  0.00000000000E+00 0. -1.
         22    1    1    2    0    0  0.30825388930E+03 -0.68629013972E+03  0.23781925486E+03  0.78903270789E+03  0.00000000000E+00 0.  1.
<mgrwt>
<rscale>  0 0.18878152E+04</rscale>
<asrwt>0</asrwt>
<pdfrwt beam="1">  1        2 0.21324107E+00 0.18878152E+04</pdfrwt>
<pdfrwt beam="2">  1       -2 0.98892057E-01 0.18878152E+04</pdfrwt>
<totfact> 0.11720145E+01</totfact>
</mgrwt>
</event>
<event>
 6    1  0.1603085E-006  0.1539373E+04  0.7818608E-02  0.8858685E-01
         -2   -1    0    0    0  501 -0.00000000000E+00  0.00000000000E+00  0.20339836457E+03  0.20339836457E+03  0.00000000000E+00 0.  1.
          2   -1    0    0  501    0  0.00000000000E+00 -0.00000000000E+00 -0.29125945017E+04  0.29125945017E+04  0.00000000000E+00 0. -1.
         23    2    1    2    0    0 -0.47476095668E+03  0.57945983774E+03 -0.16929108644E+04  0.18534527975E+04  0.90379247728E+02 0.  0.
         13    1    3    3    0    0 -0.11189470314E+03  0.19030548221E+03 -0.44138406818E+03  0.49351443423E+03  0.00000000000E+00 0. -1.
        -13    1    3    3    0    0 -0.36286625355E+03  0.38915435553E+03 -0.12515267962E+04  0.13599383633E+04  0.00000000000E+00 0.  1.
         22    1    1    2    0    0  0.47476095668E+03 -0.57945983774E+03 -0.10162852728E+04  0.12625400687E+04  0.00000000000E+00 0.  1.
<mgrwt>
<rscale>  0 0.15393725E+04</rscale>
<asrwt>0</asrwt>
<pdfrwt beam="1">  1        2 0.44809142E+00 0.15393725E+04</pdfrwt>
<pdfrwt beam="2">  1       -2 0.31292059E-01 0.15393725E+04</pdfrwt>
<totfact> 0.18119076E+01</totfact>
</mgrwt>
</event>
<event>
 6    1  0.1603085E-006  0.3293919E+04  0.7818608E-02  0.8164444E-01
          2   -1    0    0  501    0  0.00000000000E+00  0.00000000000E+00  0.20638903899E+04  0.20638903899E+04  0.00000000000E+00 0. -1.
         -2   -1    0    0    0  501 -0.00000000000E+00 -0.00000000000E+00 -0.13142540453E+04  0.13142540453E+04  0.00000000000E+00 0.  1.
         23    2    1    2    0    0 -0.72171077535E+03  0.14297947172E+04 -0.11929815809E+02  0.16046838652E+04  0.98430736634E+02 0.  0.
         11    1    3    3    0    0 -0.22520095916E+03  0.41371485106E+03  0.38896992791E+02  0.47263984813E+03  0.00000000000E+00 0.  1.
        -11    1    3    3    0    0 -0.49650981619E+03  0.10160798662E+04 -0.50826808600E+02  0.11320440170E+04  0.00000000000E+00 0. -1.
         22    1    1    2    0    0  0.72171077535E+03 -0.14297947172E+04  0.76156616046E+03  0.17734605700E+04  0.00000000000E+00 0. -1.
<mgrwt>
<rscale>  0 0.32939194E+04</rscale>
<asrwt>0</asrwt>
<pdfrwt beam="1">  1        2 0.31752160E+00 0.32939194E+04</pdfrwt>
<pdfrwt beam="2">  1       -2 0.20219293E+00 0.32939194E+04</pdfrwt>
<totfact> 0.66184435E-01</totfact>
</mgrwt>
</event>
<event>
 6    1  0.1603085E-006  0.1425725E+04  0.7818608E-02  0.8935405E-01
          2   -1    0    0  501    0  0.00000000000E+00  0.00000000000E+00  0.28555502669E+04  0.28555502669E+04  0.00000000000E+00 0. -1.
         -2   -1    0    0    0  501 -0.00000000000E+00 -0.00000000000E+00 -0.17795968890E+03  0.17795968890E+03  0.00000000000E+00 0.  1.
         23    2    1    2    0    0 -0.37257994800E+03 -0.73462427843E+02  0.26205904113E+04  0.26495027098E+04  0.90321424183E+02 0.  0.
         13    1    3    3    0    0 -0.23726380785E+03 -0.62641388005E+01  0.17263314811E+04  0.17425710134E+04  0.00000000000E+00 0.  1.
        -13    1    3    3    0    0 -0.13531614015E+03 -0.67198289042E+02  0.89425893016E+03  0.90693169644E+03  0.00000000000E+00 0. -1.
         22    1    1    2    0    0  0.37257994800E+03  0.73462427843E+02  0.57000166700E+02  0.38400724597E+03  0.00000000000E+00 0.  1.
<mgrwt>
<rscale>  0 0.14257249E+04</rscale>
<asrwt>0</asrwt>
<pdfrwt beam="1">  1        2 0.43931539E+00 0.14257249E+04</pdfrwt>
<pdfrwt beam="2">  1       -2 0.27378416E-01 0.14257249E+04</pdfrwt>
<totfact> 0.25426295E+01</totfact>
</mgrwt>
</event>
<event>
 6    1  0.1603085E-006  0.2193799E+04  0.7818608E-02  0.8521013E-01
          2   -1    0    0  501    0  0.00000000000E+00  0.00000000000E+00  0.14040937735E+04  0.14040937735E+04  0.00000000000E+00 0. -1.
         -2   -1    0    0    0  501 -0.00000000000E+00 -0.00000000000E+00 -0.85691489953E+03  0.85691489953E+03  0.00000000000E+00 0.  1.
         23    2    1    2    0    0 -0.23649886651E+03 -0.10642458841E+04  0.16951562180E+03  0.11072406947E+04  0.93249097143E+02 0.  0.
         13    1    3    3    0    0 -0.20151236479E+03 -0.70815604606E+03  0.12156883555E+03  0.74623803207E+03  0.00000000000E+00 0. -1.
        -13    1    3    3    0    0 -0.34986501715E+02 -0.35608983809E+03  0.47946786259E+02  0.36100266260E+03  0.00000000000E+00 0.  1.
         22    1    1    2    0    0  0.23649886651E+03  0.10642458841E+04  0.37766325212E+03  0.11537679783E+04  0.00000000000E+00 0. -1.
<mgrwt>
<rscale>  0 0.21937993E+04</rscale>
<asrwt>0</asrwt>
<pdfrwt beam="1">  1        2 0.21601443E+00 0.21937993E+04</pdfrwt>
<pdfrwt beam="2">  1       -2 0.13183306E+00 0.21937993E+04</pdfrwt>
<totfact> 0.55177432E+00</totfact>
</mgrwt>
</event>
<event>
 6    1  0.1603085E-006  0.2017563E+04  0.7818608E-02  0.8598453E-01
         -1   -1    0    0    0  501 -0.00000000000E+00  0.00000000000E+00  0.52266285502E+03  0.52266285502E+03  0.00000000000E+00 0.  1.
          1   -1    0    0  501    0  0.00000000000E+00 -0.00000000000E+00 -0.19470292640E+04  0.19470292640E+04  0.00000000000E+00 0. -1.
         23    2    1    2    0    0  0.26125728880E+03 -0.66627476304E+03  0.15311147803E+03  0.73746409856E+03  0.90734453935E+02 0.  0.
         11    1    3    3    0    0  0.90434668044E+02 -0.13344322281E+03  0.21273068821E+02  0.16259786701E+03  0.00000000000E+00 0. -1.
        -11    1    3    3    0    0  0.17082262076E+03 -0.53283154024E+03  0.13183840921E+03  0.57486623155E+03  0.00000000000E+00 0.  1.
         22    1    1    2    0    0 -0.26125728880E+03  0.66627476304E+03 -0.15774778870E+04  0.17322280204E+04  0.00000000000E+00 0. -1.
<mgrwt>
<rscale>  0 0.20175628E+04</rscale>
<asrwt>0</asrwt>
<pdfrwt beam="1">  1        1 0.29954296E+00 0.20175628E+04</pdfrwt>
<pdfrwt beam="2">  1       -1 0.80409671E-01 0.20175628E+04</pdfrwt>
<totfact> 0.46261160E+00</totfact>
</mgrwt>
</event>
<event>
 6    1  0.1603085E-006  0.2720261E+04  0.7818608E-02  0.8328461E-01
         -2   -1    0    0    0  501 -0.00000000000E+00  0.00000000000E+00  0.13868852662E+04  0.13868852662E+04  0.00000000000E+00 0.  1.
          2   -1    0    0  501    0  0.00000000000E+00 -0.00000000000E+00 -0.13338918663E+04  0.13338918663E+04  0.00000000000E+00 0. -1.
         23    2    1    2    0    0  0.49340270540E+03 -0.10488987926E+04  0.73529747315E+03  0.13757218343E+04  0.91177214463E+02 0.  0.
         13    1    3    3    0    0  0.39636722220E+03 -0.75344309187E+03  0.52230016760E+03  0.99878973392E+03  0.00000000000E+00 0.  1.
        -13    1    3    3    0    0  0.97035483201E+02 -0.29545570074E+03  0.21299730556E+03  0.37693210035E+03  0.00000000000E+00 0. -1.
         22    1    1    2    0    0 -0.49340270540E+03  0.10488987926E+04 -0.68230407331E+03  0.13450552982E+04  0.00000000000E+00 0.  1.
<mgrwt>
<rscale>  0 0.27202610E+04</rscale>
<asrwt>0</asrwt>
<pdfrwt beam="1">  1        2 0.20521413E+00 0.27202610E+04</pdfrwt>
<pdfrwt beam="2">  1       -2 0.21336696E+00 0.27202610E+04</pdfrwt>
<totfact> 0.15074088E+00</totfact>
</mgrwt>
</event>
<event>
 6    1  0.1603085E-006  0.2919953E+04  0.7818608E-02  0.8266966E-01
          1   -1    0    0  501    0  0.00000000000E+00  0.00000000000E+00  0.12665365462E+04  0.12665365462E+04  0.00000000000E+00 0. -1.
         -1   -1    0    0    0  501 -0.00000000000E+00 -0.00000000000E+00 -0.16829604038E+04  0.16829604038E+04  0.00000000000E+00 0.  1.
         23    2    1    2    0    0 -0.11591786969E+03 -0.12864414641E+04  0.47590323056E+03  0.13795873267E+04  0.91699040334E+02 0.  0.
         11    1    3    3    0    0 -0.73359638750E+01 -0.22110620874E+03  0.11651275406E+03  0.25003398523E+03  0.00000000000E+00 0. -1.
        -11    1    3    3    0    0 -0.10858190581E+03 -0.10653352553E+04  0.35939047650E+03  0.11295533414E+04  0.00000000000E+00 0.  1.
         22    1    1    2    0    0  0.11591786969E+03  0.12864414641E+04 -0.89232708824E+03  0.15699096233E+04  0.00000000000E+00 0.  1.
<mgrwt>
<rscale>  0 0.29199526E+04</rscale>
<asrwt>0</asrwt>
<pdfrwt beam="1">  1        1 0.19485178E+00 0.29199526E+04</pdfrwt>
<pdfrwt beam="2">  1       -1 0.25891698E+00 0.29199526E+04</pdfrwt>
<totfact> 0.49956178E-01</totfact>
</mgrwt>
</event>
<event>
 6    1  0.1603085E-006  0.2665153E+04  0.7818608E-02  0.8346401E-01
         -4   -1    0    0    0  501 -0.00000000000E+00  0.00000000000E+00  0.18363712917E+04  0.18363712917E+04  0.00000000000E+00 0. -1.
          4   -1    0    0  501    0  0.00000000000E+00 -0.00000000000E+00 -0.96699426672E+03  0.96699426672E+03  0.00000000000E+00 0.  1.
         23    2    1    2    0    0  0.11788681497E+04  0.28016420900E+03 -0.14377887159E+03  0.12239014186E+04  0.95080072558E+02 0.  0.
         13    1    3    3    0    0  0.24561995196E+03  0.25786439536E+02 -0.77799318575E+01  0.24709234834E+03  0.00000000000E+00 0. -1.
        -13    1    3    3    0    0  0.93324819770E+03  0.25437776946E+03 -0.13599893974E+03  0.97680907024E+03  0.00000000000E+00 0.  1.
         22    1    1    2    0    0 -0.11788681497E+04 -0.28016420900E+03  0.10131558966E+04  0.15794641399E+04  0.00000000000E+00 0. -1.
<mgrwt>
<rscale>  0 0.26651533E+04</rscale>
<asrwt>0</asrwt>
<pdfrwt beam="1">  1        4 0.14876835E+00 0.26651533E+04</pdfrwt>
<pdfrwt beam="2">  1       -4 0.28251866E+00 0.26651533E+04</pdfrwt>
<totfact> 0.21178288E-02</totfact>
</mgrwt>
</event>
<event>
 6    1  0.1603085E-006  0.2845476E+04  0.7818608E-02  0.8289287E-01
         -1   -1    0    0    0  501 -0.00000000000E+00  0.00000000000E+00  0.76224266035E+03  0.76224266035E+03  0.00000000000E+00 0.  1.
          1   -1    0    0  501    0  0.00000000000E+00 -0.00000000000E+00 -0.26555633279E+04  0.26555633279E+04  0.00000000000E+00 0. -1.
         23    2    1    2    0    0 -0.13130497112E+03 -0.81236506406E+03  0.44429265332E+03  0.93957798609E+03  0.90734984475E+02 0.  0.
         11    1    3    3    0    0 -0.99677256821E+02 -0.36092830115E+03  0.22316809669E+03  0.43589998104E+03  0.00000000000E+00 0.  1.
        -11    1    3    3    0    0 -0.31627714301E+02 -0.45143676292E+03  0.22112455663E+03  0.50367800505E+03  0.00000000000E+00 0. -1.
         22    1    1    2    0    0  0.13130497112E+03  0.81236506406E+03 -0.23376133209E+04  0.24782280022E+04  0.00000000000E+00 0. -1.
<mgrwt>
<rscale>  0 0.28454762E+04</rscale>
<asrwt>0</asrwt>
<pdfrwt beam="1">  1        1 0.40854820E+00 0.28454762E+04</pdfrwt>
<pdfrwt beam="2">  1       -1 0.11726810E+00 0.28454762E+04</pdfrwt>
<totfact> 0.59533068E-01</totfact>
</mgrwt>
</event>
<event>
 6    1  0.1603085E-006  0.1284973E+04  0.7818608E-02  0.9041567E-01
         -2   -1    0    0    0  501 -0.00000000000E+00  0.00000000000E+00  0.88733121899E+03  0.88733121899E+03  0.00000000000E+00 0.  1.
          2   -1    0    0  501    0  0.00000000000E+00 -0.00000000000E+00 -0.46520285603E+03  0.46520285603E+03  0.00000000000E+00 0. -1.
         23    2    1    2    0    0  0.44096964804E+03 -0.33347189452E+03 -0.12580771160E+03  0.57414363526E+03  0.90308353336E+02 0.  0.
         13    1    3    3    0    0  0.16873112095E+03 -0.82636506516E+02 -0.66168965744E+02  0.19919165498E+03  0.00000000000E+00 0. -1.
        -13    1    3    3    0    0  0.27223852709E+03 -0.25083538800E+03 -0.59638745859E+02  0.37495198027E+03  0.00000000000E+00 0.  1.
         22    1    1    2    0    0 -0.44096964804E+03  0.33347189452E+03  0.54793607456E+03  0.77839043977E+03  0.00000000000E+00 0.  1.
<mgrwt>
<rscale>  0 0.12849732E+04</rscale>
<asrwt>0</asrwt>
<pdfrwt beam="1">  1        2 0.71569670E-01 0.12849732E+04</pdfrwt>
<pdfrwt beam="2">  1       -2 0.13651250E+00 0.12849732E+04</pdfrwt>
<totfact> 0.25166162E+01</totfact>
</mgrwt>
</event>
<event>
 6    1  0.1603085E-006  0.3358913E+04  0.7818608E-02  0.8148065E-01
         -2   -1    0    0    0  501 -0.00000000000E+00  0.00000000000E+00  0.11763674620E+04  0.11763674620E+04  0.00000000000E+00 0.  1.
          2   -1    0    0  501    0  0.00000000000E+00 -0.00000000000E+00 -0.23976987147E+04  0.23976987147E+04  0.00000000000E+00 0. -1.
         23    2    1    2    0    0  0.98824046318E+03  0.13426909202E+04 -0.81560675373E+03  0.18582426165E+04  0.91723088501E+02 0.  0.
         13    1    3    3    0    0  0.13644511264E+03  0.13949696583E+03 -0.82984050115E+02  0.21204486510E+03  0.00000000000E+00 0. -1.
        -13    1    3    3    0    0  0.85179535054E+03  0.12031939544E+04 -0.73262270362E+03  0.16461977514E+04  0.00000000000E+00 0.  1.
         22    1    1    2    0    0 -0.98824046318E+03 -0.13426909202E+04 -0.40572449898E+03  0.17158235601E+04  0.00000000000E+00 0. -1.
<mgrwt>
<rscale>  0 0.33589134E+04</rscale>
<asrwt>0</asrwt>
<pdfrwt beam="1">  1        2 0.36887672E+00 0.33589134E+04</pdfrwt>
<pdfrwt beam="2">  1       -2 0.18097961E+00 0.33589134E+04</pdfrwt>
<totfact> 0.59168164E-01</totfact>
</mgrwt>
</event>
<event>
 6    1  0.1603085E-006  0.2148227E+04  0.7818608E-02  0.8540291E-01
         -1   -1    0    0    0  501 -0.00000000000E+00  0.00000000000E+00  0.10379506575E+04  0.10379506575E+04  0.00000000000E+00 0.  1.
          1   -1    0    0  501    0  0.00000000000E+00 -0.00000000000E+00 -0.11115367577E+04  0.11115367577E+04  0.00000000000E+00 0. -1.
         23    2    1    2    0    0  0.16817011785E+03  0.41091838957E+02 -0.10955537919E+04  0.11129606714E+04  0.92052254081E+02 0.  0.
         11    1    3    3    0    0  0.15721413981E+03  0.63293606804E+02 -0.89705776061E+03  0.91292660838E+03  0.00000000000E+00 0. -1.
        -11    1    3    3    0    0  0.10955978042E+02 -0.22201767847E+02 -0.19849603127E+03  0.20003406305E+03  0.00000000000E+00 0.  1.
         22    1    1    2    0    0 -0.16817011785E+03 -0.41091838957E+02  0.10219676917E+04  0.10365267438E+04  0.00000000000E+00 0.  1.
<mgrwt>
<rscale>  0 0.21482275E+04</rscale>
<asrwt>0</asrwt>
<pdfrwt beam="1">  1        1 0.17100566E+00 0.21482275E+04</pdfrwt>
<pdfrwt beam="2">  1       -1 0.15968472E+00 0.21482275E+04</pdfrwt>
<totfact> 0.33448271E+00</totfact>
</mgrwt>
</event>
<event>
 6    1  0.1603085E-006  0.2550084E+04  0.7818608E-02  0.8385357E-01
         -2   -1    0    0    0  501 -0.00000000000E+00  0.00000000000E+00  0.83648999971E+03  0.83648999971E+03  0.00000000000E+00 0. -1.
          2   -1    0    0  501    0  0.00000000000E+00 -0.00000000000E+00 -0.19435166328E+04  0.19435166328E+04  0.00000000000E+00 0.  1.
         23    2    1    2    0    0 -0.10990330366E+04 -0.58240683011E+02  0.14400161622E+03  0.11137721732E+04  0.92121635473E+02 0.  0.
         11    1    3    3    0    0 -0.31572570859E+03 -0.62603449384E+01  0.82213209254E+02  0.32631415348E+03  0.00000000000E+00 0.  1.
        -11    1    3    3    0    0 -0.78330732799E+03 -0.51980338073E+02  0.61788406967E+02  0.78745801975E+03  0.00000000000E+00 0. -1.
         22    1    1    2    0    0  0.10990330366E+04  0.58240683011E+02 -0.12510282493E+04  0.16662344592E+04  0.00000000000E+00 0.  1.
<mgrwt>
<rscale>  0 0.25500841E+04</rscale>
<asrwt>0</asrwt>
<pdfrwt beam="1">  1        2 0.29900256E+00 0.25500841E+04</pdfrwt>
<pdfrwt beam="2">  1       -2 0.12869077E+00 0.25500841E+04</pdfrwt>
<totfact> 0.28426601E+00</totfact>
</mgrwt>
</event>
<event>
 6    1  0.1603085E-006  0.1425810E+04  0.7818608E-02  0.8935345E-01
         -2   -1    0    0    0  501 -0.00000000000E+00  0.00000000000E+00  0.76688083759E+03  0.76688083759E+03  0.00000000000E+00 0.  1.
          2   -1    0    0  501    0  0.00000000000E+00 -0.00000000000E+00 -0.66272863992E+03  0.66272863992E+03  0.00000000000E+00 0. -1.
         23    2    1    2    0    0 -0.39277435737E+03 -0.50287213209E+03 -0.26000364106E+03  0.69492481595E+03  0.90368852050E+02 0.  0.
         13    1    3    3    0    0 -0.18074282424E+03 -0.18087054901E+03 -0.13787286315E+03  0.29050137763E+03  0.00000000000E+00 0. -1.
        -13    1    3    3    0    0 -0.21203153313E+03 -0.32200158308E+03 -0.12213077790E+03  0.40442343832E+03  0.00000000000E+00 0.  1.
         22    1    1    2    0    0  0.39277435737E+03  0.50287213209E+03  0.36415583873E+03  0.73468466156E+03  0.00000000000E+00 0.  1.
<mgrwt>
<rscale>  0 0.14258105E+04</rscale>
<asrwt>0</asrwt>
<pdfrwt beam="1">  1        2 0.10195825E+00 0.14258105E+04</pdfrwt>
<pdfrwt beam="2">  1       -2 0.11798167E+00 0.14258105E+04</pdfrwt>
<totfact> 0.23611417E+01</totfact>
</mgrwt>
</event>
<event>
 6    1  0.1603085E-006  0.2675142E+04  0.7818608E-02  0.8343116E-01
          2   -1    0    0  501    0  0.00000000000E+00  0.00000000000E+00  0.12267545272E+04  0.12267545272E+04  0.00000000000E+00 0. -1.
         -2   -1    0    0    0  501 -0.00000000000E+00 -0.00000000000E+00 -0.14583982628E+04  0.14583982628E+04  0.00000000000E+00 0.  1.
         23    2    1    2    0    0 -0.34970326019E+03  0.10638145405E+04 -0.84747743122E+03  0.14071680923E+04  0.88939849087E+02 0.  0.
         13    1    3    3    0    0 -0.27622167790E+03  0.79981785676E+03 -0.68419750487E+03  0.10881788663E+04  0.00000000000E+00 0.  1.
        -13    1    3    3    0    0 -0.73481582290E+02  0.26399668378E+03 -0.16327992635E+03  0.31898922605E+03  0.00000000000E+00 0. -1.
         22    1    1    2    0    0  0.34970326019E+03 -0.10638145405E+04  0.61583369561E+03  0.12779846977E+04  0.00000000000E+00 0. -1.
<mgrwt>
<rscale>  0 0.26751424E+04</rscale>
<asrwt>0</asrwt>
<pdfrwt beam="1">  1        2 0.18873147E+00 0.26751424E+04</pdfrwt>
<pdfrwt beam="2">  1       -2 0.22436896E+00 0.26751424E+04</pdfrwt>
<totfact> 0.14885935E+00</totfact>
</mgrwt>
</event>
<event>
 6    1  0.1603085E-006  0.1059022E+04  0.7818608E-02  0.9246079E-01
          1   -1    0    0  501    0  0.00000000000E+00  0.00000000000E+00  0.20501601848E+04  0.20501601848E+04  0.00000000000E+00 0. -1.
         -1   -1    0    0    0  501 -0.00000000000E+00 -0.00000000000E+00 -0.13676096763E+03  0.13676096763E+03  0.00000000000E+00 0.  1.
         23    2    1    2    0    0 -0.11904743476E+03  0.51122137958E+03  0.10170996086E+04  0.11482332402E+04  0.91806151432E+02 0.  0.
         11    1    3    3    0    0 -0.36582483915E+02  0.46726332532E+02  0.14583238054E+03  0.15744431236E+03  0.00000000000E+00 0. -1.
        -11    1    3    3    0    0 -0.82464950848E+02  0.46449504705E+03  0.87126722810E+03  0.99078892788E+03  0.00000000000E+00 0.  1.
         22    1    1    2    0    0  0.11904743476E+03 -0.51122137958E+03  0.89629960855E+03  0.10386879122E+04  0.00000000000E+00 0. -1.
<mgrwt>
<rscale>  0 0.10590220E+04</rscale>
<asrwt>0</asrwt>
<pdfrwt beam="1">  1        1 0.31540924E+00 0.10590220E+04</pdfrwt>
<pdfrwt beam="2">  1       -1 0.21040150E-01 0.10590220E+04</pdfrwt>
<totfact> 0.51916815E+01</totfact>
</mgrwt>
</event>
<event>
 6    1  0.1603085E-006  0.2181283E+04  0.7818608E-02  0.8526259E-01
         -1   -1    0    0    0  501 -0.00000000000E+00  0.00000000000E+00  0.69492586913E+03  0.69492586913E+03  0.00000000000E+00 0.  1.
          1   -1    0    0  501    0  0.00000000000E+00 -0.00000000000E+00 -0.17116910040E+04  0.17116910040E+04  0.00000000000E+00 0. -1.
         23    2    1    2    0    0  0.97444392811E+03 -0.22712961917E+02  0.25006777759E+02  0.97996149581E+03  0.98195451344E+02 0.  0.
         13    1    3    3    0    0  0.56136708467E+03 -0.41914411516E+02  0.53450321886E+02  0.56546154471E+03  0.00000000000E+00 0.  1.
        -13    1    3    3    0    0  0.41307684344E+03  0.19201449599E+02 -0.28443544127E+02  0.41449995109E+03  0.00000000000E+00 0. -1.
         22    1    1    2    0    0 -0.97444392811E+03  0.22712961917E+02 -0.10417719126E+04  0.14266553773E+04  0.00000000000E+00 0.  1.
<mgrwt>
<rscale>  0 0.21812825E+04</rscale>
<asrwt>0</asrwt>
<pdfrwt beam="1">  1        1 0.26333707E+00 0.21812825E+04</pdfrwt>
<pdfrwt beam="2">  1       -1 0.10691167E+00 0.21812825E+04</pdfrwt>
<totfact> 0.34872202E+00</totfact>
</mgrwt>
</event>
<event>
 6    1  0.1603085E-006  0.1452147E+04  0.7818608E-02  0.8916913E-01
          1   -1    0    0  501    0  0.00000000000E+00  0.00000000000E+00  0.29788028626E+03  0.29788028626E+03  0.00000000000E+00 0. -1.
         -1   -1    0    0    0  501 -0.00000000000E+00 -0.00000000000E+00 -0.17697807198E+04  0.17697807198E+04  0.00000000000E+00 0.  1.
         23    2    1    2    0    0  0.51020631546E+03 -0.46710091031E+03 -0.43946647200E+03  0.82491661171E+03  0.94142931295E+02 0.  0.
         11    1    3    3    0    0  0.28116554498E+03 -0.24396189874E+03 -0.29032051257E+03  0.47207782381E+03  0.00000000000E+00 0. -1.
        -11    1    3    3    0    0  0.22904077048E+03 -0.22313901158E+03 -0.14914595943E+03  0.35283878790E+03  0.00000000000E+00 0.  1.
         22    1    1    2    0    0 -0.51020631546E+03  0.46710091031E+03 -0.10324339615E+04  0.12427443943E+04  0.00000000000E+00 0.  1.
<mgrwt>
<rscale>  0 0.14521471E+04</rscale>
<asrwt>0</asrwt>
<pdfrwt beam="1">  1        1 0.45827737E-01 0.14521471E+04</pdfrwt>
<pdfrwt beam="2">  1       -1 0.27227396E+00 0.14521471E+04</pdfrwt>
<totfact> 0.42987535E+00</totfact>
</mgrwt>
</event>
<event>
 6    1  0.1603085E-006  0.1153537E+04  0.7818608E-02  0.9154527E-01
          1   -1    0    0  501    0  0.00000000000E+00  0.00000000000E+00  0.47295639967E+03  0.47295639967E+03  0.00000000000E+00 0. -1.
         -1   -1    0    0    0  501 -0.00000000000E+00 -0.00000000000E+00 -0.70336638570E+03  0.70336638570E+03  0.00000000000E+00 0.  1.
         23    2    1    2    0    0 -0.26327658667E+03 -0.32798126615E+03  0.28153656280E+03  0.51377049241E+03  0.88379922215E+02 0.  0.
         13    1    3    3    0    0 -0.37780566504E+02 -0.10297214228E+03  0.53702263152E+02  0.12212520771E+03  0.00000000000E+00 0. -1.
        -13    1    3    3    0    0 -0.22549602016E+03 -0.22500912387E+03  0.22783429965E+03  0.39164528470E+03  0.00000000000E+00 0.  1.
         22    1    1    2    0    0  0.26327658667E+03  0.32798126615E+03 -0.51194654883E+03  0.66255229295E+03  0.00000000000E+00 0.  1.
<mgrwt>
<rscale>  0 0.11535365E+04</rscale>
<asrwt>0</asrwt>
<pdfrwt beam="1">  1        1 0.72762524E-01 0.11535365E+04</pdfrwt>
<pdfrwt beam="2">  1       -1 0.10821021E+00 0.11535365E+04</pdfrwt>
<totfact> 0.37709572E+01</totfact>
</mgrwt>
</event>
<event>
 6    1  0.1603085E-006  0.1471583E+04  0.7818608E-02  0.8903573E-01
          4   -1    0    0  501    0  0.00000000000E+00  0.00000000000E+00  0.62073749698E+03  0.62073749698E+03  0.00000000000E+00 0. -1.
         -4   -1    0    0    0  501 -0.00000000000E+00 -0.00000000000E+00 -0.87217078430E+03  0.87217078430E+03  0.00000000000E+00 0.  1.
         23    2    1    2    0    0 -0.22816931738E+02  0.25122882954E+03  0.57194655277E+03  0.63175156021E+03  0.91381822242E+02 0.  0.
         11    1    3    3    0    0 -0.45315701290E+02  0.20678600851E+03  0.39779677899E+03  0.45061762446E+03  0.00000000000E+00 0. -1.
        -11    1    3    3    0    0  0.22498769552E+02  0.44442821026E+02  0.17414977378E+03  0.18113393575E+03  0.00000000000E+00 0.  1.
         22    1    1    2    0    0  0.22816931738E+02 -0.25122882954E+03 -0.82337984009E+03  0.86115672106E+03  0.00000000000E+00 0.  1.
<mgrwt>
<rscale>  0 0.14715830E+04</rscale>
<asrwt>0</asrwt>
<pdfrwt beam="1">  1        4 0.95498077E-01 0.14715830E+04</pdfrwt>
<pdfrwt beam="2">  1       -4 0.13418012E+00 0.14715830E+04</pdfrwt>
<totfact> 0.71120569E-01</totfact>
</mgrwt>
</event>
<event>
 6    1  0.1603085E-006  0.2267923E+04  0.7818608E-02  0.8490677E-01
         -2   -1    0    0    0  501 -0.00000000000E+00  0.00000000000E+00  0.11961865283E+04  0.11961865283E+04  0.00000000000E+00 0.  1.
          2   -1    0    0  501    0  0.00000000000E+00 -0.00000000000E+00 -0.10749734350E+04  0.10749734350E+04  0.00000000000E+00 0. -1.
         23    2    1    2    0    0  0.10621084638E+04 -0.37023546020E+03  0.18933904083E+03  0.11443104482E+04  0.91915421164E+02 0.  0.
         11    1    3    3    0    0  0.54629838312E+03 -0.14658409473E+03  0.74732090735E+02  0.57053808428E+03  0.00000000000E+00 0.  1.
        -11    1    3    3    0    0  0.51581008071E+03 -0.22365136547E+03  0.11460695010E+03  0.57377236397E+03  0.00000000000E+00 0. -1.
         22    1    1    2    0    0 -0.10621084638E+04  0.37023546020E+03 -0.68125947581E+02  0.11268495151E+04  0.00000000000E+00 0. -1.
<mgrwt>
<rscale>  0 0.22679231E+04</rscale>
<asrwt>0</asrwt>
<pdfrwt beam="1">  1        2 0.16538053E+00 0.22679231E+04</pdfrwt>
<pdfrwt beam="2">  1       -2 0.18402870E+00 0.22679231E+04</pdfrwt>
<totfact> 0.34913809E+00</totfact>
</mgrwt>
</event>
<event>
 6    1  0.1603085E-006  0.2025491E+04  0.7818608E-02  0.8594795E-01
         -1   -1    0    0    0  501 -0.00000000000E+00  0.00000000000E+00  0.68983005415E+03  0.68983005415E+03  0.00000000000E+00 0.  1.
          1   -1    0    0  501    0  0.00000000000E+00 -0.00000000000E+00 -0.14868197832E+04  0.14868197832E+04  0.00000000000E+00 0. -1.
         23    2    1    2    0    0  0.34145870369E+03  0.90061251614E+03 -0.72846027002E+03  0.12110447228E+04  0.90983542326E+02 0.  0.
         11    1    3    3    0    0  0.24131606060E+03  0.61077036621E+03 -0.44361943220E+03  0.79250998857E+03  0.00000000000E+00 0.  1.
        -11    1    3    3    0    0  0.10014264309E+03  0.28984214992E+03 -0.28484083781E+03  0.41853473419E+03  0.00000000000E+00 0. -1.
         22    1    1    2    0    0 -0.34145870369E+03 -0.90061251614E+03 -0.68529459010E+02  0.96560511458E+03  0.00000000000E+00 0.  1.
<mgrwt>
<rscale>  0 0.20254905E+04</rscale>
<asrwt>0</asrwt>
<pdfrwt beam="1">  1        1 0.22874150E+00 0.20254905E+04</pdfrwt>
<pdfrwt beam="2">  1       -1 0.10612770E+00 0.20254905E+04</pdfrwt>
<totfact> 0.51349215E+00</totfact>
</mgrwt>
</event>
<event>
 6    1  0.1603085E-006  0.3123309E+04  0.7818608E-02  0.8209370E-01
         -2   -1    0    0    0  501 -0.00000000000E+00  0.00000000000E+00  0.96431757023E+03  0.96431757023E+03  0.00000000000E+00 0. -1.
          2   -1    0    0  501    0  0.00000000000E+00 -0.00000000000E+00 -0.25290055678E+04  0.25290055678E+04  0.00000000000E+00 0.  1.
         23    2    1    2    0    0 -0.91562651522E+03  0.44162135446E+03  0.54093393032E+03  0.11551518356E+04  0.91459883534E+02 0.  0.
         13    1    3    3    0    0 -0.70544845296E+03  0.35926421796E+03  0.38150527001E+03  0.87879153907E+03  0.00000000000E+00 0. -1.
        -13    1    3    3    0    0 -0.21017806226E+03  0.82357136500E+02  0.15942866031E+03  0.27636029656E+03  0.00000000000E+00 0.  1.
         22    1    1    2    0    0  0.91562651522E+03 -0.44162135446E+03 -0.21056219279E+04  0.23381713024E+04  0.00000000000E+00 0.  1.
<mgrwt>
<rscale>  0 0.31233088E+04</rscale>
<asrwt>0</asrwt>
<pdfrwt beam="1">  1        2 0.38907778E+00 0.31233088E+04</pdfrwt>
<pdfrwt beam="2">  1       -2 0.14835655E+00 0.31233088E+04</pdfrwt>
<totfact> 0.87516921E-01</totfact>
</mgrwt>
</event>
<event>
 6    1  0.1603085E-006  0.7739241E+03  0.7818608E-02  0.9598547E-01
         -1   -1    0    0    0  501 -0.00000000000E+00  0.00000000000E+00  0.11331980674E+03  0.11331980674E+03  0.00000000000E+00 0.  1.
          1   -1    0    0  501    0  0.00000000000E+00 -0.00000000000E+00 -0.13213896314E+04  0.13213896314E+04  0.00000000000E+00 0. -1.
         23    2    1    2    0    0  0.23109039075E+02  0.37005303670E+03 -0.45066750091E+03  0.59142327221E+03  0.95953180617E+02 0.  0.
         13    1    3    3    0    0 -0.21122868365E+02  0.12213982304E+03 -0.97690611043E+02  0.15782194850E+03  0.00000000000E+00 0. -1.
        -13    1    3    3    0    0  0.44231907440E+02  0.24791321365E+03 -0.35297688987E+03  0.43360132371E+03  0.00000000000E+00 0.  1.
         22    1    1    2    0    0 -0.23109039075E+02 -0.37005303670E+03 -0.75740232376E+03  0.84328616596E+03  0.00000000000E+00 0. -1.
<mgrwt>
<rscale>  0 0.77392407E+03</rscale>
<asrwt>0</asrwt>
<pdfrwt beam="1">  1        1 0.20329071E+00 0.77392407E+03</pdfrwt>
<pdfrwt beam="2">  1       -1 0.17433817E-01 0.77392407E+03</pdfrwt>
<totfact> 0.22758439E+02</totfact>
</mgrwt>
</event>
<event>
 6    1  0.1603085E-006  0.2853865E+04  0.7818608E-02  0.8286738E-01
         -1   -1    0    0    0  501 -0.00000000000E+00  0.00000000000E+00  0.16026925904E+04  0.16026925904E+04  0.00000000000E+00 0.  1.
          1   -1    0    0  501    0  0.00000000000E+00 -0.00000000000E+00 -0.12704472666E+04  0.12704472666E+04  0.00000000000E+00 0. -1.
         23    2    1    2    0    0  0.16443218712E+03  0.49180840396E+03  0.15031959636E+04  0.15924998407E+04  0.86857280790E+02 0.  0.
         11    1    3    3    0    0  0.11807308054E+03  0.24353414017E+03  0.85604623285E+03  0.89781138473E+03  0.00000000000E+00 0.  1.
        -11    1    3    3    0    0  0.46359106582E+02  0.24827426379E+03  0.64714973078E+03  0.69468845598E+03  0.00000000000E+00 0. -1.
         22    1    1    2    0    0 -0.16443218712E+03 -0.49180840396E+03 -0.11709506399E+04  0.12806400163E+04  0.00000000000E+00 0. -1.
<mgrwt>
<rscale>  0 0.28538650E+04</rscale>
<asrwt>0</asrwt>
<pdfrwt beam="1">  1        1 0.19545343E+00 0.28538650E+04</pdfrwt>
<pdfrwt beam="2">  1       -1 0.24656809E+00 0.28538650E+04</pdfrwt>
<totfact> 0.60094244E-01</totfact>
</mgrwt>
</event>
<event>
 6    1  0.1603085E-006  0.1753144E+04  0.7818608E-02  0.8731621E-01
          2   -1    0    0  501    0  0.00000000000E+00  0.00000000000E+00  0.87378712799E+03  0.87378712799E+03  0.00000000000E+00 0. -1.
         -2   -1    0    0    0  501 -0.00000000000E+00 -0.00000000000E+00 -0.87936602669E+03  0.87936602669E+03  0.00000000000E+00 0.  1.
         23    2    1    2    0    0 -0.71787244224E+03  0.39880678350E+03 -0.30424679893E+03  0.87931666624E+03  0.79018927965E+02 0.  0.
         13    1    3    3    0    0 -0.31277117766E+03  0.17640148534E+03 -0.91500836572E+02  0.37056132650E+03  0.00000000000E+00 0. -1.
        -13    1    3    3    0    0 -0.40510126458E+03  0.22240529816E+03 -0.21274596236E+03  0.50875533974E+03  0.00000000000E+00 0.  1.
         22    1    1    2    0    0  0.71787244224E+03 -0.39880678350E+03  0.29866790023E+03  0.87383648844E+03  0.00000000000E+00 0.  1.
<mgrwt>
<rscale>  0 0.17531443E+04</rscale>
<asrwt>0</asrwt>
<pdfrwt beam="1">  1        2 0.13442879E+00 0.17531443E+04</pdfrwt>
<pdfrwt beam="2">  1       -2 0.13528708E+00 0.17531443E+04</pdfrwt>
<totfact> 0.11358981E+01</totfact>
</mgrwt>
</event>
<event>
 6    1  0.1603085E-006  0.1831632E+04  0.7818608E-02  0.8689656E-01
          2   -1    0    0  501    0  0.00000000000E+00  0.00000000000E+00  0.91246859356E+03  0.91246859356E+03  0.00000000000E+00 0. -1.
         -2   -1    0    0    0  501 -0.00000000000E+00 -0.00000000000E+00 -0.91917598431E+03  0.91917598431E+03  0.00000000000E+00 0.  1.
         23    2    1    2    0    0  0.28635941366E+03 -0.22466856741E+03  0.83441198772E+03  0.91515154036E+03  0.93708578088E+02 0.  0.
         11    1    3    3    0    0  0.11719365200E+03 -0.68874020606E+02  0.41675937960E+03  0.43836784014E+03  0.00000000000E+00 0. -1.
        -11    1    3    3    0    0  0.16916576165E+03 -0.15579454680E+03  0.41765260812E+03  0.47678370022E+03  0.00000000000E+00 0.  1.
         22    1    1    2    0    0 -0.28635941366E+03  0.22466856741E+03 -0.84111937847E+03  0.91649303751E+03  0.00000000000E+00 0.  1.
<mgrwt>
<rscale>  0 0.18316323E+04</rscale>
<asrwt>0</asrwt>
<pdfrwt beam="1">  1        2 0.14037978E+00 0.18316323E+04</pdfrwt>
<pdfrwt beam="2">  1       -2 0.14141169E+00 0.18316323E+04</pdfrwt>
<totfact> 0.94741796E+00</totfact>
</mgrwt>
</event>
<event>
 6    1  0.1603085E-006  0.3548038E+04  0.7818608E-02  0.8102499E-01
         -2   -1    0    0    0  501 -0.00000000000E+00  0.00000000000E+00  0.16630970543E+04  0.16630970543E+04  0.00000000000E+00 0.  1.
          2   -1    0    0  501    0  0.00000000000E+00 -0.00000000000E+00 -0.18923388528E+04  0.18923388528E+04  0.00000000000E+00 0. -1.
         23    2    1    2    0    0 -0.11326103572E+03 -0.13973575034E+04  0.97264531844E+03  0.17088258518E+04  0.92794512694E+02 0.  0.
         11    1    3    3    0    0 -0.19857853600E+02 -0.34255784570E+03  0.28668166793E+03  0.44713151390E+03  0.00000000000E+00 0.  1.
        -11    1    3    3    0    0 -0.93403182124E+02 -0.10547996577E+04  0.68596365052E+03  0.12616943379E+04  0.00000000000E+00 0. -1.
         22    1    1    2    0    0  0.11326103572E+03  0.13973575034E+04 -0.12018871170E+04  0.18466100554E+04  0.00000000000E+00 0. -1.
<mgrwt>
<rscale>  0 0.35480379E+04</rscale>
<asrwt>0</asrwt>
<pdfrwt beam="1">  1        2 0.29112905E+00 0.35480379E+04</pdfrwt>
<pdfrwt beam="2">  1       -2 0.25586109E+00 0.35480379E+04</pdfrwt>
<totfact> 0.37125532E-01</totfact>
</mgrwt>
</event>
<event>
 6    1  0.1603085E-006  0.6496013E+03  0.7818608E-02  0.9807528E-01
          1   -1    0    0  501    0  0.00000000000E+00  0.00000000000E+00  0.31485961895E+03  0.31485961895E+03  0.00000000000E+00 0. -1.
         -1   -1    0    0    0  501 -0.00000000000E+00 -0.00000000000E+00 -0.33505558278E+03  0.33505558278E+03  0.00000000000E+00 0.  1.
         23    2    1    2    0    0 -0.16711963569E+03  0.18382230030E+03  0.18919008040E+03  0.32501194499E+03  0.90112524901E+02 0.  0.
         11    1    3    3    0    0 -0.47546700899E+02  0.10256575299E+03  0.11957084773E+03  0.16455275774E+03  0.00000000000E+00 0. -1.
        -11    1    3    3    0    0 -0.11957293479E+03  0.81256547315E+02  0.69619232664E+02  0.16045918725E+03  0.00000000000E+00 0.  1.
         22    1    1    2    0    0  0.16711963569E+03 -0.18382230030E+03 -0.20938604423E+03  0.32490325674E+03  0.00000000000E+00 0.  1.
<mgrwt>
<rscale>  0 0.64960133E+03</rscale>
<asrwt>0</asrwt>
<pdfrwt beam="1">  1        1 0.48439941E-01 0.64960133E+03</pdfrwt>
<pdfrwt beam="2">  1       -1 0.51547013E-01 0.64960133E+03</pdfrwt>
<totfact> 0.31596218E+02</totfact>
</mgrwt>
</event>
<event>
 6    1  0.1603085E-006  0.4291283E+04  0.7818608E-02  0.7948232E-01
         -2   -1    0    0    0  501 -0.00000000000E+00  0.00000000000E+00  0.14240543013E+04  0.14240543013E+04  0.00000000000E+00 0.  1.
          2   -1    0    0  501    0  0.00000000000E+00 -0.00000000000E+00 -0.32328671566E+04  0.32328671566E+04  0.00000000000E+00 0. -1.
         23    2    1    2    0    0  0.98815913297E+03 -0.12288574547E+04  0.67271150989E+03  0.17167663105E+04  0.90535480291E+02 0.  0.
         13    1    3    3    0    0  0.64297857407E+03 -0.76592634507E+03  0.46772285655E+03  0.11040060160E+04  0.00000000000E+00 0. -1.
        -13    1    3    3    0    0  0.34518055890E+03 -0.46293110964E+03  0.20498865334E+03  0.61276029450E+03  0.00000000000E+00 0.  1.
         22    1    1    2    0    0 -0.98815913297E+03  0.12288574547E+04 -0.24815243652E+04  0.29401551475E+04  0.00000000000E+00 0. -1.
<mgrwt>
<rscale>  0 0.42912834E+04</rscale>
<asrwt>0</asrwt>
<pdfrwt beam="1">  1        2 0.49736417E+00 0.42912834E+04</pdfrwt>
<pdfrwt beam="2">  1       -2 0.21908528E+00 0.42912834E+04</pdfrwt>
<totfact> 0.95144048E-02</totfact>
</mgrwt>
</event>
<event>
 6    1  0.2510499E-006  0.3883158E+04  0.7818608E-02  0.8028541E-01
         -2   -1    0    0    0  501 -0.00000000000E+00  0.00000000000E+00  0.13057599106E+04  0.13057599106E+04  0.00000000000E+00 0.  1.
          2   -1    0    0  501    0  0.00000000000E+00 -0.00000000000E+00 -0.28869999144E+04  0.28869999144E+04  0.00000000000E+00 0. -1.
         23    2    1    2    0    0  0.12060451417E+04  0.30144501779E+03 -0.23998194651E+04  0.27043088460E+04  0.93482015152E+02 0.  0.
         13    1    3    3    0    0  0.28853107545E+03  0.10199236833E+03 -0.53097161588E+03  0.61284866123E+03  0.00000000000E+00 0.  1.
        -13    1    3    3    0    0  0.91751406620E+03  0.19945264946E+03 -0.18688478492E+04  0.20914601848E+04  0.00000000000E+00 0. -1.
         22    1    1    2    0    0 -0.12060451417E+04 -0.30144501779E+03  0.81857946126E+03  0.14884509790E+04  0.00000000000E+00 0.  1.
<mgrwt>
<rscale>  0 0.38831579E+04</rscale>
<asrwt>0</asrwt>
<pdfrwt beam="1">  1        2 0.44415383E+00 0.38831579E+04</pdfrwt>
<pdfrwt beam="2">  1       -2 0.20088614E+00 0.38831579E+04</pdfrwt>
<totfact> 0.21377282E-01</totfact>
</mgrwt>
</event>
<event>
 6    1  0.1603085E-006  0.2579586E+04  0.7818608E-02  0.8375168E-01
         -2   -1    0    0    0  501 -0.00000000000E+00  0.00000000000E+00  0.13405634358E+04  0.13405634358E+04  0.00000000000E+00 0.  1.
          2   -1    0    0  501    0  0.00000000000E+00 -0.00000000000E+00 -0.12409456329E+04  0.12409456329E+04  0.00000000000E+00 0. -1.
         23    2    1    2    0    0  0.10574170251E+03 -0.47310141658E+03  0.12442684592E+04  0.13384357068E+04  0.90553213732E+02 0.  0.
         11    1    3    3    0    0 -0.12686638763E+02 -0.68511352035E+02  0.13864293541E+03  0.15516642582E+03  0.00000000000E+00 0. -1.
        -11    1    3    3    0    0  0.11842834127E+03 -0.40459006455E+03  0.11056255238E+04  0.11832692810E+04  0.00000000000E+00 0.  1.
         22    1    1    2    0    0 -0.10574170251E+03  0.47310141658E+03 -0.11446506563E+04  0.12430733619E+04  0.00000000000E+00 0. -1.
<mgrwt>
<rscale>  0 0.25795863E+04</rscale>
<asrwt>0</asrwt>
<pdfrwt beam="1">  1        2 0.19091471E+00 0.25795863E+04</pdfrwt>
<pdfrwt beam="2">  1       -2 0.20624053E+00 0.25795863E+04</pdfrwt>
<totfact> 0.19213454E+00</totfact>
</mgrwt>
</event>
<event>
 6    1  0.1603085E-006  0.1785691E+04  0.7818608E-02  0.8713946E-01
          2   -1    0    0  501    0  0.00000000000E+00  0.00000000000E+00  0.11032270602E+04  0.11032270602E+04  0.00000000000E+00 0.  1.
         -2   -1    0    0    0  501 -0.00000000000E+00 -0.00000000000E+00 -0.72258267672E+03  0.72258267672E+03  0.00000000000E+00 0. -1.
         23    2    1    2    0    0 -0.70159269993E+03  0.51705949950E+03  0.37798297809E+03  0.95426517373E+03  0.90377250713E+02 0.  0.
         13    1    3    3    0    0 -0.41437160338E+03  0.33738488333E+03  0.19211730929E+03  0.56783927806E+03  0.00000000000E+00 0.  1.
        -13    1    3    3    0    0 -0.28722109656E+03  0.17967461617E+03  0.18586566880E+03  0.38642589566E+03  0.00000000000E+00 0. -1.
         22    1    1    2    0    0  0.70159269993E+03 -0.51705949950E+03  0.26614054215E+01  0.87154456323E+03  0.00000000000E+00 0. -1.
<mgrwt>
<rscale>  0 0.17856906E+04</rscale>
<asrwt>0</asrwt>
<pdfrwt beam="1">  1        2 0.16972724E+00 0.17856906E+04</pdfrwt>
<pdfrwt beam="2">  1       -2 0.11116657E+00 0.17856906E+04</pdfrwt>
<totfact> 0.13128509E+01</totfact>
</mgrwt>
</event>
<event>
 6    1  0.1603085E-006  0.2239903E+04  0.7818608E-02  0.8502001E-01
          1   -1    0    0  501    0  0.00000000000E+00  0.00000000000E+00  0.60787247824E+03  0.60787247824E+03  0.00000000000E+00 0. -1.
         -1   -1    0    0    0  501 -0.00000000000E+00 -0.00000000000E+00 -0.20634115869E+04  0.20634115869E+04  0.00000000000E+00 0.  1.
         23    2    1    2    0    0 -0.68358383989E+03  0.39734295285E+03  0.21381384884E+03  0.82414909849E+03  0.91307646110E+02 0.  0.
         11    1    3    3    0    0 -0.29574125960E+03  0.20375829815E+03  0.13440662421E+03  0.38346509271E+03  0.00000000000E+00 0.  1.
        -11    1    3    3    0    0 -0.38784258030E+03  0.19358465470E+03  0.79407224627E+02  0.44068400578E+03  0.00000000000E+00 0. -1.
         22    1    1    2    0    0  0.68358383989E+03 -0.39734295285E+03 -0.16693529575E+04  0.18471349667E+04  0.00000000000E+00 0.  1.
<mgrwt>
<rscale>  0 0.22399028E+04</rscale>
<asrwt>0</asrwt>
<pdfrwt beam="1">  1        1 0.93518840E-01 0.22399028E+04</pdfrwt>
<pdfrwt beam="2">  1       -1 0.31744795E+00 0.22399028E+04</pdfrwt>
<totfact> 0.77692406E-01</totfact>
</mgrwt>
</event>
<event>
 6    1  0.1603085E-006  0.5801617E+04  0.7818608E-02  0.7715497E-01
          2   -1    0    0  501    0  0.00000000000E+00  0.00000000000E+00  0.32682003670E+04  0.32682003670E+04  0.00000000000E+00 0. -1.
         -2   -1    0    0    0  501 -0.00000000000E+00 -0.00000000000E+00 -0.25747168488E+04  0.25747168488E+04  0.00000000000E+00 0.  1.
         23    2    1    2    0    0  0.25260129059E+04 -0.14018855118E+04  0.90190893740E+02  0.28916486446E+04  0.86448236642E+02 0.  0.
         13    1    3    3    0    0  0.22919784760E+04 -0.12982512100E+04  0.73500982745E+02  0.26351515959E+04  0.00000000000E+00 0. -1.
        -13    1    3    3    0    0  0.23403442984E+03 -0.10363430175E+03  0.16689910995E+02  0.25649704867E+03  0.00000000000E+00 0.  1.
         22    1    1    2    0    0 -0.25260129059E+04  0.14018855118E+04  0.60329262446E+03  0.29512685712E+04  0.00000000000E+00 0. -1.
<mgrwt>
<rscale>  0 0.58016172E+04</rscale>
<asrwt>0</asrwt>
<pdfrwt beam="1">  1        2 0.50280006E+00 0.58016172E+04</pdfrwt>
<pdfrwt beam="2">  1       -2 0.39611028E+00 0.58016172E+04</pdfrwt>
<totfact> 0.62896827E-03</totfact>
</mgrwt>
</event>
<event>
 6    1  0.1603085E-006  0.2481746E+04  0.7818608E-02  0.8409518E-01
          2   -1    0    0  501    0  0.00000000000E+00  0.00000000000E+00  0.16604471559E+04  0.16604471559E+04  0.00000000000E+00 0. -1.
         -2   -1    0    0    0  501 -0.00000000000E+00 -0.00000000000E+00 -0.92731988048E+03  0.92731988048E+03  0.00000000000E+00 0.  1.
         23    2    1    2    0    0 -0.92635173071E+03 -0.69569876592E+03 -0.92056336109E+02  0.11654266078E+04  0.87295517404E+02 0.  0.
         13    1    3    3    0    0 -0.11589252830E+03 -0.10447378880E+03 -0.39012509633E+02  0.16083478035E+03  0.00000000000E+00 0.  1.
        -13    1    3    3    0    0 -0.81045920240E+03 -0.59122497713E+03 -0.53043826476E+02  0.10045918275E+04  0.00000000000E+00 0. -1.
         22    1    1    2    0    0  0.92635173071E+03  0.69569876592E+03  0.82518361152E+03  0.14223404285E+04  0.00000000000E+00 0. -1.
<mgrwt>
<rscale>  0 0.24817459E+04</rscale>
<asrwt>0</asrwt>
<pdfrwt beam="1">  1        2 0.25545341E+00 0.24817459E+04</pdfrwt>
<pdfrwt beam="2">  1       -2 0.14266460E+00 0.24817459E+04</pdfrwt>
<totfact> 0.31516005E+00</totfact>
</mgrwt>
</event>
<event>
 6    1  0.1603085E-006  0.7540659E+04  0.7818608E-02  0.7524109E-01
         -2   -1    0    0    0  501 -0.00000000000E+00  0.00000000000E+00  0.40907511824E+04  0.40907511824E+04  0.00000000000E+00 0.  1.
          2   -1    0    0  501    0  0.00000000000E+00 -0.00000000000E+00 -0.34750060826E+04  0.34750060826E+04  0.00000000000E+00 0. -1.
         23    2    1    2    0    0  0.28311645394E+04 -0.12379451350E+04  0.24746269510E+04  0.39597286264E+04  0.87586765155E+02 0.  0.
         11    1    3    3    0    0  0.14856534880E+04 -0.60362794726E+03  0.12686105467E+04  0.20447263153E+04  0.00000000000E+00 0.  1.
        -11    1    3    3    0    0  0.13455110514E+04 -0.63431718776E+03  0.12060164043E+04  0.19150023111E+04  0.00000000000E+00 0. -1.
         22    1    1    2    0    0 -0.28311645394E+04  0.12379451350E+04 -0.18588818512E+04  0.36060286387E+04  0.00000000000E+00 0. -1.
<mgrwt>
<rscale>  0 0.75406592E+04</rscale>
<asrwt>0</asrwt>
<pdfrwt beam="1">  1        2 0.53461632E+00 0.75406592E+04</pdfrwt>
<pdfrwt beam="2">  1       -2 0.62934633E+00 0.75406592E+04</pdfrwt>
<totfact> 0.20688145E-04</totfact>
</mgrwt>
</event>
<event>
 6    1  0.1603085E-006  0.6610363E+03  0.7818608E-02  0.9786288E-01
         -2   -1    0    0    0  501 -0.00000000000E+00  0.00000000000E+00  0.58820083778E+02  0.58820083778E+02  0.00000000000E+00 0. -1.
          2   -1    0    0  501    0  0.00000000000E+00 -0.00000000000E+00 -0.18572267784E+04  0.18572267784E+04  0.00000000000E+00 0.  1.
         23    2    1    2    0    0  0.13377931771E+03  0.41942077107E+02 -0.17637295686E+04  0.17716219795E+04  0.90809709882E+02 0.  0.
         11    1    3    3    0    0  0.12959119028E+03  0.24788936947E+02 -0.11347819534E+04  0.11424265620E+04  0.00000000000E+00 0. -1.
        -11    1    3    3    0    0  0.41881274268E+01  0.17153140160E+02 -0.62894761521E+03  0.62919541742E+03  0.00000000000E+00 0.  1.
         22    1    1    2    0    0 -0.13377931771E+03 -0.41942077107E+02 -0.34677126072E+02  0.14442488273E+03  0.00000000000E+00 0. -1.
<mgrwt>
<rscale>  0 0.66103626E+03</rscale>
<asrwt>0</asrwt>
<pdfrwt beam="1">  1        2 0.28572721E+00 0.66103626E+03</pdfrwt>
<pdfrwt beam="2">  1       -2 0.90492434E-02 0.66103626E+03</pdfrwt>
<totfact> 0.66394463E+02</totfact>
</mgrwt>
</event>
<event>
 6    1  0.1603085E-006  0.1143931E+04  0.7818608E-02  0.9163400E-01
          2   -1    0    0  501    0  0.00000000000E+00  0.00000000000E+00  0.60117861716E+03  0.60117861716E+03  0.00000000000E+00 0. -1.
         -2   -1    0    0    0  501 -0.00000000000E+00 -0.00000000000E+00 -0.54417227288E+03  0.54417227288E+03  0.00000000000E+00 0.  1.
         23    2    1    2    0    0 -0.26497413667E+03 -0.49585002092E+03 -0.54242350892E+02  0.57224111999E+03  0.91864739822E+02 0.  0.
         13    1    3    3    0    0 -0.91737385768E+02 -0.22242451256E+03 -0.62008467232E+02  0.24846219379E+03  0.00000000000E+00 0. -1.
        -13    1    3    3    0    0 -0.17323675090E+03 -0.27342550836E+03  0.77661163404E+01  0.32377892620E+03  0.00000000000E+00 0.  1.
         22    1    1    2    0    0  0.26497413667E+03  0.49585002092E+03  0.11124869517E+03  0.57310977005E+03  0.00000000000E+00 0. -1.
<mgrwt>
<rscale>  0 0.11439314E+04</rscale>
<asrwt>0</asrwt>
<pdfrwt beam="1">  1        2 0.92489018E-01 0.11439314E+04</pdfrwt>
<pdfrwt beam="2">  1       -2 0.83718811E-01 0.11439314E+04</pdfrwt>
<totfact> 0.61144637E+01</totfact>
</mgrwt>
</event>
<event>
 6    1  0.1804746E-006  0.4201257E+04  0.7818608E-02  0.7965133E-01
         -2   -1    0    0    0  501 -0.00000000000E+00  0.00000000000E+00  0.26974453928E+04  0.26974453928E+04  0.00000000000E+00 0.  1.
          2   -1    0    0  501    0  0.00000000000E+00 -0.00000000000E+00 -0.16358592695E+04  0.16358592695E+04  0.00000000000E+00 0. -1.
         23    2    1    2    0    0  0.49147333376E+03  0.48871022747E+03  0.25752880499E+04  0.26684691609E+04  0.90749097745E+02 0.  0.
         13    1    3    3    0    0  0.18863379249E+03  0.21486104953E+03  0.12174630534E+04  0.12505855687E+04  0.00000000000E+00 0.  1.
        -13    1    3    3    0    0  0.30283954127E+03  0.27384917794E+03  0.13578249965E+04  0.14178835922E+04  0.00000000000E+00 0. -1.
         22    1    1    2    0    0 -0.49147333376E+03 -0.48871022747E+03 -0.15137019265E+04  0.16648355014E+04  0.00000000000E+00 0. -1.
<mgrwt>
<rscale>  0 0.42012575E+04</rscale>
<asrwt>0</asrwt>
<pdfrwt beam="1">  1        2 0.25167066E+00 0.42012575E+04</pdfrwt>
<pdfrwt beam="2">  1       -2 0.41499160E+00 0.42012575E+04</pdfrwt>
<totfact> 0.48895732E-02</totfact>
</mgrwt>
</event>
<event>
 6    1  0.1603085E-006  0.2096032E+04  0.7818608E-02  0.8562993E-01
         -2   -1    0    0    0  501 -0.00000000000E+00  0.00000000000E+00  0.70052068368E+03  0.70052068368E+03  0.00000000000E+00 0.  1.
          2   -1    0    0  501    0  0.00000000000E+00 -0.00000000000E+00 -0.15678869059E+04  0.15678869059E+04  0.00000000000E+00 0. -1.
         23    2    1    2    0    0  0.81615116491E+03  0.64779861223E+03 -0.33442989185E+03  0.10980371789E+04  0.89980707241E+02 0.  0.
         13    1    3    3    0    0  0.56690596113E+03  0.45529361543E+03 -0.27606125023E+03  0.77774318312E+03  0.00000000000E+00 0. -1.
        -13    1    3    3    0    0  0.24924520378E+03  0.19250499680E+03 -0.58368641614E+02  0.32029399577E+03  0.00000000000E+00 0.  1.
         22    1    1    2    0    0 -0.81615116491E+03 -0.64779861223E+03 -0.53293633037E+03  0.11703704107E+04  0.00000000000E+00 0.  1.
<mgrwt>
<rscale>  0 0.20960317E+04</rscale>
<asrwt>0</asrwt>
<pdfrwt beam="1">  1        2 0.24121337E+00 0.20960317E+04</pdfrwt>
<pdfrwt beam="2">  1       -2 0.10777241E+00 0.20960317E+04</pdfrwt>
<totfact> 0.73984005E+00</totfact>
</mgrwt>
</event>
<event>
 6    1  0.1603085E-006  0.6776756E+03  0.7818608E-02  0.9756190E-01
         -1   -1    0    0    0  501 -0.00000000000E+00  0.00000000000E+00  0.15541902481E+03  0.15541902481E+03  0.00000000000E+00 0.  1.
          1   -1    0    0  501    0  0.00000000000E+00 -0.00000000000E+00 -0.73871933470E+03  0.73871933470E+03  0.00000000000E+00 0. -1.
         23    2    1    2    0    0 -0.71260134707E+02 -0.23080887609E+03 -0.59900936831E+03  0.65206911612E+03  0.89616766201E+02 0.  0.
         11    1    3    3    0    0 -0.54775802693E+02 -0.85856543343E+02 -0.16200204491E+03  0.19135411453E+03  0.00000000000E+00 0. -1.
        -11    1    3    3    0    0 -0.16484332014E+02 -0.14495233275E+03 -0.43700732341E+03  0.46071500158E+03  0.00000000000E+00 0.  1.
         22    1    1    2    0    0  0.71260134707E+02  0.23080887609E+03  0.15709058423E+02  0.24206924340E+03  0.00000000000E+00 0.  1.
<mgrwt>
<rscale>  0 0.67767555E+03</rscale>
<asrwt>0</asrwt>
<pdfrwt beam="1">  1        1 0.11364913E+00 0.67767555E+03</pdfrwt>
<pdfrwt beam="2">  1       -1 0.23910619E-01 0.67767555E+03</pdfrwt>
<totfact> 0.38332902E+02</totfact>
</mgrwt>
</event>
<event>
 6    1  0.1603085E-006  0.2024082E+04  0.7818608E-02  0.8595443E-01
         -1   -1    0    0    0  501 -0.00000000000E+00  0.00000000000E+00  0.46541540733E+03  0.46541540733E+03  0.00000000000E+00 0. -1.
          1   -1    0    0  501    0  0.00000000000E+00 -0.00000000000E+00 -0.22006735369E+04  0.22006735369E+04  0.00000000000E+00 0.  1.
         23    2    1    2    0    0 -0.10451212093E+03  0.38054366712E+03 -0.20939069658E+04  0.21328298573E+04  0.93704605440E+02 0.  0.
         13    1    3    3    0    0 -0.39131278752E+02  0.26617379109E+03 -0.12426736897E+04  0.12714627966E+04  0.00000000000E+00 0. -1.
        -13    1    3    3    0    0 -0.65380842178E+02  0.11436987603E+03 -0.85123327606E+03  0.86136706075E+03  0.00000000000E+00 0.  1.
         22    1    1    2    0    0  0.10451212093E+03 -0.38054366712E+03  0.35864883621E+03  0.53325908686E+03  0.00000000000E+00 0. -1.
<mgrwt>
<rscale>  0 0.20240824E+04</rscale>
<asrwt>0</asrwt>
<pdfrwt beam="1">  1        1 0.33856516E+00 0.20240824E+04</pdfrwt>
<pdfrwt beam="2">  1       -1 0.71602370E-01 0.20240824E+04</pdfrwt>
<totfact> 0.39670757E+00</totfact>
</mgrwt>
</event>
<event>
 6    1  0.1603085E-006  0.8929256E+03  0.7818608E-02  0.9434468E-01
         -2   -1    0    0    0  501 -0.00000000000E+00  0.00000000000E+00  0.12853094688E+04  0.12853094688E+04  0.00000000000E+00 0.  1.
          2   -1    0    0  501    0  0.00000000000E+00 -0.00000000000E+00 -0.15508252193E+03  0.15508252193E+03  0.00000000000E+00 0. -1.
         23    2    1    2    0    0 -0.29211419589E+03 -0.18914881589E+03  0.10100898973E+04  0.10722332089E+04  0.91074011053E+02 0.  0.
         11    1    3    3    0    0 -0.25280970684E+03 -0.12002777138E+03  0.80581683199E+03  0.85302999977E+03  0.00000000000E+00 0. -1.
        -11    1    3    3    0    0 -0.39304489048E+02 -0.69121044502E+02  0.20427306534E+03  0.21920320909E+03  0.00000000000E+00 0.  1.
         22    1    1    2    0    0  0.29211419589E+03  0.18914881589E+03  0.12013704953E+03  0.36815878186E+03  0.00000000000E+00 0. -1.
<mgrwt>
<rscale>  0 0.89292560E+03</rscale>
<asrwt>0</asrwt>
<pdfrwt beam="1">  1        2 0.23858850E-01 0.89292560E+03</pdfrwt>
<pdfrwt beam="2">  1       -2 0.19773991E+00 0.89292560E+03</pdfrwt>
<totfact> 0.32065306E+01</totfact>
</mgrwt>
</event>
<event>
 6    1  0.1603085E-006  0.1478575E+04  0.7818608E-02  0.8898827E-01
          2   -1    0    0  501    0  0.00000000000E+00  0.00000000000E+00  0.82529861815E+03  0.82529861815E+03  0.00000000000E+00 0. -1.
         -2   -1    0    0    0  501 -0.00000000000E+00 -0.00000000000E+00 -0.66224036233E+03  0.66224036233E+03  0.00000000000E+00 0.  1.
         23    2    1    2    0    0  0.42524103272E+03 -0.28172142316E+03 -0.45222966396E+03  0.68830427126E+03  0.95153584767E+02 0.  0.
         13    1    3    3    0    0  0.17843678278E+03 -0.10079088545E+03 -0.24156137562E+03  0.31678129084E+03  0.00000000000E+00 0. -1.
        -13    1    3    3    0    0  0.24680424994E+03 -0.18093053771E+03 -0.21066828835E+03  0.37152298042E+03  0.00000000000E+00 0.  1.
         22    1    1    2    0    0 -0.42524103272E+03  0.28172142316E+03  0.61528791979E+03  0.79923470922E+03  0.00000000000E+00 0. -1.
<mgrwt>
<rscale>  0 0.14785751E+04</rscale>
<asrwt>0</asrwt>
<pdfrwt beam="1">  1        2 0.12696902E+00 0.14785751E+04</pdfrwt>
<pdfrwt beam="2">  1       -2 0.10188313E+00 0.14785751E+04</pdfrwt>
<totfact> 0.25265274E+01</totfact>
</mgrwt>
</event>
<event>
 6    1  0.1603085E-006  0.3208417E+04  0.7818608E-02  0.8186598E-01
          2   -1    0    0  501    0  0.00000000000E+00  0.00000000000E+00  0.29960397445E+04  0.29960397445E+04  0.00000000000E+00 0. -1.
         -2   -1    0    0    0  501 -0.00000000000E+00 -0.00000000000E+00 -0.85896214873E+03  0.85896214873E+03  0.00000000000E+00 0.  1.
         23    2    1    2    0    0 -0.34613175726E+03 -0.42638226132E+03 -0.74024429103E+03  0.92573743497E+03  0.86134557226E+02 0.  0.
         11    1    3    3    0    0 -0.99262323602E+02 -0.17070052615E+03 -0.21927501234E+03  0.29508169979E+03  0.00000000000E+00 0.  1.
        -11    1    3    3    0    0 -0.24686943366E+03 -0.25568173517E+03 -0.52096927868E+03  0.63065573517E+03  0.00000000000E+00 0. -1.
         22    1    1    2    0    0  0.34613175726E+03  0.42638226132E+03  0.28773218868E+04  0.29292644583E+04  0.00000000000E+00 0. -1.
<mgrwt>
<rscale>  0 0.32084169E+04</rscale>
<asrwt>0</asrwt>
<pdfrwt beam="1">  1        2 0.46092919E+00 0.32084169E+04</pdfrwt>
<pdfrwt beam="2">  1       -2 0.13214802E+00 0.32084169E+04</pdfrwt>
<totfact> 0.61343820E-01</totfact>
</mgrwt>
</event>
<event>
 6    1  0.1603085E-006  0.2214637E+04  0.7818608E-02  0.8512361E-01
          2   -1    0    0  501    0  0.00000000000E+00  0.00000000000E+00  0.10944749698E+04  0.10944749698E+04  0.00000000000E+00 0. -1.
         -2   -1    0    0    0  501 -0.00000000000E+00 -0.00000000000E+00 -0.11203123140E+04  0.11203123140E+04  0.00000000000E+00 0.  1.
         23    2    1    2    0    0  0.10378320948E+04 -0.26643305459E+03  0.25901383893E+03  0.11060843362E+04  0.90842502831E+02 0.  0.
         11    1    3    3    0    0  0.46025447810E+03 -0.13151337330E+03  0.16027630926E+03  0.50479545092E+03  0.00000000000E+00 0. -1.
        -11    1    3    3    0    0  0.57757761673E+03 -0.13491968130E+03  0.98737529672E+02  0.60128888524E+03  0.00000000000E+00 0.  1.
         22    1    1    2    0    0 -0.10378320948E+04  0.26643305459E+03 -0.28485118314E+03  0.11087029477E+04  0.00000000000E+00 0.  1.
<mgrwt>
<rscale>  0 0.22146366E+04</rscale>
<asrwt>0</asrwt>
<pdfrwt beam="1">  1        2 0.16838077E+00 0.22146366E+04</pdfrwt>
<pdfrwt beam="2">  1       -2 0.17235574E+00 0.22146366E+04</pdfrwt>
<totfact> 0.41110833E+00</totfact>
</mgrwt>
</event>
<event>
 6    1  0.1603085E-006  0.3714043E+04  0.7818608E-02  0.8064857E-01
          1   -1    0    0  501    0  0.00000000000E+00  0.00000000000E+00  0.15568526011E+04  0.15568526011E+04  0.00000000000E+00 0. -1.
         -1   -1    0    0    0  501 -0.00000000000E+00 -0.00000000000E+00 -0.22150645955E+04  0.22150645955E+04  0.00000000000E+00 0.  1.
         23    2    1    2    0    0 -0.13254547396E+04 -0.12877789812E+04 -0.50255959289E+03  0.19173464535E+04  0.91903791293E+02 0.  0.
         13    1    3    3    0    0 -0.61309202080E+03 -0.53621914130E+03 -0.20444715200E+03  0.83976867733E+03  0.00000000000E+00 0. -1.
        -13    1    3    3    0    0 -0.71236271882E+03 -0.75155983995E+03 -0.29811244089E+03  0.10775777761E+04  0.00000000000E+00 0.  1.
         22    1    1    2    0    0  0.13254547396E+04  0.12877789812E+04 -0.15565240157E+03  0.18545707432E+04  0.00000000000E+00 0. -1.
<mgrwt>
<rscale>  0 0.37140431E+04</rscale>
<asrwt>0</asrwt>
<pdfrwt beam="1">  1        1 0.23951579E+00 0.37140431E+04</pdfrwt>
<pdfrwt beam="2">  1       -1 0.34077917E+00 0.37140431E+04</pdfrwt>
<totfact> 0.85591156E-02</totfact>
</mgrwt>
</event>
<event>
 6    1  0.1603085E-006  0.6494010E+03  0.7818608E-02  0.9807904E-01
         -1   -1    0    0    0  501 -0.00000000000E+00  0.00000000000E+00  0.87342762961E+02  0.87342762961E+02  0.00000000000E+00 0.  1.
          1   -1    0    0  501    0  0.00000000000E+00 -0.00000000000E+00 -0.12070880166E+04  0.12070880166E+04  0.00000000000E+00 0. -1.
         23    2    1    2    0    0  0.10330374843E+03 -0.20613840210E+03 -0.10082077260E+04  0.10382954143E+04  0.91705198191E+02 0.  0.
         11    1    3    3    0    0  0.90387393949E+02 -0.13539853120E+03 -0.52193939557E+03  0.54673885529E+03  0.00000000000E+00 0.  1.
        -11    1    3    3    0    0  0.12916354479E+02 -0.70739870894E+02 -0.48626833038E+03  0.49155655898E+03  0.00000000000E+00 0. -1.
         22    1    1    2    0    0 -0.10330374843E+03  0.20613840210E+03 -0.11153752765E+03  0.25613536525E+03  0.00000000000E+00 0.  1.
<mgrwt>
<rscale>  0 0.64940096E+03</rscale>
<asrwt>0</asrwt>
<pdfrwt beam="1">  1        1 0.18570583E+00 0.64940096E+03</pdfrwt>
<pdfrwt beam="2">  1       -1 0.13437349E-01 0.64940096E+03</pdfrwt>
<totfact> 0.42256124E+02</totfact>
</mgrwt>
</event>
<event>
 6    1  0.1603085E-006  0.2383473E+04  0.7818608E-02  0.8445717E-01
         -2   -1    0    0    0  501 -0.00000000000E+00  0.00000000000E+00  0.44197949089E+03  0.44197949089E+03  0.00000000000E+00 0.  1.
          2   -1    0    0  501    0  0.00000000000E+00 -0.00000000000E+00 -0.32133527193E+04  0.32133527193E+04  0.00000000000E+00 0. -1.
         23    2    1    2    0    0 -0.10328826740E+04 -0.14695964941E+01 -0.48141905891E+03  0.11432138061E+04  0.91239893059E+02 0.  0.
         13    1    3    3    0    0 -0.34039312900E+03 -0.31957944752E+02 -0.12715286120E+03  0.36476930054E+03  0.00000000000E+00 0.  1.
        -13    1    3    3    0    0 -0.69248954501E+03  0.30488348258E+02 -0.35426619771E+03  0.77844450552E+03  0.00000000000E+00 0. -1.
         22    1    1    2    0    0  0.10328826740E+04  0.14695964941E+01 -0.22899541695E+04  0.25121184041E+04  0.00000000000E+00 0. -1.
<mgrwt>
<rscale>  0 0.23834731E+04</rscale>
<asrwt>0</asrwt>
<pdfrwt beam="1">  1        2 0.49436195E+00 0.23834731E+04</pdfrwt>
<pdfrwt beam="2">  1       -2 0.67996845E-01 0.23834731E+04</pdfrwt>
<totfact> 0.22687773E+00</totfact>
</mgrwt>
</event>
<event>
 6    1  0.1603085E-006  0.8980630E+03  0.7818608E-02  0.9428006E-01
          1   -1    0    0  501    0  0.00000000000E+00  0.00000000000E+00  0.89032147406E+03  0.89032147406E+03  0.00000000000E+00 0. -1.
         -1   -1    0    0    0  501 -0.00000000000E+00 -0.00000000000E+00 -0.22646796701E+03  0.22646796701E+03  0.00000000000E+00 0.  1.
         23    2    1    2    0    0 -0.11302258181E+03  0.33019748630E+03  0.67590905424E+03  0.76757629674E+03  0.10254675886E+03 0.  0.
         11    1    3    3    0    0 -0.49764580612E+01  0.59217237585E+02  0.20668905663E+03  0.21506234559E+03  0.00000000000E+00 0.  1.
        -11    1    3    3    0    0 -0.10804612375E+03  0.27098024871E+03  0.46921999761E+03  0.55251395114E+03  0.00000000000E+00 0. -1.
         22    1    1    2    0    0  0.11302258181E+03 -0.33019748630E+03 -0.12055547186E+02  0.34921314433E+03  0.00000000000E+00 0.  1.
<mgrwt>
<rscale>  0 0.89806301E+03</rscale>
<asrwt>0</asrwt>
<pdfrwt beam="1">  1        1 0.13697253E+00 0.89806301E+03</pdfrwt>
<pdfrwt beam="2">  1       -1 0.34841226E-01 0.89806301E+03</pdfrwt>
<totfact> 0.14593136E+02</totfact>
</mgrwt>
</event>
<event>
 6    1  0.1603085E-006  0.1398698E+04  0.7818608E-02  0.8954761E-01
         -2   -1    0    0    0  501 -0.00000000000E+00  0.00000000000E+00  0.33406891960E+03  0.33406891960E+03  0.00000000000E+00 0.  1.
          2   -1    0    0  501    0  0.00000000000E+00 -0.00000000000E+00 -0.14640367392E+04  0.14640367392E+04  0.00000000000E+00 0. -1.
         23    2    1    2    0    0  0.54935385225E+03 -0.27095123935E+03 -0.99387963594E+03  0.11706311790E+04  0.85885956095E+02 0.  0.
         13    1    3    3    0    0  0.20141979012E+03 -0.12434503331E+03 -0.45134210060E+03  0.50964822273E+03  0.00000000000E+00 0. -1.
        -13    1    3    3    0    0  0.34793406213E+03 -0.14660620604E+03 -0.54253753534E+03  0.66098295628E+03  0.00000000000E+00 0.  1.
         22    1    1    2    0    0 -0.54935385225E+03  0.27095123935E+03 -0.13608818370E+03  0.62747447982E+03  0.00000000000E+00 0.  1.
<mgrwt>
<rscale>  0 0.13986982E+04</rscale>
<asrwt>0</asrwt>
<pdfrwt beam="1">  1        2 0.22523642E+00 0.13986982E+04</pdfrwt>
<pdfrwt beam="2">  1       -2 0.51395219E-01 0.13986982E+04</pdfrwt>
<totfact> 0.46307828E+01</totfact>
</mgrwt>
</event>
<event>
 6    1  0.1603085E-006  0.2022788E+04  0.7818608E-02  0.8596040E-01
         -1   -1    0    0    0  501 -0.00000000000E+00  0.00000000000E+00  0.16143510989E+04  0.16143510989E+04  0.00000000000E+00 0.  1.
          1   -1    0    0  501    0  0.00000000000E+00 -0.00000000000E+00 -0.63363995316E+03  0.63363995316E+03  0.00000000000E+00 0. -1.
         23    2    1    2    0    0  0.24226151981E+03  0.57951593103E+03  0.13695595890E+04  0.15092539743E+04  0.87319716392E+02 0.  0.
         13    1    3    3    0    0 -0.60405320274E+01  0.35521390978E+02  0.85493865664E+02  0.92776388755E+02  0.00000000000E+00 0. -1.
        -13    1    3    3    0    0  0.24830205184E+03  0.54399454005E+03  0.12840657233E+04  0.14164775856E+04  0.00000000000E+00 0.  1.
         22    1    1    2    0    0 -0.24226151981E+03 -0.57951593103E+03 -0.38884844322E+03  0.73873707779E+03  0.00000000000E+00 0. -1.
<mgrwt>
<rscale>  0 0.20227875E+04</rscale>
<asrwt>0</asrwt>
<pdfrwt beam="1">  1        1 0.97483071E-01 0.20227875E+04</pdfrwt>
<pdfrwt beam="2">  1       -1 0.24836171E+00 0.20227875E+04</pdfrwt>
<totfact> 0.20923606E+00</totfact>
</mgrwt>
</event>
<event>
 6    1  0.1603085E-006  0.3943776E+03  0.7818608E-02  0.1045744E+00
         -2   -1    0    0    0  501 -0.00000000000E+00  0.00000000000E+00  0.45792153220E+02  0.45792153220E+02  0.00000000000E+00 0.  1.
          2   -1    0    0  501    0  0.00000000000E+00 -0.00000000000E+00 -0.84912860860E+03  0.84912860860E+03  0.00000000000E+00 0. -1.
         23    2    1    2    0    0  0.10831998664E+03  0.62047475708E+02 -0.73950824241E+03  0.75471680496E+03  0.84509800356E+02 0.  0.
         11    1    3    3    0    0  0.48262900305E+02 -0.17268250278E+02 -0.25286252437E+03  0.25800572909E+03  0.00000000000E+00 0. -1.
        -11    1    3    3    0    0  0.60057086334E+02  0.79315725986E+02 -0.48664571804E+03  0.49671107587E+03  0.00000000000E+00 0.  1.
         22    1    1    2    0    0 -0.10831998664E+03 -0.62047475708E+02 -0.63828212971E+02  0.14020395686E+03  0.00000000000E+00 0.  1.
<mgrwt>
<rscale>  0 0.39437762E+03</rscale>
<asrwt>0</asrwt>
<pdfrwt beam="1">  1        2 0.13063517E+00 0.39437762E+03</pdfrwt>
<pdfrwt beam="2">  1       -2 0.70449469E-02 0.39437762E+03</pdfrwt>
<totfact> 0.38065460E+03</totfact>
</mgrwt>
</event>
<event>
 6    1  0.1603085E-006  0.1076994E+04  0.7818608E-02  0.9227910E-01
          2   -1    0    0  501    0  0.00000000000E+00  0.00000000000E+00  0.97045721839E+03  0.97045721839E+03  0.00000000000E+00 0. -1.
         -2   -1    0    0    0  501 -0.00000000000E+00 -0.00000000000E+00 -0.29880672126E+03  0.29880672126E+03  0.00000000000E+00 0.  1.
         23    2    1    2    0    0  0.11626609913E+03 -0.50468932400E+03  0.49483615740E+03  0.72200492392E+03  0.90549256874E+02 0.  0.
         13    1    3    3    0    0 -0.31793055061E+01 -0.14959637392E+03  0.11728161472E+03  0.19011617560E+03  0.00000000000E+00 0. -1.
        -13    1    3    3    0    0  0.11944540464E+03 -0.35509295008E+03  0.37755454268E+03  0.53188874832E+03  0.00000000000E+00 0.  1.
         22    1    1    2    0    0 -0.11626609913E+03  0.50468932400E+03  0.17681433973E+03  0.54725901573E+03  0.00000000000E+00 0.  1.
<mgrwt>
<rscale>  0 0.10769942E+04</rscale>
<asrwt>0</asrwt>
<pdfrwt beam="1">  1        2 0.14930111E+00 0.10769942E+04</pdfrwt>
<pdfrwt beam="2">  1       -2 0.45970265E-01 0.10769942E+04</pdfrwt>
<totfact> 0.11738053E+02</totfact>
</mgrwt>
</event>
<event>
 6    1  0.1603085E-006  0.2288998E+04  0.7818608E-02  0.8482272E-01
          1   -1    0    0  501    0  0.00000000000E+00  0.00000000000E+00  0.14702584670E+04  0.14702584670E+04  0.00000000000E+00 0. -1.
         -1   -1    0    0    0  501 -0.00000000000E+00 -0.00000000000E+00 -0.89091685004E+03  0.89091685004E+03  0.00000000000E+00 0.  1.
         23    2    1    2    0    0  0.49060416375E+03 -0.35064827170E+03  0.12907243722E+04  0.14285917656E+04  0.10610547512E+03 0.  0.
         11    1    3    3    0    0  0.10826045632E+03 -0.49774273912E+02  0.17858746822E+03  0.21468881795E+03  0.00000000000E+00 0.  1.
        -11    1    3    3    0    0  0.38234370743E+03 -0.30087399779E+03  0.11121369040E+04  0.12139029477E+04  0.00000000000E+00 0. -1.
         22    1    1    2    0    0 -0.49060416375E+03  0.35064827170E+03 -0.71138275525E+03  0.93258355143E+03  0.00000000000E+00 0.  1.
<mgrwt>
<rscale>  0 0.22889981E+04</rscale>
<asrwt>0</asrwt>
<pdfrwt beam="1">  1        1 0.22619361E+00 0.22889981E+04</pdfrwt>
<pdfrwt beam="2">  1       -1 0.13706413E+00 0.22889981E+04</pdfrwt>
<totfact> 0.27496741E+00</totfact>
</mgrwt>
</event>
<event>
 6    1  0.1603085E-006  0.1033254E+04  0.7818608E-02  0.9272806E-01
          1   -1    0    0  501    0  0.00000000000E+00  0.00000000000E+00  0.16199148143E+04  0.16199148143E+04  0.00000000000E+00 0. -1.
         -1   -1    0    0    0  501 -0.00000000000E+00 -0.00000000000E+00 -0.16476374957E+03  0.16476374957E+03  0.00000000000E+00 0.  1.
         23    2    1    2    0    0  0.20756403033E+03 -0.34475564745E+03  0.12812728176E+04  0.13463032362E+04  0.94515011768E+02 0.  0.
         11    1    3    3    0    0  0.28917969870E+02 -0.49355687090E+01  0.83126797457E+02  0.88151422424E+02  0.00000000000E+00 0.  1.
        -11    1    3    3    0    0  0.17864606046E+03 -0.33982007874E+03  0.11981460201E+04  0.12581518137E+04  0.00000000000E+00 0. -1.
         22    1    1    2    0    0 -0.20756403033E+03  0.34475564745E+03  0.17387824717E+03  0.43837532774E+03  0.00000000000E+00 0.  1.
<mgrwt>
<rscale>  0 0.10332536E+04</rscale>
<asrwt>0</asrwt>
<pdfrwt beam="1">  1        1 0.24921765E+00 0.10332536E+04</pdfrwt>
<pdfrwt beam="2">  1       -1 0.25348270E-01 0.10332536E+04</pdfrwt>
<totfact> 0.74047043E+01</totfact>
</mgrwt>
</event>
<event>
 6    1  0.1603085E-006  0.1825612E+04  0.7818608E-02  0.8692797E-01
          1   -1    0    0  501    0  0.00000000000E+00  0.00000000000E+00  0.23909320845E+04  0.23909320845E+04  0.00000000000E+00 0. -1.
         -1   -1    0    0    0  501 -0.00000000000E+00 -0.00000000000E+00 -0.34848935190E+03  0.34848935190E+03  0.00000000000E+00 0.  1.
         23    2    1    2    0    0  0.11022836195E+03 -0.48068468319E+03  0.21726305867E+04  0.22293656220E+04  0.80866272314E+02 0.  0.
         13    1    3    3    0    0  0.82959858631E+02 -0.24269598044E+03  0.98721456716E+03  0.10199883718E+04  0.00000000000E+00 0.  1.
        -13    1    3    3    0    0  0.27268503320E+02 -0.23798870275E+03  0.11854160195E+04  0.12093772502E+04  0.00000000000E+00 0. -1.
         22    1    1    2    0    0 -0.11022836195E+03  0.48068468319E+03 -0.13018785408E+03  0.51005581438E+03  0.00000000000E+00 0.  1.
<mgrwt>
<rscale>  0 0.18256115E+04</rscale>
<asrwt>0</asrwt>
<pdfrwt beam="1">  1        1 0.36783569E+00 0.18256115E+04</pdfrwt>
<pdfrwt beam="2">  1       -1 0.53613748E-01 0.18256115E+04</pdfrwt>
<totfact> 0.53311696E+00</totfact>
</mgrwt>
</event>
<event>
 6    1  0.1603085E-006  0.3200291E+04  0.7818608E-02  0.8188740E-01
          2   -1    0    0  501    0  0.00000000000E+00  0.00000000000E+00  0.19846558411E+04  0.19846558411E+04  0.00000000000E+00 0. -1.
         -2   -1    0    0    0  501 -0.00000000000E+00 -0.00000000000E+00 -0.12901307975E+04  0.12901307975E+04  0.00000000000E+00 0.  1.
         23    2    1    2    0    0 -0.67164734438E+03 -0.76212823988E+03  0.16109359400E+04  0.19066643705E+04  0.91130729242E+02 0.  0.
         11    1    3    3    0    0 -0.63277736944E+03 -0.74443086380E+03  0.15505894133E+04  0.18327334882E+04  0.00000000000E+00 0. -1.
        -11    1    3    3    0    0 -0.38869974937E+02 -0.17697376086E+02  0.60346526694E+02  0.73930882289E+02  0.00000000000E+00 0.  1.
         22    1    1    2    0    0  0.67164734438E+03  0.76212823988E+03 -0.91641089637E+03  0.13681222680E+04  0.00000000000E+00 0.  1.
<mgrwt>
<rscale>  0 0.32002910E+04</rscale>
<asrwt>0</asrwt>
<pdfrwt beam="1">  1        2 0.30533167E+00 0.32002910E+04</pdfrwt>
<pdfrwt beam="2">  1       -2 0.19848166E+00 0.32002910E+04</pdfrwt>
<totfact> 0.78092632E-01</totfact>
</mgrwt>
</event>
<event>
 6    1  0.1603085E-006  0.1623459E+04  0.7818608E-02  0.8806265E-01
         -2   -1    0    0    0  501 -0.00000000000E+00  0.00000000000E+00  0.30868784299E+03  0.30868784299E+03  0.00000000000E+00 0.  1.
          2   -1    0    0  501    0  0.00000000000E+00 -0.00000000000E+00 -0.21345338227E+04  0.21345338227E+04  0.00000000000E+00 0. -1.
         23    2    1    2    0    0 -0.22282800800E+03 -0.17203265545E+02 -0.20861469048E+04  0.21001402685E+04  0.92908372657E+02 0.  0.
         13    1    3    3    0    0 -0.14864170385E+03 -0.15689564970E+02 -0.17241580999E+04  0.17306246480E+04  0.00000000000E+00 0.  1.
        -13    1    3    3    0    0 -0.74186304153E+02 -0.15137005757E+01 -0.36198880485E+03  0.36951562057E+03  0.00000000000E+00 0. -1.
         22    1    1    2    0    0  0.22282800800E+03  0.17203265545E+02  0.26030092506E+03  0.34308139717E+03  0.00000000000E+00 0.  1.
<mgrwt>
<rscale>  0 0.16234588E+04</rscale>
<asrwt>0</asrwt>
<pdfrwt beam="1">  1        2 0.32838982E+00 0.16234588E+04</pdfrwt>
<pdfrwt beam="2">  1       -2 0.47490437E-01 0.16234588E+04</pdfrwt>
<totfact> 0.22616138E+01</totfact>
</mgrwt>
</event>
<event>
 6    1  0.1603085E-006  0.2502789E+04  0.7818608E-02  0.8401992E-01
         -2   -1    0    0    0  501 -0.00000000000E+00  0.00000000000E+00  0.77472402148E+03  0.77472402148E+03  0.00000000000E+00 0.  1.
          2   -1    0    0  501    0  0.00000000000E+00 -0.00000000000E+00 -0.20213502815E+04  0.20213502815E+04  0.00000000000E+00 0. -1.
         23    2    1    2    0    0  0.22261838577E+03 -0.46653757159E+03 -0.18953918551E+04  0.19665485054E+04  0.87100449816E+02 0.  0.
         13    1    3    3    0    0  0.65755218829E+02 -0.21129339070E+03 -0.69753819665E+03  0.73179791032E+03  0.00000000000E+00 0.  1.
        -13    1    3    3    0    0  0.15686316695E+03 -0.25524418089E+03 -0.11978536584E+04  0.12347505951E+04  0.00000000000E+00 0. -1.
         22    1    1    2    0    0 -0.22261838577E+03  0.46653757159E+03  0.64876559511E+03  0.82952579754E+03  0.00000000000E+00 0.  1.
<mgrwt>
<rscale>  0 0.25027893E+04</rscale>
<asrwt>0</asrwt>
<pdfrwt beam="1">  1        2 0.31097696E+00 0.25027893E+04</pdfrwt>
<pdfrwt beam="2">  1       -2 0.11918831E+00 0.25027893E+04</pdfrwt>
<totfact> 0.31303520E+00</totfact>
</mgrwt>
</event>
<event>
 6    1  0.1603085E-006  0.1656329E+04  0.7818608E-02  0.8786671E-01
         -2   -1    0    0    0  501 -0.00000000000E+00  0.00000000000E+00  0.51585768680E+03  0.51585768680E+03  0.00000000000E+00 0.  1.
          2   -1    0    0  501    0  0.00000000000E+00 -0.00000000000E+00 -0.13295455566E+04  0.13295455566E+04  0.00000000000E+00 0. -1.
         23    2    1    2    0    0  0.18670232747E+03 -0.66395552965E+03 -0.91421115183E+03  0.11484099618E+04  0.85841166004E+02 0.  0.
         11    1    3    3    0    0  0.13085196399E+03 -0.34304874500E+03 -0.52920662971E+03  0.64409963115E+03  0.00000000000E+00 0. -1.
        -11    1    3    3    0    0  0.55850363483E+02 -0.32090678465E+03 -0.38500452212E+03  0.50431033064E+03  0.00000000000E+00 0.  1.
         22    1    1    2    0    0 -0.18670232747E+03  0.66395552965E+03  0.10052328199E+03  0.69699328164E+03  0.00000000000E+00 0.  1.
<mgrwt>
<rscale>  0 0.16563288E+04</rscale>
<asrwt>0</asrwt>
<pdfrwt beam="1">  1        2 0.20454547E+00 0.16563288E+04</pdfrwt>
<pdfrwt beam="2">  1       -2 0.79362722E-01 0.16563288E+04</pdfrwt>
<totfact> 0.21352955E+01</totfact>
</mgrwt>
</event>
<event>
 6    1  0.1603085E-006  0.1014401E+04  0.7818608E-02  0.9292889E-01
         -1   -1    0    0    0  501 -0.00000000000E+00  0.00000000000E+00  0.10414273336E+04  0.10414273336E+04  0.00000000000E+00 0.  1.
          1   -1    0    0  501    0  0.00000000000E+00 -0.00000000000E+00 -0.24701906166E+03  0.24701906166E+03  0.00000000000E+00 0. -1.
         23    2    1    2    0    0 -0.51302125550E+01 -0.10278788422E+03  0.10259724517E+04  0.10350422960E+04  0.90007858558E+02 0.  0.
         11    1    3    3    0    0 -0.28850689138E+01  0.43618440988E+01  0.39486013671E+03  0.39489476683E+03  0.00000000000E+00 0. -1.
        -11    1    3    3    0    0 -0.22451436412E+01 -0.10714972832E+03  0.63111231498E+03  0.64014752914E+03  0.00000000000E+00 0.  1.
         22    1    1    2    0    0  0.51302125550E+01  0.10278788422E+03 -0.23156417972E+03  0.25340409932E+03  0.00000000000E+00 0. -1.
<mgrwt>
<rscale>  0 0.10144011E+04</rscale>
<asrwt>0</asrwt>
<pdfrwt beam="1">  1        1 0.38002933E-01 0.10144011E+04</pdfrwt>
<pdfrwt beam="2">  1       -1 0.16021959E+00 0.10144011E+04</pdfrwt>
<totfact> 0.32956860E+01</totfact>
</mgrwt>
</event>
<event>
 6    1  0.1603085E-006  0.4006522E+04  0.7818608E-02  0.8003232E-01
         -2   -1    0    0    0  501 -0.00000000000E+00  0.00000000000E+00  0.89307945893E+03  0.89307945893E+03  0.00000000000E+00 0.  1.
          2   -1    0    0  501    0  0.00000000000E+00 -0.00000000000E+00 -0.44935031848E+04  0.44935031848E+04  0.00000000000E+00 0. -1.
         23    2    1    2    0    0  0.11680604971E+04  0.66728266888E+03  0.19285894717E+03  0.13618311082E+04  0.88078992183E+02 0.  0.
         13    1    3    3    0    0  0.97364466180E+03  0.53421883065E+03  0.13114318550E+03  0.11182898647E+04  0.00000000000E+00 0. -1.
        -13    1    3    3    0    0  0.19441583526E+03  0.13306383823E+03  0.61715761664E+02  0.24354124350E+03  0.00000000000E+00 0.  1.
         22    1    1    2    0    0 -0.11680604971E+04 -0.66728266888E+03 -0.37932826730E+04  0.40247515355E+04  0.00000000000E+00 0. -1.
<mgrwt>
<rscale>  0 0.40065224E+04</rscale>
<asrwt>0</asrwt>
<pdfrwt beam="1">  1        2 0.69130818E+00 0.40065224E+04</pdfrwt>
<pdfrwt beam="2">  1       -2 0.13739684E+00 0.40065224E+04</pdfrwt>
<totfact> 0.36868733E-02</totfact>
</mgrwt>
</event>
<event>
 6    1  0.1603085E-006  0.9365168E+03  0.7818608E-02  0.9381051E-01
          1   -1    0    0  501    0  0.00000000000E+00  0.00000000000E+00  0.10940643263E+04  0.10940643263E+04  0.00000000000E+00 0. -1.
         -1   -1    0    0    0  501 -0.00000000000E+00 -0.00000000000E+00 -0.20041412365E+03  0.20041412365E+03  0.00000000000E+00 0.  1.
         23    2    1    2    0    0 -0.46142068617E+03 -0.43643771434E+02  0.42615592251E+03  0.63617401401E+03  0.91075119535E+02 0.  0.
         11    1    3    3    0    0 -0.35499430885E+03 -0.65090406941E+02  0.35579610622E+03  0.50680231806E+03  0.00000000000E+00 0. -1.
        -11    1    3    3    0    0 -0.10642637732E+03  0.21446635507E+02  0.70359816297E+02  0.12937169595E+03  0.00000000000E+00 0.  1.
         22    1    1    2    0    0  0.46142068617E+03  0.43643771434E+02  0.46749428015E+03  0.65830443594E+03  0.00000000000E+00 0. -1.
<mgrwt>
<rscale>  0 0.93651683E+03</rscale>
<asrwt>0</asrwt>
<pdfrwt beam="1">  1        1 0.16831759E+00 0.93651683E+03</pdfrwt>
<pdfrwt beam="2">  1       -1 0.30832943E-01 0.93651683E+03</pdfrwt>
<totfact> 0.12513873E+02</totfact>
</mgrwt>
</event>
<event>
 6    1  0.1603085E-006  0.3114598E+04  0.7818608E-02  0.8211743E-01
         -1   -1    0    0    0  501 -0.00000000000E+00  0.00000000000E+00  0.12828844245E+04  0.12828844245E+04  0.00000000000E+00 0.  1.
          1   -1    0    0  501    0  0.00000000000E+00 -0.00000000000E+00 -0.18904115000E+04  0.18904115000E+04  0.00000000000E+00 0. -1.
         23    2    1    2    0    0  0.15083844322E+04 -0.32102331338E+03 -0.92493016496E+02  0.15473993580E+04  0.87236759166E+02 0.  0.
         13    1    3    3    0    0  0.64102377117E+03 -0.17725668094E+03 -0.23344622274E+02  0.66548957733E+03  0.00000000000E+00 0. -1.
        -13    1    3    3    0    0  0.86736066102E+03 -0.14376663243E+03 -0.69148394222E+02  0.88190978071E+03  0.00000000000E+00 0.  1.
         22    1    1    2    0    0 -0.15083844322E+04  0.32102331338E+03 -0.51503405897E+03  0.16258965665E+04  0.00000000000E+00 0. -1.
<mgrwt>
<rscale>  0 0.31145975E+04</rscale>
<asrwt>0</asrwt>
<pdfrwt beam="1">  1        1 0.29083254E+00 0.31145975E+04</pdfrwt>
<pdfrwt beam="2">  1       -1 0.19736684E+00 0.31145975E+04</pdfrwt>
<totfact> 0.46784965E-01</totfact>
</mgrwt>
</event>
<event>
 6    1  0.1603085E-006  0.3323382E+04  0.7818608E-02  0.8156971E-01
         -1   -1    0    0    0  501 -0.00000000000E+00  0.00000000000E+00  0.13238817015E+04  0.13238817015E+04  0.00000000000E+00 0.  1.
          1   -1    0    0  501    0  0.00000000000E+00 -0.00000000000E+00 -0.20856975609E+04  0.20856975609E+04  0.00000000000E+00 0. -1.
         23    2    1    2    0    0 -0.99012563653E+03  0.47950802748E+03  0.89476645920E+03  0.14209763098E+04  0.91049063446E+02 0.  0.
         13    1    3    3    0    0 -0.67092992536E+03  0.28045497465E+03  0.56882416369E+03  0.92323501165E+03  0.00000000000E+00 0.  1.
        -13    1    3    3    0    0 -0.31919571118E+03  0.19905305283E+03  0.32594229552E+03  0.49774129814E+03  0.00000000000E+00 0. -1.
         22    1    1    2    0    0  0.99012563653E+03 -0.47950802748E+03 -0.16565823187E+04  0.19886029526E+04  0.00000000000E+00 0. -1.
<mgrwt>
<rscale>  0 0.33233819E+04</rscale>
<asrwt>0</asrwt>
<pdfrwt beam="1">  1        1 0.32087655E+00 0.33233819E+04</pdfrwt>
<pdfrwt beam="2">  1       -1 0.20367411E+00 0.33233819E+04</pdfrwt>
<totfact> 0.30641490E-01</totfact>
</mgrwt>
</event>
<event>
 6    1  0.1603085E-006  0.4077143E+03  0.7818608E-02  0.1041141E+00
          1   -1    0    0  501    0  0.00000000000E+00  0.00000000000E+00  0.61337717948E+03  0.61337717948E+03  0.00000000000E+00 0. -1.
         -1   -1    0    0    0  501 -0.00000000000E+00 -0.00000000000E+00 -0.67752341727E+02  0.67752341727E+02  0.00000000000E+00 0.  1.
         23    2    1    2    0    0 -0.12870990507E+03  0.10465582677E+03  0.45312624790E+03  0.49119513553E+03  0.91816027399E+02 0.  0.
         13    1    3    3    0    0 -0.14089291986E+03  0.85525318842E+02  0.41866845972E+03  0.44994296771E+03  0.00000000000E+00 0.  1.
        -13    1    3    3    0    0  0.12183014793E+02  0.19130507923E+02  0.34457788186E+02  0.41252167816E+02  0.00000000000E+00 0. -1.
         22    1    1    2    0    0  0.12870990507E+03 -0.10465582677E+03  0.92498589851E+02  0.18993438568E+03  0.00000000000E+00 0.  1.
<mgrwt>
<rscale>  0 0.40771431E+03</rscale>
<asrwt>0</asrwt>
<pdfrwt beam="1">  1        1 0.94365716E-01 0.40771431E+03</pdfrwt>
<pdfrwt beam="2">  1       -1 0.10423438E-01 0.40771431E+03</pdfrwt>
<totfact> 0.19550612E+03</totfact>
</mgrwt>
</event>
<event>
 6    1  0.1603085E-006  0.1882468E+04  0.7818608E-02  0.8663633E-01
         -2   -1    0    0    0  501 -0.00000000000E+00  0.00000000000E+00  0.16726544172E+04  0.16726544172E+04  0.00000000000E+00 0.  1.
          2   -1    0    0  501    0  0.00000000000E+00 -0.00000000000E+00 -0.52965011076E+03  0.52965011076E+03  0.00000000000E+00 0. -1.
         23    2    1    2    0    0  0.33734276419E+03 -0.37262009324E+03  0.15010925923E+04  0.15851553605E+04  0.82417666366E+02 0.  0.
         11    1    3    3    0    0  0.32296575177E+03 -0.33626223402E+03  0.13208937101E+04  0.14007638488E+04  0.00000000000E+00 0. -1.
        -11    1    3    3    0    0  0.14377012418E+02 -0.36357859229E+02  0.18019888224E+03  0.18439151167E+03  0.00000000000E+00 0.  1.
         22    1    1    2    0    0 -0.33734276419E+03  0.37262009324E+03 -0.35808828587E+03  0.61714916748E+03  0.00000000000E+00 0. -1.
<mgrwt>
<rscale>  0 0.18824682E+04</rscale>
<asrwt>0</asrwt>
<pdfrwt beam="1">  1        2 0.81484633E-01 0.18824682E+04</pdfrwt>
<pdfrwt beam="2">  1       -2 0.25733145E+00 0.18824682E+04</pdfrwt>
<totfact> 0.31276596E+00</totfact>
</mgrwt>
</event>
<event>
 6    1  0.1603085E-006  0.2810372E+04  0.7818608E-02  0.8300056E-01
          1   -1    0    0  501    0  0.00000000000E+00  0.00000000000E+00  0.15993905652E+04  0.15993905652E+04  0.00000000000E+00 0. -1.
         -1   -1    0    0    0  501 -0.00000000000E+00 -0.00000000000E+00 -0.12345623143E+04  0.12345623143E+04  0.00000000000E+00 0.  1.
         23    2    1    2    0    0 -0.11215177476E+04 -0.78098860588E+03  0.50737923492E+03  0.14598837242E+04  0.77984225673E+02 0.  0.
         11    1    3    3    0    0 -0.86199029714E+03 -0.58278367698E+03  0.41783850833E+03  0.11212729844E+04  0.00000000000E+00 0. -1.
        -11    1    3    3    0    0 -0.25952745042E+03 -0.19820492891E+03  0.89540726581E+02  0.33861073976E+03  0.00000000000E+00 0.  1.
         22    1    1    2    0    0  0.11215177476E+04  0.78098860588E+03 -0.14255098398E+03  0.13740691553E+04  0.00000000000E+00 0.  1.
<mgrwt>
<rscale>  0 0.28103717E+04</rscale>
<asrwt>0</asrwt>
<pdfrwt beam="1">  1        1 0.24606009E+00 0.28103717E+04</pdfrwt>
<pdfrwt beam="2">  1       -1 0.18993266E+00 0.28103717E+04</pdfrwt>
<totfact> 0.85464958E-01</totfact>
</mgrwt>
</event>
<event>
 6    1  0.1603085E-006  0.2345728E+04  0.7818608E-02  0.8460106E-01
          3   -1    0    0  501    0  0.00000000000E+00  0.00000000000E+00  0.18407181057E+04  0.18407181057E+04  0.00000000000E+00 0. -1.
         -3   -1    0    0    0  501 -0.00000000000E+00 -0.00000000000E+00 -0.74732232897E+03  0.74732232897E+03  0.00000000000E+00 0.  1.
         23    2    1    2    0    0 -0.80099414200E+03  0.47116221543E+03  0.13336094253E+04  0.16282029246E+04  0.94579150484E+02 0.  0.
         13    1    3    3    0    0 -0.37415440844E+03  0.22815291705E+03  0.71060457934E+03  0.83486773988E+03  0.00000000000E+00 0. -1.
        -13    1    3    3    0    0 -0.42683973357E+03  0.24300929838E+03  0.62300484593E+03  0.79333518471E+03  0.00000000000E+00 0.  1.
         22    1    1    2    0    0  0.80099414200E+03 -0.47116221543E+03 -0.24021364855E+03  0.95983751006E+03  0.00000000000E+00 0. -1.
<mgrwt>
<rscale>  0 0.23457278E+04</rscale>
<asrwt>0</asrwt>
<pdfrwt beam="1">  1        3 0.28318740E+00 0.23457278E+04</pdfrwt>
<pdfrwt beam="2">  1       -3 0.11497267E+00 0.23457278E+04</pdfrwt>
<totfact> 0.70838646E-02</totfact>
</mgrwt>
</event>
<event>
 6    1  0.1603085E-006  0.1680027E+04  0.7818608E-02  0.8772838E-01
         -2   -1    0    0    0  501 -0.00000000000E+00  0.00000000000E+00  0.64678294350E+03  0.64678294350E+03  0.00000000000E+00 0.  1.
          2   -1    0    0  501    0  0.00000000000E+00 -0.00000000000E+00 -0.10909735569E+04  0.10909735569E+04  0.00000000000E+00 0. -1.
         23    2    1    2    0    0 -0.72520350877E+02 -0.74009911058E+03  0.17581143130E+03  0.76955795145E+03  0.91125663118E+02 0.  0.
         11    1    3    3    0    0 -0.63621885522E+02 -0.22651041982E+03  0.64744793102E+02  0.24402172616E+03  0.00000000000E+00 0.  1.
        -11    1    3    3    0    0 -0.88984653556E+01 -0.51358869077E+03  0.11106663820E+03  0.52553622529E+03  0.00000000000E+00 0. -1.
         22    1    1    2    0    0  0.72520350877E+02  0.74009911058E+03 -0.62000204473E+03  0.96819854898E+03  0.00000000000E+00 0.  1.
<mgrwt>
<rscale>  0 0.16800275E+04</rscale>
<asrwt>0</asrwt>
<pdfrwt beam="1">  1        2 0.16784209E+00 0.16800275E+04</pdfrwt>
<pdfrwt beam="2">  1       -2 0.99505068E-01 0.16800275E+04</pdfrwt>
<totfact> 0.17581092E+01</totfact>
</mgrwt>
</event>
<event>
 6    1  0.1603085E-006  0.5310524E+04  0.7818608E-02  0.7782313E-01
         -2   -1    0    0    0  501 -0.00000000000E+00  0.00000000000E+00  0.19239142290E+04  0.19239142290E+04  0.00000000000E+00 0.  1.
          2   -1    0    0  501    0  0.00000000000E+00 -0.00000000000E+00 -0.36646214094E+04  0.36646214094E+04  0.00000000000E+00 0. -1.
         23    2    1    2    0    0 -0.97220548585E+03  0.17224085879E+04 -0.27336472755E+04  0.33754371583E+04  0.94200490522E+02 0.  0.
         11    1    3    3    0    0 -0.12668130626E+03  0.22534607339E+03 -0.30538712630E+03  0.40011286290E+03  0.00000000000E+00 0.  1.
        -11    1    3    3    0    0 -0.84552417959E+03  0.14970625145E+04 -0.24282601492E+04  0.29753242954E+04  0.00000000000E+00 0. -1.
         22    1    1    2    0    0  0.97220548585E+03 -0.17224085879E+04  0.99294009511E+03  0.22130984802E+04  0.00000000000E+00 0.  1.
<mgrwt>
<rscale>  0 0.53105244E+04</rscale>
<asrwt>0</asrwt>
<pdfrwt beam="1">  1        2 0.56378791E+00 0.53105244E+04</pdfrwt>
<pdfrwt beam="2">  1       -2 0.29598681E+00 0.53105244E+04</pdfrwt>
<totfact> 0.14764640E-02</totfact>
</mgrwt>
</event>
<event>
 6    1  0.1603085E-006  0.1480051E+04  0.7818608E-02  0.8897828E-01
         -2   -1    0    0    0  501 -0.00000000000E+00  0.00000000000E+00  0.36127316049E+03  0.36127316049E+03  0.00000000000E+00 0.  1.
          2   -1    0    0  501    0  0.00000000000E+00 -0.00000000000E+00 -0.15158550491E+04  0.15158550491E+04  0.00000000000E+00 0. -1.
         23    2    1    2    0    0 -0.44349581995E+03  0.16809074534E+03  0.13626668907E+03  0.50190710319E+03  0.91646542223E+02 0.  0.
         11    1    3    3    0    0 -0.24551382658E+03  0.10323368025E+03  0.29952043536E+02  0.26801372482E+03  0.00000000000E+00 0.  1.
        -11    1    3    3    0    0 -0.19798199337E+03  0.64857065094E+02  0.10631464554E+03  0.23389337837E+03  0.00000000000E+00 0. -1.
         22    1    1    2    0    0  0.44349581995E+03 -0.16809074534E+03 -0.12908485777E+04  0.13752211064E+04  0.00000000000E+00 0. -1.
<mgrwt>
<rscale>  0 0.14800510E+04</rscale>
<asrwt>0</asrwt>
<pdfrwt beam="1">  1        2 0.23320847E+00 0.14800510E+04</pdfrwt>
<pdfrwt beam="2">  1       -2 0.55580485E-01 0.14800510E+04</pdfrwt>
<totfact> 0.36592426E+01</totfact>
</mgrwt>
</event>
<event>
 6    1  0.1603085E-006  0.3120875E+04  0.7818608E-02  0.8210032E-01
         -2   -1    0    0    0  501 -0.00000000000E+00  0.00000000000E+00  0.86675271057E+03  0.86675271057E+03  0.00000000000E+00 0. -1.
          2   -1    0    0  501    0  0.00000000000E+00 -0.00000000000E+00 -0.28092957298E+04  0.28092957298E+04  0.00000000000E+00 0.  1.
         23    2    1    2    0    0 -0.91150554064E+03 -0.80407454726E+03  0.17800682255E+03  0.12318492137E+04  0.91585087515E+02 0.  0.
         13    1    3    3    0    0 -0.18189040454E+03 -0.12823275942E+03  0.58874080597E+02  0.23020407733E+03  0.00000000000E+00 0.  1.
        -13    1    3    3    0    0 -0.72961513610E+03 -0.67584178784E+03  0.11913274195E+03  0.10016451364E+04  0.00000000000E+00 0. -1.
         22    1    1    2    0    0  0.91150554064E+03  0.80407454726E+03 -0.21205498418E+04  0.24441992266E+04  0.00000000000E+00 0.  1.
<mgrwt>
<rscale>  0 0.31208747E+04</rscale>
<asrwt>0</asrwt>
<pdfrwt beam="1">  1        2 0.43219934E+00 0.31208747E+04</pdfrwt>
<pdfrwt beam="2">  1       -2 0.13334657E+00 0.31208747E+04</pdfrwt>
<totfact> 0.78726764E-01</totfact>
</mgrwt>
</event>
<event>
 6    1  0.1603085E-006  0.1006843E+04  0.7818608E-02  0.9301071E-01
         -1   -1    0    0    0  501 -0.00000000000E+00  0.00000000000E+00  0.24169228850E+03  0.24169228850E+03  0.00000000000E+00 0.  1.
          1   -1    0    0  501    0  0.00000000000E+00 -0.00000000000E+00 -0.10485775652E+04  0.10485775652E+04  0.00000000000E+00 0. -1.
         23    2    1    2    0    0  0.10659174893E+03  0.44358000399E+03 -0.14358399137E+03  0.48522723620E+03  0.81878491034E+02 0.  0.
         13    1    3    3    0    0  0.39245164647E+02  0.32276189419E+03 -0.97922294116E+02  0.33956471986E+03  0.00000000000E+00 0. -1.
        -13    1    3    3    0    0  0.67346584285E+02  0.12081810980E+03 -0.45661697259E+02  0.14566251634E+03  0.00000000000E+00 0.  1.
         22    1    1    2    0    0 -0.10659174893E+03 -0.44358000399E+03 -0.66330128536E+03  0.80504261753E+03  0.00000000000E+00 0. -1.
<mgrwt>
<rscale>  0 0.10068428E+04</rscale>
<asrwt>0</asrwt>
<pdfrwt beam="1">  1        1 0.16131963E+00 0.10068428E+04</pdfrwt>
<pdfrwt beam="2">  1       -1 0.37183428E-01 0.10068428E+04</pdfrwt>
<totfact> 0.96642414E+01</totfact>
</mgrwt>
</event>
<event>
 6    1  0.1603085E-006  0.7404944E+03  0.7818608E-02  0.9650382E-01
          1   -1    0    0  501    0  0.00000000000E+00  0.00000000000E+00  0.43258144927E+03  0.43258144927E+03  0.00000000000E+00 0. -1.
         -1   -1    0    0    0  501 -0.00000000000E+00 -0.00000000000E+00 -0.31689519277E+03  0.31689519277E+03  0.00000000000E+00 0.  1.
         23    2    1    2    0    0 -0.99650092992E+02  0.34904486659E+03  0.94365027383E+02  0.38586001049E+03  0.90668237976E+02 0.  0.
         11    1    3    3    0    0 -0.14092084700E+02  0.21151237389E+03  0.59556603218E+02  0.22018869214E+03  0.00000000000E+00 0. -1.
        -11    1    3    3    0    0 -0.85558008292E+02  0.13753249269E+03  0.34808424165E+02  0.16567131835E+03  0.00000000000E+00 0.  1.
         22    1    1    2    0    0  0.99650092992E+02 -0.34904486659E+03  0.21321229117E+02  0.36361663154E+03  0.00000000000E+00 0. -1.
<mgrwt>
<rscale>  0 0.74049438E+03</rscale>
<asrwt>0</asrwt>
<pdfrwt beam="1">  1        1 0.66550992E-01 0.74049438E+03</pdfrwt>
<pdfrwt beam="2">  1       -1 0.48753107E-01 0.74049438E+03</pdfrwt>
<totfact> 0.23042324E+02</totfact>
</mgrwt>
</event>
<event>
 6    1  0.1603085E-006  0.3513181E+04  0.7818608E-02  0.8110673E-01
          2   -1    0    0  501    0  0.00000000000E+00  0.00000000000E+00  0.25933910164E+04  0.25933910164E+04  0.00000000000E+00 0. -1.
         -2   -1    0    0    0  501 -0.00000000000E+00 -0.00000000000E+00 -0.11897975844E+04  0.11897975844E+04  0.00000000000E+00 0.  1.
         23    2    1    2    0    0  0.11104090887E+04 -0.56065760239E+02  0.21650710373E+04  0.24355982116E+04  0.91947474361E+02 0.  0.
         11    1    3    3    0    0  0.86343125130E+03 -0.54742223022E+01  0.16647783977E+04  0.18753747909E+04  0.00000000000E+00 0.  1.
        -11    1    3    3    0    0  0.24697783736E+03 -0.50591537937E+02  0.50029263968E+03  0.56022342077E+03  0.00000000000E+00 0. -1.
         22    1    1    2    0    0 -0.11104090887E+04  0.56065760239E+02 -0.76147760531E+03  0.13475903892E+04  0.00000000000E+00 0.  1.
<mgrwt>
<rscale>  0 0.35131811E+04</rscale>
<asrwt>0</asrwt>
<pdfrwt beam="1">  1        2 0.39898323E+00 0.35131811E+04</pdfrwt>
<pdfrwt beam="2">  1       -2 0.18304578E+00 0.35131811E+04</pdfrwt>
<totfact> 0.43539791E-01</totfact>
</mgrwt>
</event>
<event>
 6    1  0.1603085E-006  0.2486586E+04  0.7818608E-02  0.8407780E-01
         -2   -1    0    0    0  501 -0.00000000000E+00  0.00000000000E+00  0.92259512968E+03  0.92259512968E+03  0.00000000000E+00 0.  1.
          2   -1    0    0  501    0  0.00000000000E+00 -0.00000000000E+00 -0.16754673272E+04  0.16754673272E+04  0.00000000000E+00 0. -1.
         23    2    1    2    0    0  0.12306260634E+04  0.14167960425E+03 -0.28824591559E+03  0.12750389499E+04  0.90138769261E+02 0.  0.
         11    1    3    3    0    0  0.88611724937E+03  0.13496286175E+03 -0.23233513094E+03  0.92595808045E+03  0.00000000000E+00 0. -1.
        -11    1    3    3    0    0  0.34450881404E+03  0.67167425057E+01 -0.55910784646E+02  0.34908086946E+03  0.00000000000E+00 0.  1.
         22    1    1    2    0    0 -0.12306260634E+04 -0.14167960425E+03 -0.46462628195E+03  0.13230235070E+04  0.00000000000E+00 0. -1.
<mgrwt>
<rscale>  0 0.24865864E+04</rscale>
<asrwt>0</asrwt>
<pdfrwt beam="1">  1        2 0.25776420E+00 0.24865864E+04</pdfrwt>
<pdfrwt beam="2">  1       -2 0.14193771E+00 0.24865864E+04</pdfrwt>
<totfact> 0.31317010E+00</totfact>
</mgrwt>
</event>
<event>
 6    1  0.1603085E-006  0.9158155E+03  0.7818608E-02  0.9406024E-01
          2   -1    0    0  501    0  0.00000000000E+00  0.00000000000E+00  0.38594161502E+04  0.38594161502E+04  0.00000000000E+00 0. -1.
         -2   -1    0    0    0  501 -0.00000000000E+00 -0.00000000000E+00 -0.54329329990E+02  0.54329329990E+02  0.00000000000E+00 0.  1.
         23    2    1    2    0    0 -0.20395025101E+03  0.39010526634E+03  0.23763725873E+04  0.24187531113E+04  0.97170551348E+02 0.  0.
         13    1    3    3    0    0 -0.12000029765E+03  0.15632106609E+03  0.12387015731E+04  0.12542798469E+04  0.00000000000E+00 0.  1.
        -13    1    3    3    0    0 -0.83949953358E+02  0.23378420025E+03  0.11376710142E+04  0.11644732644E+04  0.00000000000E+00 0. -1.
         22    1    1    2    0    0  0.20395025101E+03 -0.39010526634E+03  0.14287142329E+04  0.14949923689E+04  0.00000000000E+00 0.  1.
<mgrwt>
<rscale>  0 0.91581547E+03</rscale>
<asrwt>0</asrwt>
<pdfrwt beam="1">  1        2 0.59375612E+00 0.91581547E+03</pdfrwt>
<pdfrwt beam="2">  1       -2 0.83583615E-02 0.91581547E+03</pdfrwt>
<totfact> 0.43274567E+01</totfact>
</mgrwt>
</event>
<event>
 6    1  0.1603085E-006  0.1381621E+04  0.7818608E-02  0.8967231E-01
         -1   -1    0    0    0  501 -0.00000000000E+00  0.00000000000E+00  0.36928315369E+03  0.36928315369E+03  0.00000000000E+00 0.  1.
          1   -1    0    0  501    0  0.00000000000E+00 -0.00000000000E+00 -0.12922845974E+04  0.12922845974E+04  0.00000000000E+00 0. -1.
         23    2    1    2    0    0 -0.42564181587E+03  0.23471643970E+03 -0.10487583097E+04  0.11594944976E+04  0.90943583008E+02 0.  0.
         13    1    3    3    0    0 -0.20229700359E+03  0.64419064006E+02 -0.49402096261E+03  0.53770866179E+03  0.00000000000E+00 0. -1.
        -13    1    3    3    0    0 -0.22334481229E+03  0.17029737569E+03 -0.55473734713E+03  0.62178583583E+03  0.00000000000E+00 0.  1.
         22    1    1    2    0    0  0.42564181587E+03 -0.23471643970E+03  0.12575686603E+03  0.50207325346E+03  0.00000000000E+00 0.  1.
<mgrwt>
<rscale>  0 0.13816207E+04</rscale>
<asrwt>0</asrwt>
<pdfrwt beam="1">  1        1 0.19881301E+00 0.13816207E+04</pdfrwt>
<pdfrwt beam="2">  1       -1 0.56812793E-01 0.13816207E+04</pdfrwt>
<totfact> 0.28054211E+01</totfact>
</mgrwt>
</event>
<event>
 6    1  0.1603085E-006  0.1596659E+04  0.7818608E-02  0.8822603E-01
          2   -1    0    0  501    0  0.00000000000E+00  0.00000000000E+00  0.19662386320E+04  0.19662386320E+04  0.00000000000E+00 0. -1.
         -2   -1    0    0    0  501 -0.00000000000E+00 -0.00000000000E+00 -0.32413676946E+03  0.32413676946E+03  0.00000000000E+00 0.  1.
         23    2    1    2    0    0  0.49769897782E+03 -0.52526329778E+03  0.34781304144E+03  0.80754386789E+03  0.86875671263E+02 0.  0.
         13    1    3    3    0    0  0.12134814182E+03 -0.18056935535E+03  0.85760704449E+02  0.23384944310E+03  0.00000000000E+00 0.  1.
        -13    1    3    3    0    0  0.37635083600E+03 -0.34469394243E+03  0.26205233699E+03  0.57369442479E+03  0.00000000000E+00 0. -1.
         22    1    1    2    0    0 -0.49769897782E+03  0.52526329778E+03  0.12942888211E+04  0.14828315336E+04  0.00000000000E+00 0.  1.
<mgrwt>
<rscale>  0 0.15966593E+04</rscale>
<asrwt>0</asrwt>
<pdfrwt beam="1">  1        2 0.30249824E+00 0.15966593E+04</pdfrwt>
<pdfrwt beam="2">  1       -2 0.49867197E-01 0.15966593E+04</pdfrwt>
<totfact> 0.25465152E+01</totfact>
</mgrwt>
</event>
<event>
 6    1  0.1603085E-006  0.1347596E+04  0.7818608E-02  0.8992650E-01
         -2   -1    0    0    0  501 -0.00000000000E+00  0.00000000000E+00  0.22851528438E+03  0.22851528438E+03  0.00000000000E+00 0.  1.
          2   -1    0    0  501    0  0.00000000000E+00 -0.00000000000E+00 -0.19867536603E+04  0.19867536603E+04  0.00000000000E+00 0. -1.
         23    2    1    2    0    0  0.50457022846E+02 -0.63745948854E+03 -0.54964152659E+03  0.84793326720E+03  0.89356069716E+02 0.  0.
         11    1    3    3    0    0  0.21600939206E+01 -0.12915730813E+03 -0.67820813955E+02  0.14589701524E+03  0.00000000000E+00 0. -1.
        -11    1    3    3    0    0  0.48296928926E+02 -0.50830218040E+03 -0.48182071264E+03  0.70203625197E+03  0.00000000000E+00 0.  1.
         22    1    1    2    0    0 -0.50457022846E+02  0.63745948854E+03 -0.12085968493E+04  0.13673356775E+04  0.00000000000E+00 0. -1.
<mgrwt>
<rscale>  0 0.13475958E+04</rscale>
<asrwt>0</asrwt>
<pdfrwt beam="1">  1        2 0.30565441E+00 0.13475958E+04</pdfrwt>
<pdfrwt beam="2">  1       -2 0.35156198E-01 0.13475958E+04</pdfrwt>
<totfact> 0.50462006E+01</totfact>
</mgrwt>
</event>
<event>
 6    1  0.1603085E-006  0.6676646E+03  0.7818608E-02  0.9774186E-01
          1   -1    0    0  501    0  0.00000000000E+00  0.00000000000E+00  0.11390689595E+04  0.11390689595E+04  0.00000000000E+00 0. -1.
         -1   -1    0    0    0  501 -0.00000000000E+00 -0.00000000000E+00 -0.97837800856E+02  0.97837800856E+02  0.00000000000E+00 0.  1.
         23    2    1    2    0    0  0.13445508880E+03 -0.12336813452E+03  0.10349229374E+04  0.10543207227E+04  0.85022540757E+02 0.  0.
         13    1    3    3    0    0  0.43138243635E+02 -0.83732545657E+02  0.64739249600E+03  0.65420875196E+03  0.00000000000E+00 0. -1.
        -13    1    3    3    0    0  0.91316845163E+02 -0.39635588859E+02  0.38753044137E+03  0.40011197070E+03  0.00000000000E+00 0.  1.
         22    1    1    2    0    0 -0.13445508880E+03  0.12336813452E+03  0.63082213179E+01  0.18258603773E+03  0.00000000000E+00 0.  1.
<mgrwt>
<rscale>  0 0.66766459E+03</rscale>
<asrwt>0</asrwt>
<pdfrwt beam="1">  1        1 0.17524137E+00 0.66766459E+03</pdfrwt>
<pdfrwt beam="2">  1       -1 0.15051970E-01 0.66766459E+03</pdfrwt>
<totfact> 0.39374843E+02</totfact>
</mgrwt>
</event>
<event>
 6    1  0.1804282E-006  0.3854310E+04  0.7818608E-02  0.8034599E-01
         -1   -1    0    0    0  501 -0.00000000000E+00  0.00000000000E+00  0.15442852949E+04  0.15442852949E+04  0.00000000000E+00 0.  1.
          1   -1    0    0  501    0  0.00000000000E+00 -0.00000000000E+00 -0.24049486202E+04  0.24049486202E+04  0.00000000000E+00 0. -1.
         23    2    1    2    0    0  0.47649730254E+03  0.15959009114E+04 -0.14216810729E+04  0.21917668993E+04  0.93357751205E+02 0.  0.
         11    1    3    3    0    0  0.27509902026E+03  0.10270541181E+04 -0.86305626153E+03  0.13694472399E+04  0.00000000000E+00 0. -1.
        -11    1    3    3    0    0  0.20139828228E+03  0.56884679332E+03 -0.55862481136E+03  0.82231965941E+03  0.00000000000E+00 0.  1.
         22    1    1    2    0    0 -0.47649730254E+03 -0.15959009114E+04  0.56101774762E+03  0.17574670157E+04  0.00000000000E+00 0.  1.
<mgrwt>
<rscale>  0 0.38543102E+04</rscale>
<asrwt>0</asrwt>
<pdfrwt beam="1">  1        1 0.36999210E+00 0.38543102E+04</pdfrwt>
<pdfrwt beam="2">  1       -1 0.23758235E+00 0.38543102E+04</pdfrwt>
<totfact> 0.10500383E-01</totfact>
</mgrwt>
</event>
<event>
 6    1  0.1603085E-006  0.1905291E+04  0.7818608E-02  0.8652227E-01
         -1   -1    0    0    0  501 -0.00000000000E+00  0.00000000000E+00  0.11505089371E+04  0.11505089371E+04  0.00000000000E+00 0.  1.
          1   -1    0    0  501    0  0.00000000000E+00 -0.00000000000E+00 -0.78881059379E+03  0.78881059379E+03  0.00000000000E+00 0. -1.
         23    2    1    2    0    0  0.67565659447E+03 -0.18491528430E+03 -0.47289967512E+03  0.84970521916E+03  0.87517773735E+02 0.  0.
         11    1    3    3    0    0  0.14203569227E+03 -0.37827021121E+01 -0.10591807631E+03  0.17722044353E+03  0.00000000000E+00 0.  1.
        -11    1    3    3    0    0  0.53362090219E+03 -0.18113258219E+03 -0.36698159881E+03  0.67248477563E+03  0.00000000000E+00 0. -1.
         22    1    1    2    0    0 -0.67565659447E+03  0.18491528430E+03  0.83459801846E+03  0.10896143118E+04  0.00000000000E+00 0.  1.
<mgrwt>
<rscale>  0 0.19052912E+04</rscale>
<asrwt>0</asrwt>
<pdfrwt beam="1">  1        1 0.12135548E+00 0.19052912E+04</pdfrwt>
<pdfrwt beam="2">  1       -1 0.17700138E+00 0.19052912E+04</pdfrwt>
<totfact> 0.46259880E+00</totfact>
</mgrwt>
</event>
<event>
 6    1  0.1603085E-006  0.4553783E+04  0.7818608E-02  0.7901288E-01
         -1   -1    0    0    0  501 -0.00000000000E+00  0.00000000000E+00  0.12111638405E+04  0.12111638405E+04  0.00000000000E+00 0.  1.
          1   -1    0    0  501    0  0.00000000000E+00 -0.00000000000E+00 -0.42803753195E+04  0.42803753195E+04  0.00000000000E+00 0. -1.
         23    2    1    2    0    0  0.14711696547E+04 -0.96696009493E+03  0.20469720933E+03  0.17743049627E+04  0.83097382499E+02 0.  0.
         11    1    3    3    0    0  0.10739851094E+04 -0.68295824287E+03  0.17996361560E+03  0.12854037808E+04  0.00000000000E+00 0.  1.
        -11    1    3    3    0    0  0.39718454536E+03 -0.28400185206E+03  0.24733593735E+02  0.48890118194E+03  0.00000000000E+00 0. -1.
         22    1    1    2    0    0 -0.14711696547E+04  0.96696009493E+03 -0.32739086883E+04  0.37172341973E+04  0.00000000000E+00 0. -1.
<mgrwt>
<rscale>  0 0.45537834E+04</rscale>
<asrwt>0</asrwt>
<pdfrwt beam="1">  1        1 0.65851928E+00 0.45537834E+04</pdfrwt>
<pdfrwt beam="2">  1       -1 0.18633290E+00 0.45537834E+04</pdfrwt>
<totfact> 0.74150837E-03</totfact>
</mgrwt>
</event>
<event>
 6    1  0.1603085E-006  0.2342372E+04  0.7818608E-02  0.8461399E-01
          1   -1    0    0  501    0  0.00000000000E+00  0.00000000000E+00  0.22891023302E+04  0.22891023302E+04  0.00000000000E+00 0. -1.
         -1   -1    0    0    0  501 -0.00000000000E+00 -0.00000000000E+00 -0.59922013843E+03  0.59922013843E+03  0.00000000000E+00 0.  1.
         23    2    1    2    0    0  0.64114574001E+03  0.51584178027E+03 -0.17840596388E+03  0.84683741240E+03  0.90245846918E+02 0.  0.
         13    1    3    3    0    0  0.27156052485E+03  0.25709865099E+03 -0.46780105123E+02  0.37687294043E+03  0.00000000000E+00 0. -1.
        -13    1    3    3    0    0  0.36958521516E+03  0.25874312929E+03 -0.13162585876E+03  0.46996447197E+03  0.00000000000E+00 0.  1.
         22    1    1    2    0    0 -0.64114574001E+03 -0.51584178027E+03  0.18682881556E+04  0.20414850562E+04  0.00000000000E+00 0. -1.
<mgrwt>
<rscale>  0 0.23423716E+04</rscale>
<asrwt>0</asrwt>
<pdfrwt beam="1">  1        1 0.35216958E+00 0.23423716E+04</pdfrwt>
<pdfrwt beam="2">  1       -1 0.92187715E-01 0.23423716E+04</pdfrwt>
<totfact> 0.19524646E+00</totfact>
</mgrwt>
</event>
<event>
 6    1  0.1603085E-006  0.1256758E+04  0.7818608E-02  0.9064577E-01
         -1   -1    0    0    0  501 -0.00000000000E+00  0.00000000000E+00  0.66941341022E+03  0.66941341022E+03  0.00000000000E+00 0.  1.
          1   -1    0    0  501    0  0.00000000000E+00 -0.00000000000E+00 -0.58986031687E+03  0.58986031687E+03  0.00000000000E+00 0. -1.
         23    2    1    2    0    0  0.60220476152E+03  0.95300700217E+02 -0.98597619920E+02  0.62408046919E+03  0.89566417300E+02 0.  0.
         13    1    3    3    0    0  0.29821321026E+03  0.53646254699E+02 -0.93885651283E+02  0.31721216076E+03  0.00000000000E+00 0.  1.
        -13    1    3    3    0    0  0.30399155126E+03  0.41654445518E+02 -0.47119686365E+01  0.30686830843E+03  0.00000000000E+00 0. -1.
         22    1    1    2    0    0 -0.60220476152E+03 -0.95300700217E+02  0.17815071327E+03  0.63519325791E+03  0.00000000000E+00 0. -1.
<mgrwt>
<rscale>  0 0.12567584E+04</rscale>
<asrwt>0</asrwt>
<pdfrwt beam="1">  1        1 0.90747741E-01 0.12567584E+04</pdfrwt>
<pdfrwt beam="2">  1       -1 0.10298668E+00 0.12567584E+04</pdfrwt>
<totfact> 0.30829307E+01</totfact>
</mgrwt>
</event>
<event>
 6    1  0.1603085E-006  0.1911971E+04  0.7818608E-02  0.8648920E-01
         -2   -1    0    0    0  501 -0.00000000000E+00  0.00000000000E+00  0.61638384866E+03  0.61638384866E+03  0.00000000000E+00 0.  1.
          2   -1    0    0  501    0  0.00000000000E+00 -0.00000000000E+00 -0.14826936004E+04  0.14826936004E+04  0.00000000000E+00 0. -1.
         23    2    1    2    0    0 -0.10112008380E+02  0.31023426445E+03 -0.14242913847E+04  0.14605705546E+04  0.91174803800E+02 0.  0.
         13    1    3    3    0    0  0.13520565595E+02  0.96518388017E+02 -0.63836060503E+03  0.64575759149E+03  0.00000000000E+00 0.  1.
        -13    1    3    3    0    0 -0.23632573975E+02  0.21371587643E+03 -0.78593077967E+03  0.81481296309E+03  0.00000000000E+00 0. -1.
         22    1    1    2    0    0  0.10112008380E+02 -0.31023426445E+03  0.55798163296E+03  0.63850689446E+03  0.00000000000E+00 0.  1.
<mgrwt>
<rscale>  0 0.19119711E+04</rscale>
<asrwt>0</asrwt>
<pdfrwt beam="1">  1        2 0.22810671E+00 0.19119711E+04</pdfrwt>
<pdfrwt beam="2">  1       -2 0.94828285E-01 0.19119711E+04</pdfrwt>
<totfact> 0.11371046E+01</totfact>
</mgrwt>
</event>
<event>
 6    1  0.1603085E-006  0.3816676E+04  0.7818608E-02  0.8042586E-01
         -2   -1    0    0    0  501 -0.00000000000E+00  0.00000000000E+00  0.11261976097E+04  0.11261976097E+04  0.00000000000E+00 0.  1.
          2   -1    0    0  501    0  0.00000000000E+00 -0.00000000000E+00 -0.32336722348E+04  0.32336722348E+04  0.00000000000E+00 0. -1.
         23    2    1    2    0    0  0.50736665117E+03  0.91306154185E+03 -0.28772701342E+04  0.30623000298E+04  0.88858029692E+02 0.  0.
         11    1    3    3    0    0  0.14706748653E+03  0.21743279600E+03 -0.63499527779E+03  0.68711343255E+03  0.00000000000E+00 0.  1.
        -11    1    3    3    0    0  0.36029916464E+03  0.69562874585E+03 -0.22422748564E+04  0.23751865973E+04  0.00000000000E+00 0. -1.
         22    1    1    2    0    0 -0.50736665117E+03 -0.91306154185E+03  0.76979550917E+03  0.12975698146E+04  0.00000000000E+00 0.  1.
<mgrwt>
<rscale>  0 0.38166760E+04</rscale>
<asrwt>0</asrwt>
<pdfrwt beam="1">  1        2 0.49748803E+00 0.38166760E+04</pdfrwt>
<pdfrwt beam="2">  1       -2 0.17326117E+00 0.38166760E+04</pdfrwt>
<totfact> 0.19922719E-01</totfact>
</mgrwt>
</event>
<event>
 6    1  0.1603085E-006  0.1508243E+04  0.7818608E-02  0.8878990E-01
         -2   -1    0    0    0  501 -0.00000000000E+00  0.00000000000E+00  0.30020099546E+03  0.30020099546E+03  0.00000000000E+00 0.  1.
          2   -1    0    0  501    0  0.00000000000E+00 -0.00000000000E+00 -0.18943946272E+04  0.18943946272E+04  0.00000000000E+00 0. -1.
         23    2    1    2    0    0  0.43531076121E+03  0.87154467033E+02  0.83997256486E+02  0.45867626472E+03  0.78974785640E+02 0.  0.
         13    1    3    3    0    0  0.23492849121E+03  0.26425216854E+02  0.10064508007E+02  0.23662413738E+03  0.00000000000E+00 0. -1.
        -13    1    3    3    0    0  0.20038227000E+03  0.60729250179E+02  0.73932748479E+02  0.22205212734E+03  0.00000000000E+00 0.  1.
         22    1    1    2    0    0 -0.43531076121E+03 -0.87154467033E+02 -0.16781908882E+04  0.17359193579E+04  0.00000000000E+00 0. -1.
<mgrwt>
<rscale>  0 0.15082429E+04</rscale>
<asrwt>0</asrwt>
<pdfrwt beam="1">  1        2 0.29144533E+00 0.15082429E+04</pdfrwt>
<pdfrwt beam="2">  1       -2 0.46184768E-01 0.15082429E+04</pdfrwt>
<totfact> 0.32830667E+01</totfact>
</mgrwt>
</event>
<event>
 6    1  0.2945858E-006  0.3901827E+04  0.7818608E-02  0.8024649E-01
          1   -1    0    0  501    0  0.00000000000E+00  0.00000000000E+00  0.18748402387E+04  0.18748402387E+04  0.00000000000E+00 0. -1.
         -1   -1    0    0    0  501 -0.00000000000E+00 -0.00000000000E+00 -0.20300738764E+04  0.20300738764E+04  0.00000000000E+00 0.  1.
         23    2    1    2    0    0 -0.19107957880E+04 -0.37677710748E+03  0.28751388470E+02  0.19486544129E+04  0.57670150789E+02 0.  0.
         11    1    3    3    0    0 -0.10688116986E+04 -0.23905677182E+03  0.23049666604E+02  0.10954624020E+04  0.00000000000E+00 0. -1.
        -11    1    3    3    0    0 -0.84198408948E+03 -0.13772033566E+03  0.57017218655E+01  0.85319201088E+03  0.00000000000E+00 0.  1.
         22    1    1    2    0    0  0.19107957880E+04  0.37677710748E+03 -0.18398502622E+03  0.19562597021E+04  0.00000000000E+00 0. -1.
<mgrwt>
<rscale>  0 0.39018274E+04</rscale>
<asrwt>0</asrwt>
<pdfrwt beam="1">  1        1 0.28843696E+00 0.39018274E+04</pdfrwt>
<pdfrwt beam="2">  1       -1 0.31231906E+00 0.39018274E+04</pdfrwt>
<totfact> 0.78516913E-02</totfact>
</mgrwt>
</event>
<event>
 6    1  0.1603085E-006  0.3357664E+04  0.7818608E-02  0.8148376E-01
         -2   -1    0    0    0  501 -0.00000000000E+00  0.00000000000E+00  0.91765598409E+03  0.91765598409E+03  0.00000000000E+00 0.  1.
          2   -1    0    0  501    0  0.00000000000E+00 -0.00000000000E+00 -0.30713878360E+04  0.30713878360E+04  0.00000000000E+00 0. -1.
         23    2    1    2    0    0  0.36962634233E+03 -0.16362913746E+04 -0.10897774614E+04  0.20025715598E+04  0.92762283913E+02 0.  0.
         13    1    3    3    0    0  0.16859589809E+03 -0.84632124976E+03 -0.51174776673E+03  0.10032796277E+04  0.00000000000E+00 0.  1.
        -13    1    3    3    0    0  0.20103044424E+03 -0.78997012486E+03 -0.57802969466E+03  0.99929193212E+03  0.00000000000E+00 0. -1.
         22    1    1    2    0    0 -0.36962634233E+03  0.16362913746E+04 -0.10639543905E+04  0.19864722602E+04  0.00000000000E+00 0. -1.
<mgrwt>
<rscale>  0 0.33576643E+04</rscale>
<asrwt>0</asrwt>
<pdfrwt beam="1">  1        2 0.47252121E+00 0.33576643E+04</pdfrwt>
<pdfrwt beam="2">  1       -2 0.14117784E+00 0.33576643E+04</pdfrwt>
<totfact> 0.45809453E-01</totfact>
</mgrwt>
</event>
<event>
 6    1  0.1603085E-006  0.1011400E+04  0.7818608E-02  0.9296129E-01
          1   -1    0    0  501    0  0.00000000000E+00  0.00000000000E+00  0.13125664856E+04  0.13125664856E+04  0.00000000000E+00 0. -1.
         -1   -1    0    0    0  501 -0.00000000000E+00 -0.00000000000E+00 -0.19483401572E+03  0.19483401572E+03  0.00000000000E+00 0.  1.
         23    2    1    2    0    0  0.46228232584E+03 -0.87539058256E+02  0.30407419439E+03  0.56750272774E+03  0.90720421027E+02 0.  0.
         11    1    3    3    0    0  0.28820512231E+03 -0.98808048821E+02  0.18940188437E+03  0.35874544853E+03  0.00000000000E+00 0. -1.
        -11    1    3    3    0    0  0.17407720353E+03  0.11268990565E+02  0.11467231002E+03  0.20875727921E+03  0.00000000000E+00 0.  1.
         22    1    1    2    0    0 -0.46228232584E+03  0.87539058256E+02  0.81365827545E+03  0.93989777354E+03  0.00000000000E+00 0. -1.
<mgrwt>
<rscale>  0 0.10114002E+04</rscale>
<asrwt>0</asrwt>
<pdfrwt beam="1">  1        1 0.20193330E+00 0.10114002E+04</pdfrwt>
<pdfrwt beam="2">  1       -1 0.29974465E-01 0.10114002E+04</pdfrwt>
<totfact> 0.90647806E+01</totfact>
</mgrwt>
</event>
<event>
 6    1  0.1603085E-006  0.2962768E+04  0.7818608E-02  0.8254443E-01
          2   -1    0    0  501    0  0.00000000000E+00  0.00000000000E+00  0.15124223121E+04  0.15124223121E+04  0.00000000000E+00 0. -1.
         -2   -1    0    0    0  501 -0.00000000000E+00 -0.00000000000E+00 -0.14509826911E+04  0.14509826911E+04  0.00000000000E+00 0.  1.
         23    2    1    2    0    0 -0.13696560346E+04 -0.42638868879E+03  0.39564902486E+03  0.14904960133E+04  0.85295062823E+02 0.  0.
         11    1    3    3    0    0 -0.11236449500E+04 -0.37734783168E+03  0.30681200554E+03  0.12243786042E+04  0.00000000000E+00 0. -1.
        -11    1    3    3    0    0 -0.24601108457E+03 -0.49040857112E+02  0.88837019315E+02  0.26611740905E+03  0.00000000000E+00 0.  1.
         22    1    1    2    0    0  0.13696560346E+04  0.42638868879E+03 -0.33420940390E+03  0.14729089899E+04  0.00000000000E+00 0.  1.
<mgrwt>
<rscale>  0 0.29627680E+04</rscale>
<asrwt>0</asrwt>
<pdfrwt beam="1">  1        2 0.23268036E+00 0.29627680E+04</pdfrwt>
<pdfrwt beam="2">  1       -2 0.22322811E+00 0.29627680E+04</pdfrwt>
<totfact> 0.10113716E+00</totfact>
</mgrwt>
</event>
<event>
 6    1  0.1603085E-006  0.4301876E+04  0.7818608E-02  0.7946271E-01
         -1   -1    0    0    0  501 -0.00000000000E+00  0.00000000000E+00  0.46972182054E+04  0.46972182054E+04  0.00000000000E+00 0.  1.
          1   -1    0    0  501    0  0.00000000000E+00 -0.00000000000E+00 -0.98495215261E+03  0.98495215261E+03  0.00000000000E+00 0. -1.
         23    2    1    2    0    0 -0.32397532785E+03  0.86022868171E+03  0.44241141804E+04  0.45195521255E+04  0.92799436202E+02 0.  0.
         11    1    3    3    0    0 -0.48608890513E+02  0.63529798960E+02  0.32947228962E+03  0.33904402254E+03  0.00000000000E+00 0. -1.
        -11    1    3    3    0    0 -0.27536643734E+03  0.79669888275E+03  0.40946418908E+04  0.41805081029E+04  0.00000000000E+00 0.  1.
         22    1    1    2    0    0  0.32397532785E+03 -0.86022868171E+03 -0.71184812762E+03  0.11626182326E+04  0.00000000000E+00 0. -1.
<mgrwt>
<rscale>  0 0.43018764E+04</rscale>
<asrwt>0</asrwt>
<pdfrwt beam="1">  1        1 0.15153110E+00 0.43018764E+04</pdfrwt>
<pdfrwt beam="2">  1       -1 0.72264894E+00 0.43018764E+04</pdfrwt>
<totfact> 0.19692234E-03</totfact>
</mgrwt>
</event>
<event>
 6    1  0.1603085E-006  0.2425669E+04  0.7818608E-02  0.8429955E-01
         -1   -1    0    0    0  501 -0.00000000000E+00  0.00000000000E+00  0.16859203097E+04  0.16859203097E+04  0.00000000000E+00 0.  1.
          1   -1    0    0  501    0  0.00000000000E+00 -0.00000000000E+00 -0.87250135948E+03  0.87250135948E+03  0.00000000000E+00 0. -1.
         23    2    1    2    0    0  0.29040940661E+03 -0.59500756598E+03 -0.66201970959E+03  0.94123557416E+03  0.96346682153E+02 0.  0.
         11    1    3    3    0    0  0.17386470069E+03 -0.44540703230E+03 -0.49984145789E+03  0.69170647070E+03  0.00000000000E+00 0. -1.
        -11    1    3    3    0    0  0.11654470592E+03 -0.14960053368E+03 -0.16217825170E+03  0.24952910347E+03  0.00000000000E+00 0.  1.
         22    1    1    2    0    0 -0.29040940661E+03  0.59500756598E+03  0.14754386598E+04  0.16171860950E+04  0.00000000000E+00 0.  1.
<mgrwt>
<rscale>  0 0.24256692E+04</rscale>
<asrwt>0</asrwt>
<pdfrwt beam="1">  1        1 0.13423098E+00 0.24256692E+04</pdfrwt>
<pdfrwt beam="2">  1       -1 0.25937235E+00 0.24256692E+04</pdfrwt>
<totfact> 0.10384346E+00</totfact>
</mgrwt>
</event>
<event>
 6    1  0.1603085E-006  0.2028225E+04  0.7818608E-02  0.8593537E-01
          1   -1    0    0  501    0  0.00000000000E+00  0.00000000000E+00  0.23550773563E+04  0.23550773563E+04  0.00000000000E+00 0. -1.
         -1   -1    0    0    0  501 -0.00000000000E+00 -0.00000000000E+00 -0.43668390490E+03  0.43668390490E+03  0.00000000000E+00 0.  1.
         23    2    1    2    0    0  0.34681575948E+03 -0.94960719139E+03  0.90477369031E+03  0.13601677403E+04  0.96983824089E+02 0.  0.
         13    1    3    3    0    0  0.79994165798E+02 -0.27566571214E+03  0.31058054970E+03  0.42290770773E+03  0.00000000000E+00 0.  1.
        -13    1    3    3    0    0  0.26682159368E+03 -0.67394147925E+03  0.59419314061E+03  0.93726003257E+03  0.00000000000E+00 0. -1.
         22    1    1    2    0    0 -0.34681575948E+03  0.94960719139E+03  0.10136197611E+04  0.14315935209E+04  0.00000000000E+00 0.  1.
<mgrwt>
<rscale>  0 0.20282252E+04</rscale>
<asrwt>0</asrwt>
<pdfrwt beam="1">  1        1 0.36231959E+00 0.20282252E+04</pdfrwt>
<pdfrwt beam="2">  1       -1 0.67182141E-01 0.20282252E+04</pdfrwt>
<totfact> 0.35436855E+00</totfact>
</mgrwt>
</event>
<event>
 6    1  0.1603085E-006  0.9101770E+03  0.7818608E-02  0.9412948E-01
         -1   -1    0    0    0  501 -0.00000000000E+00  0.00000000000E+00  0.20553578960E+03  0.20553578960E+03  0.00000000000E+00 0.  1.
          1   -1    0    0  501    0  0.00000000000E+00 -0.00000000000E+00 -0.10076373475E+04  0.10076373475E+04  0.00000000000E+00 0. -1.
         23    2    1    2    0    0  0.33049975437E+03 -0.98122970304E+02 -0.79353578081E+03  0.86830855860E+03  0.73501786223E+02 0.  0.
         11    1    3    3    0    0  0.24021412076E+02 -0.26668805711E+02 -0.56997052504E+02  0.67356643550E+02  0.00000000000E+00 0. -1.
        -11    1    3    3    0    0  0.30647834229E+03 -0.71454164593E+02 -0.73653872830E+03  0.80095191505E+03  0.00000000000E+00 0.  1.
         22    1    1    2    0    0 -0.33049975437E+03  0.98122970304E+02 -0.85657770519E+01  0.34486457846E+03  0.00000000000E+00 0.  1.
<mgrwt>
<rscale>  0 0.91017699E+03</rscale>
<asrwt>0</asrwt>
<pdfrwt beam="1">  1        1 0.15502113E+00 0.91017699E+03</pdfrwt>
<pdfrwt beam="2">  1       -1 0.31620890E-01 0.91017699E+03</pdfrwt>
<totfact> 0.13959288E+02</totfact>
</mgrwt>
</event>
<event>
 6    1  0.1603085E-006  0.2065020E+04  0.7818608E-02  0.8576811E-01
          2   -1    0    0  501    0  0.00000000000E+00  0.00000000000E+00  0.13659123196E+04  0.13659123196E+04  0.00000000000E+00 0. -1.
         -2   -1    0    0    0  501 -0.00000000000E+00 -0.00000000000E+00 -0.78048725882E+03  0.78048725882E+03  0.00000000000E+00 0.  1.
         23    2    1    2    0    0  0.94862330687E+03  0.37067701137E+03  0.13036280859E+03  0.10308865671E+04  0.91896829221E+02 0.  0.
         13    1    3    3    0    0  0.10215104394E+03  0.71775167245E+02  0.12001041174E+02  0.12542143119E+03  0.00000000000E+00 0. -1.
        -13    1    3    3    0    0  0.84647226293E+03  0.29890184412E+03  0.11836176741E+03  0.90546513589E+03  0.00000000000E+00 0.  1.
         22    1    1    2    0    0 -0.94862330687E+03 -0.37067701137E+03  0.45506225219E+03  0.11155130113E+04  0.00000000000E+00 0. -1.
<mgrwt>
<rscale>  0 0.20650203E+04</rscale>
<asrwt>0</asrwt>
<pdfrwt beam="1">  1        2 0.21014036E+00 0.20650203E+04</pdfrwt>
<pdfrwt beam="2">  1       -2 0.12007496E+00 0.20650203E+04</pdfrwt>
<totfact> 0.74187732E+00</totfact>
</mgrwt>
</event>
<event>
 6    1  0.1603085E-006  0.2752649E+04  0.7818608E-02  0.8318121E-01
         -1   -1    0    0    0  501 -0.00000000000E+00  0.00000000000E+00  0.73980510989E+03  0.73980510989E+03  0.00000000000E+00 0.  1.
          1   -1    0    0  501    0  0.00000000000E+00 -0.00000000000E+00 -0.25604980027E+04  0.25604980027E+04  0.00000000000E+00 0. -1.
         23    2    1    2    0    0  0.18371334015E+03  0.30691880568E+03 -0.25029176623E+04  0.25299912403E+04  0.91154304183E+02 0.  0.
         13    1    3    3    0    0  0.13276024880E+03  0.16276045083E+03 -0.12139147758E+04  0.12319518380E+04  0.00000000000E+00 0.  1.
        -13    1    3    3    0    0  0.50953091345E+02  0.14415835485E+03 -0.12890028864E+04  0.12980394023E+04  0.00000000000E+00 0. -1.
         22    1    1    2    0    0 -0.18371334015E+03 -0.30691880568E+03  0.68222476944E+03  0.77031187233E+03  0.00000000000E+00 0.  1.
<mgrwt>
<rscale>  0 0.27526493E+04</rscale>
<asrwt>0</asrwt>
<pdfrwt beam="1">  1        1 0.39392278E+00 0.27526493E+04</pdfrwt>
<pdfrwt beam="2">  1       -1 0.11381617E+00 0.27526493E+04</pdfrwt>
<totfact> 0.75169957E-01</totfact>
</mgrwt>
</event>
<event>
 6    1  0.1603085E-006  0.2007124E+04  0.7818608E-02  0.8603297E-01
         -2   -1    0    0    0  501 -0.00000000000E+00  0.00000000000E+00  0.13117705986E+04  0.13117705986E+04  0.00000000000E+00 0.  1.
          2   -1    0    0  501    0  0.00000000000E+00 -0.00000000000E+00 -0.76776904793E+03  0.76776904793E+03  0.00000000000E+00 0. -1.
         23    2    1    2    0    0  0.53668259925E+02  0.34829840482E+03  0.12435100281E+04  0.12962745759E+04  0.99088471340E+02 0.  0.
         13    1    3    3    0    0 -0.24859260200E+02  0.55801959109E+02  0.26596377372E+03  0.27288930062E+03  0.00000000000E+00 0. -1.
        -13    1    3    3    0    0  0.78527520125E+02  0.29249644571E+03  0.97754625442E+03  0.10233852753E+04  0.00000000000E+00 0.  1.
         22    1    1    2    0    0 -0.53668259925E+02 -0.34829840482E+03 -0.69950847743E+03  0.78326507066E+03  0.00000000000E+00 0. -1.
<mgrwt>
<rscale>  0 0.20071242E+04</rscale>
<asrwt>0</asrwt>
<pdfrwt beam="1">  1        2 0.11811832E+00 0.20071242E+04</pdfrwt>
<pdfrwt beam="2">  1       -2 0.20181086E+00 0.20071242E+04</pdfrwt>
<totfact> 0.43680162E+00</totfact>
</mgrwt>
</event>
<event>
 6    1  0.1603085E-006  0.2216070E+04  0.7818608E-02  0.8511769E-01
          2   -1    0    0  501    0  0.00000000000E+00  0.00000000000E+00  0.21510377544E+04  0.21510377544E+04  0.00000000000E+00 0. -1.
         -2   -1    0    0    0  501 -0.00000000000E+00 -0.00000000000E+00 -0.57076734676E+03  0.57076734676E+03  0.00000000000E+00 0.  1.
         23    2    1    2    0    0  0.27984423072E+03  0.94114954079E+03  0.16588915964E+03  0.10000183646E+04  0.91881796934E+02 0.  0.
         13    1    3    3    0    0  0.75332092533E+02  0.18235885743E+03  0.64804080851E+02  0.20767581935E+03  0.00000000000E+00 0. -1.
        -13    1    3    3    0    0  0.20451213819E+03  0.75879068336E+03  0.10108507879E+03  0.79234254523E+03  0.00000000000E+00 0.  1.
         22    1    1    2    0    0 -0.27984423072E+03 -0.94114954079E+03  0.14143812480E+04  0.17217867366E+04  0.00000000000E+00 0. -1.
<mgrwt>
<rscale>  0 0.22160705E+04</rscale>
<asrwt>0</asrwt>
<pdfrwt beam="1">  1        2 0.33092888E+00 0.22160705E+04</pdfrwt>
<pdfrwt beam="2">  1       -2 0.87810362E-01 0.22160705E+04</pdfrwt>
<totfact> 0.56163848E+00</totfact>
</mgrwt>
</event>
<event>
 6    1  0.1603085E-006  0.2892640E+04  0.7818608E-02  0.8275071E-01
          2   -1    0    0  501    0  0.00000000000E+00  0.00000000000E+00  0.33358333016E+04  0.33358333016E+04  0.00000000000E+00 0.  1.
         -2   -1    0    0    0  501 -0.00000000000E+00 -0.00000000000E+00 -0.62708219317E+03  0.62708219317E+03  0.00000000000E+00 0. -1.
         23    2    1    2    0    0  0.62046236612E+03  0.90091733457E+03  0.26489582072E+04  0.28673787393E+04  0.90860659413E+02 0.  0.
         11    1    3    3    0    0  0.56857390618E+02  0.12727234297E+03  0.38160701243E+03  0.40626952148E+03  0.00000000000E+00 0. -1.
        -11    1    3    3    0    0  0.56360497551E+03  0.77364499160E+03  0.22673511948E+04  0.24611092178E+04  0.00000000000E+00 0.  1.
         22    1    1    2    0    0 -0.62046236612E+03 -0.90091733457E+03  0.59792901173E+02  0.10955367554E+04  0.00000000000E+00 0. -1.
<mgrwt>
<rscale>  0 0.28926401E+04</rscale>
<asrwt>0</asrwt>
<pdfrwt beam="1">  1        2 0.51320511E+00 0.28926401E+04</pdfrwt>
<pdfrwt beam="2">  1       -2 0.96474186E-01 0.28926401E+04</pdfrwt>
<totfact> 0.81775307E-01</totfact>
</mgrwt>
</event>
<event>
 6    1  0.1603085E-006  0.2505709E+04  0.7818608E-02  0.8400955E-01
          1   -1    0    0  501    0  0.00000000000E+00  0.00000000000E+00  0.12749800689E+04  0.12749800689E+04  0.00000000000E+00 0. -1.
         -1   -1    0    0    0  501 -0.00000000000E+00 -0.00000000000E+00 -0.12311127355E+04  0.12311127355E+04  0.00000000000E+00 0.  1.
         23    2    1    2    0    0  0.99487661547E+03 -0.62700976579E+03  0.44916195526E+03  0.12622341078E+04  0.92562165805E+02 0.  0.
         11    1    3    3    0    0  0.12428700977E+03 -0.10049635130E+03  0.89036880197E+02  0.18295995042E+03  0.00000000000E+00 0.  1.
        -11    1    3    3    0    0  0.87058960569E+03 -0.52651341449E+03  0.36012507506E+03  0.10792741574E+04  0.00000000000E+00 0. -1.
         22    1    1    2    0    0 -0.99487661547E+03  0.62700976579E+03 -0.40529462183E+03  0.12438586965E+04  0.00000000000E+00 0.  1.
<mgrwt>
<rscale>  0 0.25057088E+04</rscale>
<asrwt>0</asrwt>
<pdfrwt beam="1">  1        1 0.19615078E+00 0.25057088E+04</pdfrwt>
<pdfrwt beam="2">  1       -1 0.18940196E+00 0.25057088E+04</pdfrwt>
<totfact> 0.14936441E+00</totfact>
</mgrwt>
</event>
<event>
 6    1  0.1603085E-006  0.2627752E+04  0.7818608E-02  0.8358835E-01
          1   -1    0    0  501    0  0.00000000000E+00  0.00000000000E+00  0.20258858112E+04  0.20258858112E+04  0.00000000000E+00 0. -1.
         -1   -1    0    0    0  501 -0.00000000000E+00 -0.00000000000E+00 -0.85210648521E+03  0.85210648521E+03  0.00000000000E+00 0.  1.
         23    2    1    2    0    0 -0.35544352951E+03 -0.58933743678E+03  0.18113857312E+04  0.19398022065E+04  0.89753084116E+02 0.  0.
         11    1    3    3    0    0 -0.30747326692E+03 -0.54820370381E+03  0.16869474823E+04  0.18002385727E+04  0.00000000000E+00 0. -1.
        -11    1    3    3    0    0 -0.47970262586E+02 -0.41133732968E+02  0.12443824891E+03  0.13956363377E+03  0.00000000000E+00 0.  1.
         22    1    1    2    0    0  0.35544352951E+03  0.58933743678E+03 -0.63760640514E+03  0.93819008998E+03  0.00000000000E+00 0.  1.
<mgrwt>
<rscale>  0 0.26277522E+04</rscale>
<asrwt>0</asrwt>
<pdfrwt beam="1">  1        1 0.31167474E+00 0.26277522E+04</pdfrwt>
<pdfrwt beam="2">  1       -1 0.13109331E+00 0.26277522E+04</pdfrwt>
<totfact> 0.12482058E+00</totfact>
</mgrwt>
</event>
<event>
 6    1  0.1603085E-006  0.1051885E+04  0.7818608E-02  0.9253400E-01
          1   -1    0    0  501    0  0.00000000000E+00  0.00000000000E+00  0.81776413394E+03  0.81776413394E+03  0.00000000000E+00 0. -1.
         -1   -1    0    0    0  501 -0.00000000000E+00 -0.00000000000E+00 -0.33825803661E+03  0.33825803661E+03  0.00000000000E+00 0.  1.
         23    2    1    2    0    0 -0.16091976718E+03 -0.16032245113E+03  0.75804285784E+03  0.79660432630E+03  0.91383907470E+02 0.  0.
         13    1    3    3    0    0 -0.61987125195E+02 -0.68856026200E+02  0.46403937562E+03  0.47319773685E+03  0.00000000000E+00 0. -1.
        -13    1    3    3    0    0 -0.98932641980E+02 -0.91466424935E+02  0.29400348223E+03  0.32340658945E+03  0.00000000000E+00 0.  1.
         22    1    1    2    0    0  0.16091976718E+03  0.16032245113E+03 -0.27853676051E+03  0.35941784424E+03  0.00000000000E+00 0.  1.
<mgrwt>
<rscale>  0 0.10518846E+04</rscale>
<asrwt>0</asrwt>
<pdfrwt beam="1">  1        1 0.12580987E+00 0.10518846E+04</pdfrwt>
<pdfrwt beam="2">  1       -1 0.52039698E-01 0.10518846E+04</pdfrwt>
<totfact> 0.79280313E+01</totfact>
</mgrwt>
</event>
<event>
 6    1  0.1786041E-006  0.4050305E+04  0.7818608E-02  0.7994475E-01
          2   -1    0    0  501    0  0.00000000000E+00  0.00000000000E+00  0.17378556342E+04  0.17378556342E+04  0.00000000000E+00 0. -1.
         -2   -1    0    0    0  501 -0.00000000000E+00 -0.00000000000E+00 -0.23599448110E+04  0.23599448110E+04  0.00000000000E+00 0.  1.
         23    2    1    2    0    0 -0.13736071862E+04 -0.14557919277E+04 -0.61663053717E+03  0.20962618782E+04  0.89184101359E+02 0.  0.
         11    1    3    3    0    0 -0.77392327137E+03 -0.86148150377E+03 -0.39187019568E+03  0.12225669150E+04  0.00000000000E+00 0.  1.
        -11    1    3    3    0    0 -0.59968391478E+03 -0.59431042393E+03 -0.22476034149E+03  0.87369496322E+03  0.00000000000E+00 0. -1.
         22    1    1    2    0    0  0.13736071862E+04  0.14557919277E+04 -0.54586396478E+01  0.20015385670E+04  0.00000000000E+00 0. -1.
<mgrwt>
<rscale>  0 0.40503054E+04</rscale>
<asrwt>0</asrwt>
<pdfrwt beam="1">  1        2 0.26736240E+00 0.40503054E+04</pdfrwt>
<pdfrwt beam="2">  1       -2 0.36306843E+00 0.40503054E+04</pdfrwt>
<totfact> 0.94341507E-02</totfact>
</mgrwt>
</event>
<event>
 6    1  0.1603085E-006  0.2337242E+04  0.7818608E-02  0.8463380E-01
         -1   -1    0    0    0  501 -0.00000000000E+00  0.00000000000E+00  0.18507857635E+04  0.18507857635E+04  0.00000000000E+00 0.  1.
          1   -1    0    0  501    0  0.00000000000E+00 -0.00000000000E+00 -0.73788907604E+03  0.73788907604E+03  0.00000000000E+00 0. -1.
         23    2    1    2    0    0  0.12931727363E+03 -0.11460058991E+04  0.36037271755E+03  0.12115964818E+04  0.89694265916E+02 0.  0.
         13    1    3    3    0    0  0.10948225978E+03 -0.72773324214E+03  0.19444518690E+03  0.76117735623E+03  0.00000000000E+00 0.  1.
        -13    1    3    3    0    0  0.19835013852E+02 -0.41827265691E+03  0.16592753065E+03  0.45041912562E+03  0.00000000000E+00 0. -1.
         22    1    1    2    0    0 -0.12931727363E+03  0.11460058991E+04  0.75252396988E+03  0.13770783577E+04  0.00000000000E+00 0. -1.
<mgrwt>
<rscale>  0 0.23372416E+04</rscale>
<asrwt>0</asrwt>
<pdfrwt beam="1">  1        1 0.11352140E+00 0.23372416E+04</pdfrwt>
<pdfrwt beam="2">  1       -1 0.28473627E+00 0.23372416E+04</pdfrwt>
<totfact> 0.93882713E-01</totfact>
</mgrwt>
</event>
<event>
 6    1  0.1603085E-006  0.2103476E+04  0.7818608E-02  0.8559714E-01
         -1   -1    0    0    0  501 -0.00000000000E+00  0.00000000000E+00  0.86313541028E+03  0.86313541028E+03  0.00000000000E+00 0.  1.
          1   -1    0    0  501    0  0.00000000000E+00 -0.00000000000E+00 -0.12815516385E+04  0.12815516385E+04  0.00000000000E+00 0. -1.
         23    2    1    2    0    0 -0.98692749445E+03  0.78778828725E+02 -0.56457765163E+03  0.11438897941E+04  0.97488221055E+02 0.  0.
         13    1    3    3    0    0 -0.21064780788E+03  0.52290005791E+02 -0.14570093621E+03  0.26141060897E+03  0.00000000000E+00 0. -1.
        -13    1    3    3    0    0 -0.77627968657E+03  0.26488822934E+02 -0.41887671542E+03  0.88247918516E+03  0.00000000000E+00 0.  1.
         22    1    1    2    0    0  0.98692749445E+03 -0.78778828725E+02  0.14616142342E+03  0.10007972546E+04  0.00000000000E+00 0.  1.
<mgrwt>
<rscale>  0 0.21034758E+04</rscale>
<asrwt>0</asrwt>
<pdfrwt beam="1">  1        1 0.19716179E+00 0.21034758E+04</pdfrwt>
<pdfrwt beam="2">  1       -1 0.13279006E+00 0.21034758E+04</pdfrwt>
<totfact> 0.41201314E+00</totfact>
</mgrwt>
</event>
<event>
 6    1  0.1603085E-006  0.1832266E+04  0.7818608E-02  0.8689326E-01
         -2   -1    0    0    0  501 -0.00000000000E+00  0.00000000000E+00  0.43335856192E+03  0.43335856192E+03  0.00000000000E+00 0. -1.
          2   -1    0    0  501    0  0.00000000000E+00 -0.00000000000E+00 -0.19367334125E+04  0.19367334125E+04  0.00000000000E+00 0.  1.
         23    2    1    2    0    0 -0.49627469601E+03  0.64509286529E+03 -0.12912395835E+04  0.15290005702E+04  0.90053888609E+02 0.  0.
         13    1    3    3    0    0 -0.35582288829E+03  0.43387546928E+03 -0.95757989583E+03  0.11098725637E+04  0.00000000000E+00 0. -1.
        -13    1    3    3    0    0 -0.14045180772E+03  0.21121739601E+03 -0.33365968771E+03  0.41912800655E+03  0.00000000000E+00 0.  1.
         22    1    1    2    0    0  0.49627469601E+03 -0.64509286529E+03 -0.21213526707E+03  0.84109140424E+03  0.00000000000E+00 0.  1.
<mgrwt>
<rscale>  0 0.18322664E+04</rscale>
<asrwt>0</asrwt>
<pdfrwt beam="1">  1        2 0.29795899E+00 0.18322664E+04</pdfrwt>
<pdfrwt beam="2">  1       -2 0.66670547E-01 0.18322664E+04</pdfrwt>
<totfact> 0.14098948E+01</totfact>
</mgrwt>
</event>
<event>
 6    1  0.1603085E-006  0.2210644E+04  0.7818608E-02  0.8514011E-01
         -1   -1    0    0    0  501 -0.00000000000E+00  0.00000000000E+00  0.75249095601E+03  0.75249095601E+03  0.00000000000E+00 0.  1.
          1   -1    0    0  501    0  0.00000000000E+00 -0.00000000000E+00 -0.16235895675E+04  0.16235895675E+04  0.00000000000E+00 0. -1.
         23    2    1    2    0    0  0.10179812181E+04 -0.42580182475E+03 -0.43684100584E+03  0.11902590267E+04  0.91068830684E+02 0.  0.
         13    1    3    3    0    0  0.59162575020E+03 -0.22704471176E+03 -0.20656790689E+03  0.66651378800E+03  0.00000000000E+00 0. -1.
        -13    1    3    3    0    0  0.42635546787E+03 -0.19875711299E+03 -0.23027309895E+03  0.52374523869E+03  0.00000000000E+00 0.  1.
         22    1    1    2    0    0 -0.10179812181E+04  0.42580182475E+03 -0.43425760568E+03  0.11858214968E+04  0.00000000000E+00 0. -1.
<mgrwt>
<rscale>  0 0.22106438E+04</rscale>
<asrwt>0</asrwt>
<pdfrwt beam="1">  1        1 0.24978301E+00 0.22106438E+04</pdfrwt>
<pdfrwt beam="2">  1       -1 0.11576784E+00 0.22106438E+04</pdfrwt>
<totfact> 0.33075600E+00</totfact>
</mgrwt>
</event>
<event>
 6    1  0.1603085E-006  0.1960093E+04  0.7818608E-02  0.8625509E-01
         -1   -1    0    0    0  501 -0.00000000000E+00  0.00000000000E+00  0.85272179818E+03  0.85272179818E+03  0.00000000000E+00 0.  1.
          1   -1    0    0  501    0  0.00000000000E+00 -0.00000000000E+00 -0.11263823222E+04  0.11263823222E+04  0.00000000000E+00 0. -1.
         23    2    1    2    0    0  0.20733360308E+03  0.47542452899E+03 -0.97420813452E+03  0.11074489934E+04  0.91356870895E+02 0.  0.
         11    1    3    3    0    0  0.10247686251E+03  0.33709630149E+03 -0.67987362419E+03  0.76574380095E+03  0.00000000000E+00 0.  1.
        -11    1    3    3    0    0  0.10485674057E+03  0.13832822750E+03 -0.29433451033E+03  0.34170519243E+03  0.00000000000E+00 0. -1.
         22    1    1    2    0    0 -0.20733360308E+03 -0.47542452899E+03  0.70054761054E+03  0.87165512696E+03  0.00000000000E+00 0.  1.
<mgrwt>
<rscale>  0 0.19600926E+04</rscale>
<asrwt>0</asrwt>
<pdfrwt beam="1">  1        1 0.17328959E+00 0.19600926E+04</pdfrwt>
<pdfrwt beam="2">  1       -1 0.13118797E+00 0.19600926E+04</pdfrwt>
<totfact> 0.55885988E+00</totfact>
</mgrwt>
</event>
<event>
 6    1  0.1603085E-006  0.4844295E+04  0.7818608E-02  0.7852986E-01
         -1   -1    0    0    0  501 -0.00000000000E+00  0.00000000000E+00  0.24316392225E+04  0.24316392225E+04  0.00000000000E+00 0. -1.
          1   -1    0    0  501    0  0.00000000000E+00 -0.00000000000E+00 -0.24126925533E+04  0.24126925533E+04  0.00000000000E+00 0.  1.
         23    2    1    2    0    0  0.76842783189E+03 -0.16240658534E+04  0.16325986768E+04  0.24293899482E+04  0.92118682506E+02 0.  0.
         13    1    3    3    0    0  0.55941136282E+03 -0.11588932219E+04  0.11139189549E+04  0.17019958903E+04  0.00000000000E+00 0. -1.
        -13    1    3    3    0    0  0.20901646908E+03 -0.46517263156E+03  0.51867972190E+03  0.72739405786E+03  0.00000000000E+00 0.  1.
         22    1    1    2    0    0 -0.76842783189E+03  0.16240658534E+04 -0.16136520077E+04  0.24149418276E+04  0.00000000000E+00 0.  1.
<mgrwt>
<rscale>  0 0.48442947E+04</rscale>
<asrwt>0</asrwt>
<pdfrwt beam="1">  1        1 0.37118347E+00 0.48442947E+04</pdfrwt>
<pdfrwt beam="2">  1       -1 0.37409834E+00 0.48442947E+04</pdfrwt>
<totfact> 0.12205217E-02</totfact>
</mgrwt>
</event>
<event>
 6    1  0.1619858E-006  0.2395771E+04  0.7818608E-02  0.8441088E-01
          1   -1    0    0  501    0  0.00000000000E+00  0.00000000000E+00  0.84575485762E+03  0.84575485762E+03  0.00000000000E+00 0. -1.
         -1   -1    0    0    0  501 -0.00000000000E+00 -0.00000000000E+00 -0.16966264101E+04  0.16966264101E+04  0.00000000000E+00 0.  1.
         23    2    1    2    0    0  0.19467494406E+03  0.40757336854E+03 -0.16014430825E+04  0.16663835473E+04  0.90552723310E+02 0.  0.
         11    1    3    3    0    0  0.78498820421E+02  0.26564582286E+03 -0.99032603720E+03  0.10283362427E+04  0.00000000000E+00 0.  1.
        -11    1    3    3    0    0  0.11617612364E+03  0.14192754569E+03 -0.61111704528E+03  0.63804730464E+03  0.00000000000E+00 0. -1.
         22    1    1    2    0    0 -0.19467494406E+03 -0.40757336854E+03  0.75057152999E+03  0.87599772044E+03  0.00000000000E+00 0. -1.
<mgrwt>
<rscale>  0 0.23957713E+04</rscale>
<asrwt>0</asrwt>
<pdfrwt beam="1">  1        1 0.13011613E+00 0.23957713E+04</pdfrwt>
<pdfrwt beam="2">  1       -1 0.26101945E+00 0.23957713E+04</pdfrwt>
<totfact> 0.10697351E+00</totfact>
</mgrwt>
</event>
<event>
 6    1  0.1603085E-006  0.2161462E+04  0.7818608E-02  0.8534642E-01
         -1   -1    0    0    0  501 -0.00000000000E+00  0.00000000000E+00  0.41397767724E+03  0.41397767724E+03  0.00000000000E+00 0.  1.
          1   -1    0    0  501    0  0.00000000000E+00 -0.00000000000E+00 -0.28213585109E+04  0.28213585109E+04  0.00000000000E+00 0. -1.
         23    2    1    2    0    0  0.86264077479E+03 -0.36890461095E+03 -0.20029019684E+04  0.22136499003E+04  0.91596221953E+02 0.  0.
         11    1    3    3    0    0  0.52614006551E+03 -0.26311670418E+03 -0.11874433368E+04  0.13251699689E+04  0.00000000000E+00 0. -1.
        -11    1    3    3    0    0  0.33650070928E+03 -0.10578790677E+03 -0.81545863163E+03  0.88847993138E+03  0.00000000000E+00 0.  1.
         22    1    1    2    0    0 -0.86264077479E+03  0.36890461095E+03 -0.40447886531E+03  0.10216862879E+04  0.00000000000E+00 0.  1.
<mgrwt>
<rscale>  0 0.21614620E+04</rscale>
<asrwt>0</asrwt>
<pdfrwt beam="1">  1        1 0.43405517E+00 0.21614620E+04</pdfrwt>
<pdfrwt beam="2">  1       -1 0.63688871E-01 0.21614620E+04</pdfrwt>
<totfact> 0.18415275E+00</totfact>
</mgrwt>
</event>
<event>
 6    1  0.1603085E-006  0.4640537E+04  0.7818608E-02  0.7886484E-01
         -2   -1    0    0    0  501 -0.00000000000E+00  0.00000000000E+00  0.41516012052E+04  0.41516012052E+04  0.00000000000E+00 0.  1.
          2   -1    0    0  501    0  0.00000000000E+00 -0.00000000000E+00 -0.12967638161E+04  0.12967638161E+04  0.00000000000E+00 0. -1.
         23    2    1    2    0    0 -0.20947749116E+04  0.55303303545E+03  0.24000875381E+04  0.32346069280E+04  0.91292495358E+02 0.  0.
         13    1    3    3    0    0 -0.91981703368E+03  0.21998065552E+03  0.11066322414E+04  0.14557093741E+04  0.00000000000E+00 0.  1.
        -13    1    3    3    0    0 -0.11749578779E+04  0.33305237992E+03  0.12934552968E+04  0.17788975539E+04  0.00000000000E+00 0. -1.
         22    1    1    2    0    0  0.20947749116E+04 -0.55303303545E+03  0.45474985100E+03  0.22137580932E+04  0.00000000000E+00 0. -1.
<mgrwt>
<rscale>  0 0.46405371E+04</rscale>
<asrwt>0</asrwt>
<pdfrwt beam="1">  1        2 0.19950213E+00 0.46405371E+04</pdfrwt>
<pdfrwt beam="2">  1       -2 0.63870787E+00 0.46405371E+04</pdfrwt>
<totfact> 0.45914111E-03</totfact>
</mgrwt>
</event>
<event>
 6    1  0.2011269E-006  0.3649448E+04  0.7818608E-02  0.8079258E-01
         -2   -1    0    0    0  501 -0.00000000000E+00  0.00000000000E+00  0.24504571261E+04  0.24504571261E+04  0.00000000000E+00 0.  1.
          2   -1    0    0  501    0  0.00000000000E+00 -0.00000000000E+00 -0.13587738724E+04  0.13587738724E+04  0.00000000000E+00 0. -1.
         23    2    1    2    0    0 -0.15246513094E+04  0.98292103243E+03  0.35178065512E+03  0.18501109851E+04  0.92009002410E+02 0.  0.
         11    1    3    3    0    0 -0.71532396368E+03  0.46086580207E+03  0.21181202823E+03  0.87689793924E+03  0.00000000000E+00 0. -1.
        -11    1    3    3    0    0 -0.80932734574E+03  0.52205523036E+03  0.13996862689E+03  0.97321304585E+03  0.00000000000E+00 0.  1.
         22    1    1    2    0    0  0.15246513094E+04 -0.98292103243E+03  0.73990259863E+03  0.19591200134E+04  0.00000000000E+00 0.  1.
<mgrwt>
<rscale>  0 0.36494477E+04</rscale>
<asrwt>0</asrwt>
<pdfrwt beam="1">  1        2 0.20904213E+00 0.36494477E+04</pdfrwt>
<pdfrwt beam="2">  1       -2 0.37699340E+00 0.36494477E+04</pdfrwt>
<totfact> 0.12979670E-01</totfact>
</mgrwt>
</event>
<event>
 6    1  0.2230010E-006  0.1674194E+04  0.7818608E-02  0.8776221E-01
         -2   -1    0    0    0  501 -0.00000000000E+00  0.00000000000E+00  0.59746016892E+03  0.59746016892E+03  0.00000000000E+00 0.  1.
          2   -1    0    0  501    0  0.00000000000E+00 -0.00000000000E+00 -0.11728508476E+04  0.11728508476E+04  0.00000000000E+00 0. -1.
         23    2    1    2    0    0 -0.46064894286E+03  0.13215506573E+03  0.43438827743E+03  0.65258298601E+03  0.86654302331E+02 0.  0.
         13    1    3    3    0    0 -0.15418365890E+03  0.44818380669E+02  0.20271729252E+03  0.25860314887E+03  0.00000000000E+00 0. -1.
        -13    1    3    3    0    0 -0.30646528396E+03  0.87336685058E+02  0.23167098491E+03  0.39397983715E+03  0.00000000000E+00 0.  1.
         22    1    1    2    0    0  0.46064894286E+03 -0.13215506573E+03 -0.10097789561E+04  0.11177280305E+04  0.00000000000E+00 0. -1.
<mgrwt>
<rscale>  0 0.16741943E+04</rscale>
<asrwt>0</asrwt>
<pdfrwt beam="1">  1        2 0.18043859E+00 0.16741943E+04</pdfrwt>
<pdfrwt beam="2">  1       -2 0.91916949E-01 0.16741943E+04</pdfrwt>
<totfact> 0.18875458E+01</totfact>
</mgrwt>
</event>
<event>
 6    1  0.2153230E-006  0.2851213E+04  0.7818608E-02  0.8287543E-01
          4   -1    0    0  501    0  0.00000000000E+00  0.00000000000E+00  0.17303008630E+04  0.17303008630E+04  0.00000000000E+00 0. -1.
         -4   -1    0    0    0  501 -0.00000000000E+00 -0.00000000000E+00 -0.11745666260E+04  0.11745666260E+04  0.00000000000E+00 0.  1.
         23    2    1    2    0    0 -0.55397619003E+03 -0.11592412023E+04 -0.34795497941E+03  0.13340766105E+04  0.89207347190E+02 0.  0.
         13    1    3    3    0    0 -0.33350810814E+03 -0.78826445434E+03 -0.24780168489E+03  0.89106351244E+03  0.00000000000E+00 0. -1.
        -13    1    3    3    0    0 -0.22046808189E+03 -0.37097674794E+03 -0.10015329452E+03  0.44301309806E+03  0.00000000000E+00 0.  1.
         22    1    1    2    0    0  0.55397619003E+03  0.11592412023E+04  0.90368921641E+03  0.15707908785E+04  0.00000000000E+00 0. -1.
<mgrwt>
<rscale>  0 0.28512128E+04</rscale>
<asrwt>0</asrwt>
<pdfrwt beam="1">  1        4 0.26620013E+00 0.28512128E+04</pdfrwt>
<pdfrwt beam="2">  1       -4 0.18070256E+00 0.28512128E+04</pdfrwt>
<totfact> 0.15338685E-02</totfact>
</mgrwt>
</event>
<event>
 6    1  0.1603085E-006  0.1667286E+04  0.7818608E-02  0.8780246E-01
          1   -1    0    0  501    0  0.00000000000E+00  0.00000000000E+00  0.22627810552E+04  0.22627810552E+04  0.00000000000E+00 0.  1.
         -1   -1    0    0    0  501 -0.00000000000E+00 -0.00000000000E+00 -0.30712663077E+03  0.30712663077E+03  0.00000000000E+00 0. -1.
         23    2    1    2    0    0 -0.52112307238E+03 -0.59215195203E+03  0.57725822670E+03  0.98176749418E+03  0.91799572301E+02 0.  0.
         13    1    3    3    0    0 -0.14816696089E+03 -0.14539886400E+03  0.10696281591E+03  0.23352798963E+03  0.00000000000E+00 0.  1.
        -13    1    3    3    0    0 -0.37295611148E+03 -0.44675308803E+03  0.47029541079E+03  0.74823950455E+03  0.00000000000E+00 0. -1.
         22    1    1    2    0    0  0.52112307238E+03  0.59215195203E+03  0.13783961977E+04  0.15881401917E+04  0.00000000000E+00 0.  1.
<mgrwt>
<rscale>  0 0.16672856E+04</rscale>
<asrwt>0</asrwt>
<pdfrwt beam="1">  1        1 0.34812015E+00 0.16672856E+04</pdfrwt>
<pdfrwt beam="2">  1       -1 0.47250252E-01 0.16672856E+04</pdfrwt>
<totfact> 0.84230132E+00</totfact>
</mgrwt>
</event>
<event>
 6    1  0.1603085E-006  0.2881560E+04  0.7818608E-02  0.8278385E-01
          2   -1    0    0  501    0  0.00000000000E+00  0.00000000000E+00  0.22875681043E+04  0.22875681043E+04  0.00000000000E+00 0. -1.
         -2   -1    0    0    0  501 -0.00000000000E+00 -0.00000000000E+00 -0.90744686204E+03  0.90744686204E+03  0.00000000000E+00 0.  1.
         23    2    1    2    0    0  0.71764367951E+01  0.13488198162E+04  0.13372063642E+03  0.13584745045E+04  0.90583514151E+02 0.  0.
         13    1    3    3    0    0  0.70548257128E+01  0.10638786789E+04  0.68127916593E+02  0.10660811540E+04  0.00000000000E+00 0. -1.
        -13    1    3    3    0    0  0.12161108227E+00  0.28494113726E+03  0.65592719829E+02  0.29239335045E+03  0.00000000000E+00 0.  1.
         22    1    1    2    0    0 -0.71764367951E+01 -0.13488198162E+04  0.12464006058E+04  0.18365404618E+04  0.00000000000E+00 0. -1.
<mgrwt>
<rscale>  0 0.28815596E+04</rscale>
<asrwt>0</asrwt>
<pdfrwt beam="1">  1        2 0.35193355E+00 0.28815596E+04</pdfrwt>
<pdfrwt beam="2">  1       -2 0.13960721E+00 0.28815596E+04</pdfrwt>
<totfact> 0.14408540E+00</totfact>
</mgrwt>
</event>
<event>
 6    1  0.1625772E-006  0.2855849E+04  0.7818608E-02  0.8286136E-01
         -1   -1    0    0    0  501 -0.00000000000E+00  0.00000000000E+00  0.19577103250E+04  0.19577103250E+04  0.00000000000E+00 0.  1.
          1   -1    0    0  501    0  0.00000000000E+00 -0.00000000000E+00 -0.10415066327E+04  0.10415066327E+04  0.00000000000E+00 0. -1.
         23    2    1    2    0    0 -0.32990036333E+03  0.44687870693E+03  0.18383835953E+04  0.19226712774E+04  0.92063940526E+02 0.  0.
         13    1    3    3    0    0 -0.12823323375E+03  0.19163009926E+03  0.91713437914E+03  0.94567506396E+03  0.00000000000E+00 0. -1.
        -13    1    3    3    0    0 -0.20166712958E+03  0.25524860767E+03  0.92124921614E+03  0.97699621346E+03  0.00000000000E+00 0.  1.
         22    1    1    2    0    0  0.32990036333E+03 -0.44687870693E+03 -0.92217990294E+03  0.10765456803E+04  0.00000000000E+00 0. -1.
<mgrwt>
<rscale>  0 0.28558489E+04</rscale>
<asrwt>0</asrwt>
<pdfrwt beam="1">  1        1 0.16023179E+00 0.28558489E+04</pdfrwt>
<pdfrwt beam="2">  1       -1 0.30118620E+00 0.28558489E+04</pdfrwt>
<totfact> 0.39270123E-01</totfact>
</mgrwt>
</event>
<event>
 6    1  0.1662789E-006  0.5394125E+04  0.7818608E-02  0.7770428E-01
         -2   -1    0    0    0  501 -0.00000000000E+00  0.00000000000E+00  0.31764121000E+04  0.31764121000E+04  0.00000000000E+00 0.  1.
          2   -1    0    0  501    0  0.00000000000E+00 -0.00000000000E+00 -0.22900509987E+04  0.22900509987E+04  0.00000000000E+00 0. -1.
         23    2    1    2    0    0 -0.23807852254E+04  0.44535054287E+03  0.16439280656E+04  0.29286721103E+04  0.90252142536E+02 0.  0.
         13    1    3    3    0    0 -0.10847691351E+04  0.24643638203E+03  0.73777949814E+03  0.13348309087E+04  0.00000000000E+00 0. -1.
        -13    1    3    3    0    0 -0.12960160902E+04  0.19891416084E+03  0.90614856751E+03  0.15938412016E+04  0.00000000000E+00 0.  1.
         22    1    1    2    0    0  0.23807852254E+04 -0.44535054287E+03 -0.75756696433E+03  0.25377909884E+04  0.00000000000E+00 0. -1.
<mgrwt>
<rscale>  0 0.53941248E+04</rscale>
<asrwt>0</asrwt>
<pdfrwt beam="1">  1        2 0.35231554E+00 0.53941248E+04</pdfrwt>
<pdfrwt beam="2">  1       -2 0.48867878E+00 0.53941248E+04</pdfrwt>
<totfact> 0.63454175E-03</totfact>
</mgrwt>
</event>
<event>
 6    1  0.1603085E-006  0.9418984E+03  0.7818608E-02  0.9374671E-01
          1   -1    0    0  501    0  0.00000000000E+00  0.00000000000E+00  0.18674854948E+03  0.18674854948E+03  0.00000000000E+00 0.  1.
         -1   -1    0    0    0  501 -0.00000000000E+00 -0.00000000000E+00 -0.11876566465E+04  0.11876566465E+04  0.00000000000E+00 0. -1.
         23    2    1    2    0    0  0.23140132389E+03 -0.40601374606E+03 -0.52460969259E+03  0.70713171027E+03  0.80163529297E+02 0.  0.
         13    1    3    3    0    0  0.16822026416E+03 -0.34971633296E+03 -0.45093381881E+03  0.59492930653E+03  0.00000000000E+00 0. -1.
        -13    1    3    3    0    0  0.63181059730E+02 -0.56297413096E+02 -0.73675873774E+02  0.11220240375E+03  0.00000000000E+00 0.  1.
         22    1    1    2    0    0 -0.23140132389E+03  0.40601374606E+03 -0.47629840446E+03  0.66727348574E+03  0.00000000000E+00 0.  1.
<mgrwt>
<rscale>  0 0.94189841E+03</rscale>
<asrwt>0</asrwt>
<pdfrwt beam="1">  1        1 0.28730547E-01 0.94189841E+03</pdfrwt>
<pdfrwt beam="2">  1       -1 0.18271640E+00 0.94189841E+03</pdfrwt>
<totfact> 0.32628973E+01</totfact>
</mgrwt>
</event>
<event>
 6    1  0.1603085E-006  0.1784890E+04  0.7818608E-02  0.8714377E-01
         -1   -1    0    0    0  501 -0.00000000000E+00  0.00000000000E+00  0.39614473684E+03  0.39614473684E+03  0.00000000000E+00 0.  1.
          1   -1    0    0  501    0  0.00000000000E+00 -0.00000000000E+00 -0.20105220895E+04  0.20105220895E+04  0.00000000000E+00 0. -1.
         23    2    1    2    0    0 -0.83966755417E+03  0.26376467850E+03 -0.62959557762E+03  0.10859062305E+04  0.90489462644E+02 0.  0.
         11    1    3    3    0    0 -0.48526301840E+03  0.17253197504E+03 -0.31818863508E+03  0.60538540364E+03  0.00000000000E+00 0. -1.
        -11    1    3    3    0    0 -0.35440453577E+03  0.91232703454E+02 -0.31140694254E+03  0.48052082683E+03  0.00000000000E+00 0.  1.
         22    1    1    2    0    0  0.83966755417E+03 -0.26376467850E+03 -0.98478177502E+03  0.13207605959E+04  0.00000000000E+00 0. -1.
<mgrwt>
<rscale>  0 0.17848896E+04</rscale>
<asrwt>0</asrwt>
<pdfrwt beam="1">  1        1 0.30931109E+00 0.17848896E+04</pdfrwt>
<pdfrwt beam="2">  1       -1 0.60945344E-01 0.17848896E+04</pdfrwt>
<totfact> 0.75633913E+00</totfact>
</mgrwt>
</event>
<event>
 6    1  0.1636861E-006  0.3334465E+04  0.7818608E-02  0.8154181E-01
          2   -1    0    0  501    0  0.00000000000E+00  0.00000000000E+00  0.18717398481E+04  0.18717398481E+04  0.00000000000E+00 0. -1.
         -2   -1    0    0    0  501 -0.00000000000E+00 -0.00000000000E+00 -0.14850701813E+04  0.14850701813E+04  0.00000000000E+00 0.  1.
         23    2    1    2    0    0  0.10614870595E+03  0.12464208801E+04 -0.91422523866E+03  0.15520496261E+04  0.90651511761E+02 0.  0.
         11    1    3    3    0    0  0.18185914798E+02  0.69554230497E+03 -0.48398788389E+03  0.84755772503E+03  0.00000000000E+00 0.  1.
        -11    1    3    3    0    0  0.87962791148E+02  0.55087857516E+03 -0.43023735477E+03  0.70449190105E+03  0.00000000000E+00 0. -1.
         22    1    1    2    0    0 -0.10614870595E+03 -0.12464208801E+04  0.13008949054E+04  0.18047604033E+04  0.00000000000E+00 0. -1.
<mgrwt>
<rscale>  0 0.33344655E+04</rscale>
<asrwt>0</asrwt>
<pdfrwt beam="1">  1        2 0.28795998E+00 0.33344655E+04</pdfrwt>
<pdfrwt beam="2">  1       -2 0.22847234E+00 0.33344655E+04</pdfrwt>
<totfact> 0.57315676E-01</totfact>
</mgrwt>
</event>
<event>
 6    1  0.1603085E-006  0.1169753E+04  0.7818608E-02  0.9139752E-01
         -4   -1    0    0    0  501 -0.00000000000E+00  0.00000000000E+00  0.38578770482E+03  0.38578770482E+03  0.00000000000E+00 0.  1.
          4   -1    0    0  501    0  0.00000000000E+00 -0.00000000000E+00 -0.88670640142E+03  0.88670640142E+03  0.00000000000E+00 0. -1.
         23    2    1    2    0    0  0.16672747536E+03 -0.45110190920E+03  0.10356164611E+03  0.50003862646E+03  0.89569134642E+02 0.  0.
         13    1    3    3    0    0  0.13604091159E+03 -0.36277701338E+03  0.11891237667E+03  0.40528316569E+03  0.00000000000E+00 0.  1.
        -13    1    3    3    0    0  0.30686563769E+02 -0.88324895821E+02 -0.15350730555E+02  0.94755460773E+02  0.00000000000E+00 0. -1.
         22    1    1    2    0    0 -0.16672747536E+03  0.45110190920E+03 -0.60448034271E+03  0.77245547978E+03  0.00000000000E+00 0.  1.
<mgrwt>
<rscale>  0 0.11697528E+04</rscale>
<asrwt>0</asrwt>
<pdfrwt beam="1">  1        4 0.13641637E+00 0.11697528E+04</pdfrwt>
<pdfrwt beam="2">  1       -4 0.59351955E-01 0.11697528E+04</pdfrwt>
<totfact> 0.20221895E+00</totfact>
</mgrwt>
</event>
<event>
 6    1  0.1603085E-006  0.1728615E+04  0.7818608E-02  0.8745210E-01
          2   -1    0    0  501    0  0.00000000000E+00  0.00000000000E+00  0.43115679934E+03  0.43115679934E+03  0.00000000000E+00 0. -1.
         -2   -1    0    0    0  501 -0.00000000000E+00 -0.00000000000E+00 -0.17326123329E+04  0.17326123329E+04  0.00000000000E+00 0.  1.
         23    2    1    2    0    0  0.35242833097E+03 -0.78447115488E+03 -0.72343055854E+03  0.11275676108E+04  0.91957721639E+02 0.  0.
         13    1    3    3    0    0  0.25432205129E+03 -0.46806932036E+03 -0.42030102838E+03  0.67854369712E+03  0.00000000000E+00 0. -1.
        -13    1    3    3    0    0  0.98106279674E+02 -0.31640183451E+03 -0.30312953015E+03  0.44902391367E+03  0.00000000000E+00 0.  1.
         22    1    1    2    0    0 -0.35242833097E+03  0.78447115488E+03 -0.57802497500E+03  0.10362015214E+04  0.00000000000E+00 0. -1.
<mgrwt>
<rscale>  0 0.17286152E+04</rscale>
<asrwt>0</asrwt>
<pdfrwt beam="1">  1        2 0.66331816E-01 0.17286152E+04</pdfrwt>
<pdfrwt beam="2">  1       -2 0.26655574E+00 0.17286152E+04</pdfrwt>
<totfact> 0.35296240E+00</totfact>
</mgrwt>
</event>
<event>
 6    1  0.1603085E-006  0.3946027E+04  0.7818608E-02  0.8015524E-01
         -1   -1    0    0    0  501 -0.00000000000E+00  0.00000000000E+00  0.29716885171E+04  0.29716885171E+04  0.00000000000E+00 0.  1.
          1   -1    0    0  501    0  0.00000000000E+00 -0.00000000000E+00 -0.13099564303E+04  0.13099564303E+04  0.00000000000E+00 0. -1.
         23    2    1    2    0    0 -0.19082331046E+04  0.40757103518E+03  0.52196149342E+03  0.20218784249E+04  0.89893460604E+02 0.  0.
         13    1    3    3    0    0 -0.11527521116E+04  0.25527337241E+03  0.36025669273E+03  0.12344175995E+04  0.00000000000E+00 0. -1.
        -13    1    3    3    0    0 -0.75548099308E+03  0.15229766277E+03  0.16170480068E+03  0.78746082541E+03  0.00000000000E+00 0.  1.
         22    1    1    2    0    0  0.19082331046E+04 -0.40757103518E+03  0.11397705934E+04  0.22597665224E+04  0.00000000000E+00 0.  1.
<mgrwt>
<rscale>  0 0.39460271E+04</rscale>
<asrwt>0</asrwt>
<pdfrwt beam="1">  1        1 0.20153176E+00 0.39460271E+04</pdfrwt>
<pdfrwt beam="2">  1       -1 0.45718285E+00 0.39460271E+04</pdfrwt>
<totfact> 0.20197527E-02</totfact>
</mgrwt>
</event>
<event>
 6    1  0.1603085E-006  0.3296333E+04  0.7818608E-02  0.8163829E-01
         -2   -1    0    0    0  501 -0.00000000000E+00  0.00000000000E+00  0.10646637284E+04  0.10646637284E+04  0.00000000000E+00 0.  1.
          2   -1    0    0  501    0  0.00000000000E+00 -0.00000000000E+00 -0.25514655139E+04  0.25514655139E+04  0.00000000000E+00 0. -1.
         23    2    1    2    0    0  0.37619605293E+03  0.15958761002E+04 -0.57380437245E+03  0.17394544507E+04  0.90035163960E+02 0.  0.
         11    1    3    3    0    0  0.15426122714E+03  0.51925151528E+03 -0.22008792389E+03  0.58468569040E+03  0.00000000000E+00 0. -1.
        -11    1    3    3    0    0  0.22193482579E+03  0.10766245849E+04 -0.35371644857E+03  0.11547687603E+04  0.00000000000E+00 0.  1.
         22    1    1    2    0    0 -0.37619605293E+03 -0.15958761002E+04 -0.91299741311E+03  0.18766747917E+04  0.00000000000E+00 0.  1.
<mgrwt>
<rscale>  0 0.32963330E+04</rscale>
<asrwt>0</asrwt>
<pdfrwt beam="1">  1        2 0.39253315E+00 0.32963330E+04</pdfrwt>
<pdfrwt beam="2">  1       -2 0.16379442E+00 0.32963330E+04</pdfrwt>
<totfact> 0.64113186E-01</totfact>
</mgrwt>
</event>
<event>
 6    1  0.1603085E-006  0.2447710E+04  0.7818608E-02  0.8421855E-01
         -1   -1    0    0    0  501 -0.00000000000E+00  0.00000000000E+00  0.16008987550E+04  0.16008987550E+04  0.00000000000E+00 0.  1.
          1   -1    0    0  501    0  0.00000000000E+00 -0.00000000000E+00 -0.93561253204E+03  0.93561253204E+03  0.00000000000E+00 0. -1.
         23    2    1    2    0    0  0.68987663700E+03  0.22641497143E+03 -0.68549149211E+03  0.10029553053E+04  0.93953419849E+02 0.  0.
         11    1    3    3    0    0  0.23864873142E+03  0.64511725566E+02 -0.29319070151E+03  0.38350458563E+03  0.00000000000E+00 0. -1.
        -11    1    3    3    0    0  0.45122790558E+03  0.16190324587E+03 -0.39230079060E+03  0.61945071967E+03  0.00000000000E+00 0.  1.
         22    1    1    2    0    0 -0.68987663700E+03 -0.22641497143E+03  0.13507777150E+04  0.15335559817E+04  0.00000000000E+00 0.  1.
<mgrwt>
<rscale>  0 0.24477099E+04</rscale>
<asrwt>0</asrwt>
<pdfrwt beam="1">  1        1 0.14394039E+00 0.24477099E+04</pdfrwt>
<pdfrwt beam="2">  1       -1 0.24629212E+00 0.24477099E+04</pdfrwt>
<totfact> 0.11198864E+00</totfact>
</mgrwt>
</event>
<event>
 6    1  0.1603085E-006  0.2526351E+04  0.7818608E-02  0.8393658E-01
          2   -1    0    0  501    0  0.00000000000E+00  0.00000000000E+00  0.11818314778E+04  0.11818314778E+04  0.00000000000E+00 0. -1.
         -2   -1    0    0    0  501 -0.00000000000E+00 -0.00000000000E+00 -0.13501181654E+04  0.13501181654E+04  0.00000000000E+00 0.  1.
         23    2    1    2    0    0  0.26272838126E+02  0.12062873809E+04 -0.45346767341E+03  0.12921320349E+04  0.90292620951E+02 0.  0.
         13    1    3    3    0    0  0.83142400666E+01  0.94225436578E+03 -0.31565350513E+03  0.99375527758E+03  0.00000000000E+00 0. -1.
        -13    1    3    3    0    0  0.17958598059E+02  0.26403301509E+03 -0.13781416828E+03  0.29837675728E+03  0.00000000000E+00 0.  1.
         22    1    1    2    0    0 -0.26272838126E+02 -0.12062873809E+04  0.28518098585E+03  0.12398176083E+04  0.00000000000E+00 0. -1.
<mgrwt>
<rscale>  0 0.25263508E+04</rscale>
<asrwt>0</asrwt>
<pdfrwt beam="1">  1        2 0.18182023E+00 0.25263508E+04</pdfrwt>
<pdfrwt beam="2">  1       -2 0.20771049E+00 0.25263508E+04</pdfrwt>
<totfact> 0.20476357E+00</totfact>
</mgrwt>
</event>
<event>
 6    1  0.1603085E-006  0.2439830E+04  0.7818608E-02  0.8424740E-01
          2   -1    0    0  501    0  0.00000000000E+00  0.00000000000E+00  0.19635665444E+04  0.19635665444E+04  0.00000000000E+00 0. -1.
         -2   -1    0    0    0  501 -0.00000000000E+00 -0.00000000000E+00 -0.75790309630E+03  0.75790309630E+03  0.00000000000E+00 0.  1.
         23    2    1    2    0    0 -0.44165135702E+03  0.10150393236E+04  0.11709599312E+04  0.16139656525E+04  0.91527140984E+02 0.  0.
         13    1    3    3    0    0 -0.18853655173E+03  0.34975647251E+03  0.37848861519E+03  0.54875245168E+03  0.00000000000E+00 0.  1.
        -13    1    3    3    0    0 -0.25311480530E+03  0.66528285109E+03  0.79247131599E+03  0.10652132009E+04  0.00000000000E+00 0. -1.
         22    1    1    2    0    0  0.44165135702E+03 -0.10150393236E+04  0.34703516882E+02  0.11075039881E+04  0.00000000000E+00 0.  1.
<mgrwt>
<rscale>  0 0.24398305E+04</rscale>
<asrwt>0</asrwt>
<pdfrwt beam="1">  1        2 0.30208716E+00 0.24398305E+04</pdfrwt>
<pdfrwt beam="2">  1       -2 0.11660048E+00 0.24398305E+04</pdfrwt>
<totfact> 0.35766998E+00</totfact>
</mgrwt>
</event>
<event>
 6    1  0.1603085E-006  0.1245108E+04  0.7818608E-02  0.9074265E-01
         -2   -1    0    0    0  501 -0.00000000000E+00  0.00000000000E+00  0.60806961862E+03  0.60806961862E+03  0.00000000000E+00 0.  1.
          2   -1    0    0  501    0  0.00000000000E+00 -0.00000000000E+00 -0.63738315401E+03  0.63738315401E+03  0.00000000000E+00 0. -1.
         23    2    1    2    0    0  0.10891127374E+02  0.13505031342E+03  0.58963021527E+03  0.61185308017E+03  0.91341103262E+02 0.  0.
         13    1    3    3    0    0  0.30319194105E+02  0.13910685179E+03  0.53858919468E+03  0.55708912247E+03  0.00000000000E+00 0. -1.
        -13    1    3    3    0    0 -0.19428066731E+02 -0.40565383695E+01  0.51041020591E+02  0.54763957704E+02  0.00000000000E+00 0.  1.
         22    1    1    2    0    0 -0.10891127374E+02 -0.13505031342E+03 -0.61894375065E+03  0.63359969246E+03  0.00000000000E+00 0. -1.
<mgrwt>
<rscale>  0 0.12451078E+04</rscale>
<asrwt>0</asrwt>
<pdfrwt beam="1">  1        2 0.98058946E-01 0.12451078E+04</pdfrwt>
<pdfrwt beam="2">  1       -2 0.93549172E-01 0.12451078E+04</pdfrwt>
<totfact> 0.43799698E+01</totfact>
</mgrwt>
</event>
<event>
 6    1  0.1603085E-006  0.7864907E+03  0.7818608E-02  0.9579780E-01
         -1   -1    0    0    0  501 -0.00000000000E+00  0.00000000000E+00  0.32533438986E+03  0.32533438986E+03  0.00000000000E+00 0.  1.
          1   -1    0    0  501    0  0.00000000000E+00 -0.00000000000E+00 -0.47533217437E+03  0.47533217437E+03  0.00000000000E+00 0. -1.
         23    2    1    2    0    0  0.11119562314E+03 -0.34606059415E+03  0.62090033314E+02  0.37982972661E+03  0.91066171286E+02 0.  0.
         13    1    3    3    0    0  0.93880550739E+02 -0.22750954350E+03  0.79771658443E+02  0.25872314871E+03  0.00000000000E+00 0. -1.
        -13    1    3    3    0    0  0.17315072398E+02 -0.11855105066E+03 -0.17681625129E+02  0.12110657790E+03  0.00000000000E+00 0.  1.
         22    1    1    2    0    0 -0.11119562314E+03  0.34606059415E+03 -0.21208781782E+03  0.42083683762E+03  0.00000000000E+00 0. -1.
<mgrwt>
<rscale>  0 0.78649069E+03</rscale>
<asrwt>0</asrwt>
<pdfrwt beam="1">  1        1 0.73128027E-01 0.78649069E+03</pdfrwt>
<pdfrwt beam="2">  1       -1 0.50051445E-01 0.78649069E+03</pdfrwt>
<totfact> 0.19263803E+02</totfact>
</mgrwt>
</event>
<event>
 6    1  0.1603085E-006  0.3149522E+04  0.7818608E-02  0.8202277E-01
          2   -1    0    0  501    0  0.00000000000E+00  0.00000000000E+00  0.31902536204E+04  0.31902536204E+04  0.00000000000E+00 0. -1.
         -2   -1    0    0    0  501 -0.00000000000E+00 -0.00000000000E+00 -0.77732779578E+03  0.77732779578E+03  0.00000000000E+00 0.  1.
         23    2    1    2    0    0  0.68536728339E+03 -0.39361217091E+03 -0.50643612472E+03  0.94312558984E+03  0.91375464750E+02 0.  0.
         13    1    3    3    0    0  0.58837482848E+03 -0.31397175595E+03 -0.39381050484E+03  0.77449978441E+03  0.00000000000E+00 0.  1.
        -13    1    3    3    0    0  0.96992454908E+02 -0.79640414959E+02 -0.11262561988E+03  0.16862580543E+03  0.00000000000E+00 0. -1.
         22    1    1    2    0    0 -0.68536728339E+03  0.39361217091E+03  0.29193619494E+04  0.30244558264E+04  0.00000000000E+00 0. -1.
<mgrwt>
<rscale>  0 0.31495224E+04</rscale>
<asrwt>0</asrwt>
<pdfrwt beam="1">  1        2 0.49080824E+00 0.31495224E+04</pdfrwt>
<pdfrwt beam="2">  1       -2 0.11958889E+00 0.31495224E+04</pdfrwt>
<totfact> 0.59537196E-01</totfact>
</mgrwt>
</event>
<event>
 6    1  0.1603085E-006  0.1961222E+04  0.7818608E-02  0.8624968E-01
         -1   -1    0    0    0  501 -0.00000000000E+00  0.00000000000E+00  0.55728853568E+03  0.55728853568E+03  0.00000000000E+00 0.  1.
          1   -1    0    0  501    0  0.00000000000E+00 -0.00000000000E+00 -0.17254944482E+04  0.17254944482E+04  0.00000000000E+00 0. -1.
         23    2    1    2    0    0 -0.24483845744E+03 -0.88498351366E+03 -0.19190208279E+03  0.94251776474E+03  0.91496654459E+02 0.  0.
         11    1    3    3    0    0 -0.11111646396E+03 -0.34220447405E+03 -0.32669562692E+02  0.36127284834E+03  0.00000000000E+00 0.  1.
        -11    1    3    3    0    0 -0.13372199349E+03 -0.54277903962E+03 -0.15923252010E+03  0.58124491641E+03  0.00000000000E+00 0. -1.
         22    1    1    2    0    0  0.24483845744E+03  0.88498351366E+03 -0.97630382973E+03  0.13402652191E+04  0.00000000000E+00 0. -1.
<mgrwt>
<rscale>  0 0.19612223E+04</rscale>
<asrwt>0</asrwt>
<pdfrwt beam="1">  1        1 0.26546068E+00 0.19612223E+04</pdfrwt>
<pdfrwt beam="2">  1       -1 0.85736698E-01 0.19612223E+04</pdfrwt>
<totfact> 0.57256267E+00</totfact>
</mgrwt>
</event>
<event>
 6    1  0.1603085E-006  0.6121746E+03  0.7818608E-02  0.9880465E-01
         -2   -1    0    0    0  501 -0.00000000000E+00  0.00000000000E+00  0.34892876133E+03  0.34892876133E+03  0.00000000000E+00 0.  1.
          2   -1    0    0  501    0  0.00000000000E+00 -0.00000000000E+00 -0.26850594071E+03  0.26850594071E+03  0.00000000000E+00 0. -1.
         23    2    1    2    0    0  0.15958858580E+02 -0.25993375353E+03 -0.10539086060E+03  0.29751757914E+03  0.97924639409E+02 0.  0.
         11    1    3    3    0    0  0.55797540689E+02 -0.13903778315E+03 -0.70226947179E+02  0.16545904266E+03  0.00000000000E+00 0. -1.
        -11    1    3    3    0    0 -0.39838682109E+02 -0.12089597039E+03 -0.35163913423E+02  0.13205853647E+03  0.00000000000E+00 0.  1.
         22    1    1    2    0    0 -0.15958858580E+02  0.25993375353E+03  0.18581368122E+03  0.31991712290E+03  0.00000000000E+00 0.  1.
<mgrwt>
<rscale>  0 0.61217463E+03</rscale>
<asrwt>0</asrwt>
<pdfrwt beam="1">  1        2 0.41308606E-01 0.61217463E+03</pdfrwt>
<pdfrwt beam="2">  1       -2 0.53681348E-01 0.61217463E+03</pdfrwt>
<totfact> 0.41007285E+02</totfact>
</mgrwt>
</event>
<event>
 6    1  0.1603085E-006  0.1920942E+04  0.7818608E-02  0.8644502E-01
         -1   -1    0    0    0  501 -0.00000000000E+00  0.00000000000E+00  0.56480539737E+03  0.56480539737E+03  0.00000000000E+00 0.  1.
          1   -1    0    0  501    0  0.00000000000E+00 -0.00000000000E+00 -0.16333137318E+04  0.16333137318E+04  0.00000000000E+00 0. -1.
         23    2    1    2    0    0 -0.74395557999E+03  0.18128146905E+03 -0.11949794642E+04  0.14220213115E+04  0.88520135292E+02 0.  0.
         13    1    3    3    0    0 -0.40223850896E+03  0.12950221391E+03 -0.71537202189E+03  0.83085725080E+03  0.00000000000E+00 0. -1.
        -13    1    3    3    0    0 -0.34171707102E+03  0.51779255144E+02 -0.47960744233E+03  0.59116406067E+03  0.00000000000E+00 0.  1.
         22    1    1    2    0    0  0.74395557999E+03 -0.18128146905E+03  0.12647112976E+03  0.77609781773E+03  0.00000000000E+00 0.  1.
<mgrwt>
<rscale>  0 0.19209419E+04</rscale>
<asrwt>0</asrwt>
<pdfrwt beam="1">  1        1 0.25127903E+00 0.19209419E+04</pdfrwt>
<pdfrwt beam="2">  1       -1 0.86893139E-01 0.19209419E+04</pdfrwt>
<totfact> 0.64513193E+00</totfact>
</mgrwt>
</event>
<event>
 6    1  0.1603085E-006  0.2630332E+04  0.7818608E-02  0.8357971E-01
          2   -1    0    0  501    0  0.00000000000E+00  0.00000000000E+00  0.96488275611E+03  0.96488275611E+03  0.00000000000E+00 0. -1.
         -2   -1    0    0    0  501 -0.00000000000E+00 -0.00000000000E+00 -0.17926129345E+04  0.17926129345E+04  0.00000000000E+00 0.  1.
         23    2    1    2    0    0 -0.52917954713E+02  0.13088316152E+04 -0.51762503262E+03  0.14113880767E+04  0.90775116742E+02 0.  0.
         11    1    3    3    0    0 -0.72736357903E+02  0.79391727208E+03 -0.33347266830E+03  0.86417546434E+03  0.00000000000E+00 0. -1.
        -11    1    3    3    0    0  0.19818403191E+02  0.51491434308E+03 -0.18415236433E+03  0.54721261234E+03  0.00000000000E+00 0.  1.
         22    1    1    2    0    0  0.52917954713E+02 -0.13088316152E+04 -0.31010514573E+03  0.13461076139E+04  0.00000000000E+00 0. -1.
<mgrwt>
<rscale>  0 0.26303318E+04</rscale>
<asrwt>0</asrwt>
<pdfrwt beam="1">  1        2 0.14844350E+00 0.26303318E+04</pdfrwt>
<pdfrwt beam="2">  1       -2 0.27578660E+00 0.26303318E+04</pdfrwt>
<totfact> 0.10464951E+00</totfact>
</mgrwt>
</event>
<event>
 6    1  0.1603085E-006  0.2813826E+04  0.7818608E-02  0.8298989E-01
         -1   -1    0    0    0  501 -0.00000000000E+00  0.00000000000E+00  0.22451113197E+04  0.22451113197E+04  0.00000000000E+00 0.  1.
          1   -1    0    0  501    0  0.00000000000E+00 -0.00000000000E+00 -0.88165088264E+03  0.88165088264E+03  0.00000000000E+00 0. -1.
         23    2    1    2    0    0  0.96186048143E+03 -0.73970102356E+03  0.14705532840E+04  0.19086480583E+04  0.89873575824E+02 0.  0.
         11    1    3    3    0    0  0.30991485047E+03 -0.18683794519E+03  0.44437262336E+03  0.57308172253E+03  0.00000000000E+00 0.  1.
        -11    1    3    3    0    0  0.65194563096E+03 -0.55286307837E+03  0.10261806606E+04  0.13355663358E+04  0.00000000000E+00 0. -1.
         22    1    1    2    0    0 -0.96186048143E+03  0.73970102356E+03 -0.10709284690E+03  0.12181141440E+04  0.00000000000E+00 0. -1.
<mgrwt>
<rscale>  0 0.28138261E+04</rscale>
<asrwt>0</asrwt>
<pdfrwt beam="1">  1        1 0.13563860E+00 0.28138261E+04</pdfrwt>
<pdfrwt beam="2">  1       -1 0.34540174E+00 0.28138261E+04</pdfrwt>
<totfact> 0.27151696E-01</totfact>
</mgrwt>
</event>
<event>
 6    1  0.1603085E-006  0.4044184E+04  0.7818608E-02  0.7995692E-01
         -2   -1    0    0    0  501 -0.00000000000E+00  0.00000000000E+00  0.15624511656E+04  0.15624511656E+04  0.00000000000E+00 0.  1.
          2   -1    0    0  501    0  0.00000000000E+00 -0.00000000000E+00 -0.26169500180E+04  0.26169500180E+04  0.00000000000E+00 0. -1.
         23    2    1    2    0    0 -0.11969193676E+04 -0.57213265475E+03  0.10480957937E+04  0.16932684451E+04  0.93281761275E+02 0.  0.
         13    1    3    3    0    0 -0.24952881183E+03 -0.16219891375E+03  0.23827947406E+03  0.38124824369E+03  0.00000000000E+00 0. -1.
        -13    1    3    3    0    0 -0.94739055580E+03 -0.40993374100E+03  0.80981631968E+03  0.13120202014E+04  0.00000000000E+00 0.  1.
         22    1    1    2    0    0  0.11969193676E+04  0.57213265475E+03 -0.21025946462E+04  0.24861327385E+04  0.00000000000E+00 0. -1.
<mgrwt>
<rscale>  0 0.40441843E+04</rscale>
<asrwt>0</asrwt>
<pdfrwt beam="1">  1        2 0.40260769E+00 0.40441843E+04</pdfrwt>
<pdfrwt beam="2">  1       -2 0.24037710E+00 0.40441843E+04</pdfrwt>
<totfact> 0.17223950E-01</totfact>
</mgrwt>
</event>
<event>
 6    1  0.1603085E-006  0.1412947E+04  0.7818608E-02  0.8944500E-01
         -2   -1    0    0    0  501 -0.00000000000E+00  0.00000000000E+00  0.46746996531E+03  0.46746996531E+03  0.00000000000E+00 0.  1.
          2   -1    0    0  501    0  0.00000000000E+00 -0.00000000000E+00 -0.10676722320E+04  0.10676722320E+04  0.00000000000E+00 0. -1.
         23    2    1    2    0    0  0.68479968578E+03  0.15021022267E+03 -0.23992692690E+03  0.74690870330E+03  0.93776117264E+02 0.  0.
         13    1    3    3    0    0  0.30142200636E+03  0.21802562622E+02 -0.85048345382E+02  0.31394871987E+03  0.00000000000E+00 0. -1.
        -13    1    3    3    0    0  0.38337767942E+03  0.12840766005E+03 -0.15487858151E+03  0.43295998343E+03  0.00000000000E+00 0.  1.
         22    1    1    2    0    0 -0.68479968578E+03 -0.15021022267E+03 -0.36027533983E+03  0.78823349404E+03  0.00000000000E+00 0. -1.
<mgrwt>
<rscale>  0 0.14129469E+04</rscale>
<asrwt>0</asrwt>
<pdfrwt beam="1">  1        2 0.16425726E+00 0.14129469E+04</pdfrwt>
<pdfrwt beam="2">  1       -2 0.71918457E-01 0.14129469E+04</pdfrwt>
<totfact> 0.38879126E+01</totfact>
</mgrwt>
</event>
<event>
 6    1  0.1603085E-006  0.1826793E+04  0.7818608E-02  0.8692179E-01
          2   -1    0    0  501    0  0.00000000000E+00  0.00000000000E+00  0.18810065492E+04  0.18810065492E+04  0.00000000000E+00 0. -1.
         -2   -1    0    0    0  501 -0.00000000000E+00 -0.00000000000E+00 -0.44353565406E+03  0.44353565406E+03  0.00000000000E+00 0.  1.
         23    2    1    2    0    0 -0.29000320918E+03  0.20755320360E+03  0.17873454912E+04  0.18249499429E+04  0.93049424473E+02 0.  0.
         13    1    3    3    0    0 -0.58211390068E+02  0.12907334129E+01  0.29463980475E+03  0.30033788717E+03  0.00000000000E+00 0. -1.
        -13    1    3    3    0    0 -0.23179181911E+03  0.20626247019E+03  0.14927056865E+04  0.15246120557E+04  0.00000000000E+00 0.  1.
         22    1    1    2    0    0  0.29000320918E+03 -0.20755320360E+03 -0.34987459607E+03  0.49959226038E+03  0.00000000000E+00 0.  1.
<mgrwt>
<rscale>  0 0.18267933E+04</rscale>
<asrwt>0</asrwt>
<pdfrwt beam="1">  1        2 0.28938562E+00 0.18267933E+04</pdfrwt>
<pdfrwt beam="2">  1       -2 0.68236256E-01 0.18267933E+04</pdfrwt>
<totfact> 0.14402753E+01</totfact>
</mgrwt>
</event>
<event>
 6    1  0.1603085E-006  0.1569584E+04  0.7818608E-02  0.8839455E-01
          2   -1    0    0  501    0  0.00000000000E+00  0.00000000000E+00  0.13586202502E+04  0.13586202502E+04  0.00000000000E+00 0. -1.
         -2   -1    0    0    0  501 -0.00000000000E+00 -0.00000000000E+00 -0.45332632596E+03  0.45332632596E+03  0.00000000000E+00 0.  1.
         23    2    1    2    0    0 -0.58823182294E+03  0.26622756512E+03 -0.55250598017E+02  0.65456177706E+03  0.92220916600E+02 0.  0.
         13    1    3    3    0    0 -0.29212723349E+03  0.84414462372E+02 -0.10895064113E+02  0.30427425857E+03  0.00000000000E+00 0. -1.
        -13    1    3    3    0    0 -0.29610458944E+03  0.18181310275E+03 -0.44355533903E+02  0.35028751849E+03  0.00000000000E+00 0.  1.
         22    1    1    2    0    0  0.58823182294E+03 -0.26622756512E+03  0.96054452221E+03  0.11573847991E+04  0.00000000000E+00 0. -1.
<mgrwt>
<rscale>  0 0.15695838E+04</rscale>
<asrwt>0</asrwt>
<pdfrwt beam="1">  1        2 0.20901850E+00 0.15695838E+04</pdfrwt>
<pdfrwt beam="2">  1       -2 0.69742512E-01 0.15695838E+04</pdfrwt>
<totfact> 0.27531509E+01</totfact>
</mgrwt>
</event>
<event>
 6    1  0.1603085E-006  0.5282973E+04  0.7818608E-02  0.7786279E-01
         -2   -1    0    0    0  501 -0.00000000000E+00  0.00000000000E+00  0.17847535220E+04  0.17847535220E+04  0.00000000000E+00 0.  1.
          2   -1    0    0  501    0  0.00000000000E+00 -0.00000000000E+00 -0.39094762499E+04  0.39094762499E+04  0.00000000000E+00 0. -1.
         23    2    1    2    0    0  0.14102551024E+04  0.47285204709E+03  0.12891894251E+04  0.19703601849E+04  0.88889662385E+02 0.  0.
         11    1    3    3    0    0  0.34068844605E+03  0.13736439215E+03  0.36055129488E+03  0.51471820421E+03  0.00000000000E+00 0. -1.
        -11    1    3    3    0    0  0.10695666563E+04  0.33548765494E+03  0.92863813022E+03  0.14556419807E+04  0.00000000000E+00 0.  1.
         22    1    1    2    0    0 -0.14102551024E+04 -0.47285204709E+03 -0.34139121530E+04  0.37238695870E+04  0.00000000000E+00 0. -1.
<mgrwt>
<rscale>  0 0.52829732E+04</rscale>
<asrwt>0</asrwt>
<pdfrwt beam="1">  1        2 0.60145788E+00 0.52829732E+04</pdfrwt>
<pdfrwt beam="2">  1       -2 0.27457747E+00 0.52829732E+04</pdfrwt>
<totfact> 0.13017786E-02</totfact>
</mgrwt>
</event>
<event>
 6    1  0.1603085E-006  0.1220806E+04  0.7818608E-02  0.9094837E-01
         -2   -1    0    0    0  501 -0.00000000000E+00  0.00000000000E+00  0.24443575799E+03  0.24443575799E+03  0.00000000000E+00 0.  1.
          2   -1    0    0  501    0  0.00000000000E+00 -0.00000000000E+00 -0.15242938777E+04  0.15242938777E+04  0.00000000000E+00 0. -1.
         23    2    1    2    0    0  0.19859414535E+03  0.55796381022E+03 -0.45104020106E+03  0.75005285165E+03  0.91535617195E+02 0.  0.
         13    1    3    3    0    0  0.17953928376E+03  0.48111135056E+03 -0.42537378345E+03  0.66681732258E+03  0.00000000000E+00 0.  1.
        -13    1    3    3    0    0  0.19054861583E+02  0.76852459664E+02 -0.25666417608E+02  0.83235529068E+02  0.00000000000E+00 0. -1.
         22    1    1    2    0    0 -0.19859414535E+03 -0.55796381022E+03 -0.82881791869E+03  0.10186767841E+04  0.00000000000E+00 0. -1.
<mgrwt>
<rscale>  0 0.12208062E+04</rscale>
<asrwt>0</asrwt>
<pdfrwt beam="1">  1        2 0.23450675E+00 0.12208062E+04</pdfrwt>
<pdfrwt beam="2">  1       -2 0.37605501E-01 0.12208062E+04</pdfrwt>
<totfact> 0.80806514E+01</totfact>
</mgrwt>
</event>
<event>
 6    1  0.1603085E-006  0.2020345E+04  0.7818608E-02  0.8597167E-01
         -2   -1    0    0    0  501 -0.00000000000E+00  0.00000000000E+00  0.22169208551E+04  0.22169208551E+04  0.00000000000E+00 0.  1.
          2   -1    0    0  501    0  0.00000000000E+00 -0.00000000000E+00 -0.46029984215E+03  0.46029984215E+03  0.00000000000E+00 0. -1.
         23    2    1    2    0    0  0.67730649124E+03 -0.73728247334E+03  0.72894917054E+03  0.12424946104E+04  0.10048101875E+03 0.  0.
         11    1    3    3    0    0  0.53155355273E+03 -0.55603806635E+03  0.60697844478E+03  0.97987261574E+03  0.00000000000E+00 0.  1.
        -11    1    3    3    0    0  0.14575293852E+03 -0.18124440698E+03  0.12197072577E+03  0.26262199469E+03  0.00000000000E+00 0. -1.
         22    1    1    2    0    0 -0.67730649124E+03  0.73728247334E+03  0.10276718424E+04  0.14347260869E+04  0.00000000000E+00 0.  1.
<mgrwt>
<rscale>  0 0.20203448E+04</rscale>
<asrwt>0</asrwt>
<pdfrwt beam="1">  1        2 0.70815361E-01 0.20203448E+04</pdfrwt>
<pdfrwt beam="2">  1       -2 0.34106474E+00 0.20203448E+04</pdfrwt>
<totfact> 0.11152599E+00</totfact>
</mgrwt>
</event>
<event>
 6    1  0.1603085E-006  0.1113127E+04  0.7818608E-02  0.9192491E-01
         -1   -1    0    0    0  501 -0.00000000000E+00  0.00000000000E+00  0.34666566469E+03  0.34666566469E+03  0.00000000000E+00 0.  1.
          1   -1    0    0  501    0  0.00000000000E+00 -0.00000000000E+00 -0.89354918120E+03  0.89354918120E+03  0.00000000000E+00 0. -1.
         23    2    1    2    0    0  0.53439096723E+03 -0.86250141902E+02 -0.40157120839E+03  0.67974320546E+03  0.88196355570E+02 0.  0.
         11    1    3    3    0    0  0.37416559060E+03 -0.99780932630E+02 -0.27170062514E+03  0.47305111078E+03  0.00000000000E+00 0. -1.
        -11    1    3    3    0    0  0.16022537663E+03  0.13530790728E+02 -0.12987058324E+03  0.20669209468E+03  0.00000000000E+00 0.  1.
         22    1    1    2    0    0 -0.53439096723E+03  0.86250141902E+02 -0.14531230813E+03  0.56047164043E+03  0.00000000000E+00 0. -1.
<mgrwt>
<rscale>  0 0.11131268E+04</rscale>
<asrwt>0</asrwt>
<pdfrwt beam="1">  1        1 0.13746910E+00 0.11131268E+04</pdfrwt>
<pdfrwt beam="2">  1       -1 0.53333181E-01 0.11131268E+04</pdfrwt>
<totfact> 0.65026798E+01</totfact>
</mgrwt>
</event>
<event>
 6    1  0.1603085E-006  0.4627060E+04  0.7818608E-02  0.7888762E-01
          2   -1    0    0  501    0  0.00000000000E+00  0.00000000000E+00  0.24095014194E+04  0.24095014194E+04  0.00000000000E+00 0. -1.
         -2   -1    0    0    0  501 -0.00000000000E+00 -0.00000000000E+00 -0.22213813110E+04  0.22213813110E+04  0.00000000000E+00 0.  1.
         23    2    1    2    0    0  0.16720339330E+04 -0.13333881085E+04 -0.78658036442E+03  0.22806354385E+04  0.94699592845E+02 0.  0.
         11    1    3    3    0    0  0.32739654639E+03 -0.24956946210E+03 -0.19047375242E+03  0.45360077751E+03  0.00000000000E+00 0.  1.
        -11    1    3    3    0    0  0.13446373866E+04 -0.10838186464E+04 -0.59610661200E+03  0.18270346610E+04  0.00000000000E+00 0. -1.
         22    1    1    2    0    0 -0.16720339330E+04  0.13333881085E+04  0.97470047291E+03  0.23502472919E+04  0.00000000000E+00 0. -1.
<mgrwt>
<rscale>  0 0.46270602E+04</rscale>
<asrwt>0</asrwt>
<pdfrwt beam="1">  1        2 0.37069253E+00 0.46270602E+04</pdfrwt>
<pdfrwt beam="2">  1       -2 0.34175097E+00 0.46270602E+04</pdfrwt>
<totfact> 0.51622026E-02</totfact>
</mgrwt>
</event>
<event>
 6    1  0.1603085E-006  0.6361689E+04  0.7818608E-02  0.7647106E-01
         -2   -1    0    0    0  501 -0.00000000000E+00  0.00000000000E+00  0.26375901259E+04  0.26375901259E+04  0.00000000000E+00 0.  1.
          2   -1    0    0  501    0  0.00000000000E+00 -0.00000000000E+00 -0.38359904767E+04  0.38359904767E+04  0.00000000000E+00 0. -1.
         23    2    1    2    0    0  0.19250668625E+04 -0.22686247777E+04  0.54342331440E+03  0.30259016024E+04  0.90723766474E+02 0.  0.
         13    1    3    3    0    0  0.17464151865E+04 -0.20357713267E+04  0.46641786836E+03  0.27224761755E+04  0.00000000000E+00 0.  1.
        -13    1    3    3    0    0  0.17865167601E+03 -0.23285345106E+03  0.77005446036E+02  0.30342542696E+03  0.00000000000E+00 0. -1.
         22    1    1    2    0    0 -0.19250668625E+04  0.22686247777E+04 -0.17418236653E+04  0.34476790001E+04  0.00000000000E+00 0. -1.
<mgrwt>
<rscale>  0 0.63616886E+04</rscale>
<asrwt>0</asrwt>
<pdfrwt beam="1">  1        2 0.59015238E+00 0.63616886E+04</pdfrwt>
<pdfrwt beam="2">  1       -2 0.40578310E+00 0.63616886E+04</pdfrwt>
<totfact> 0.20474306E-03</totfact>
</mgrwt>
</event>
<event>
 6    1  0.1603085E-006  0.6004002E+03  0.7818608E-02  0.9904576E-01
          2   -1    0    0  501    0  0.00000000000E+00  0.00000000000E+00  0.18243827620E+03  0.18243827620E+03  0.00000000000E+00 0. -1.
         -2   -1    0    0    0  501 -0.00000000000E+00 -0.00000000000E+00 -0.49397585562E+03  0.49397585562E+03  0.00000000000E+00 0.  1.
         23    2    1    2    0    0  0.20745127025E+02 -0.21301789466E+03  0.65701943114E+02  0.24268997858E+03  0.93673350704E+02 0.  0.
         11    1    3    3    0    0  0.99225882372E+01 -0.16074133430E+03  0.89494424362E+02  0.18424300883E+03  0.00000000000E+00 0. -1.
        -11    1    3    3    0    0  0.10822538787E+02 -0.52276560366E+02 -0.23792481249E+02  0.58446969754E+02  0.00000000000E+00 0.  1.
         22    1    1    2    0    0 -0.20745127025E+02  0.21301789466E+03 -0.37723952253E+03  0.43372415324E+03  0.00000000000E+00 0.  1.
<mgrwt>
<rscale>  0 0.60040021E+03</rscale>
<asrwt>0</asrwt>
<pdfrwt beam="1">  1        2 0.28067427E-01 0.60040021E+03</pdfrwt>
<pdfrwt beam="2">  1       -2 0.75996285E-01 0.60040021E+03</pdfrwt>
<totfact> 0.30085429E+02</totfact>
</mgrwt>
</event>
<event>
 6    1  0.1603085E-006  0.5149216E+04  0.7818608E-02  0.7805893E-01
         -1   -1    0    0    0  501 -0.00000000000E+00  0.00000000000E+00  0.30537208073E+04  0.30537208073E+04  0.00000000000E+00 0.  1.
          1   -1    0    0  501    0  0.00000000000E+00 -0.00000000000E+00 -0.21706652329E+04  0.21706652329E+04  0.00000000000E+00 0. -1.
         23    2    1    2    0    0 -0.23948291049E+04  0.67502962289E+03  0.11097795748E+04  0.27259314767E+04  0.90665745285E+02 0.  0.
         13    1    3    3    0    0 -0.49429064292E+03  0.10396810900E+03  0.23951568930E+03  0.55901732780E+03  0.00000000000E+00 0. -1.
        -13    1    3    3    0    0 -0.19005384620E+04  0.57106151389E+03  0.87026388548E+03  0.21669141489E+04  0.00000000000E+00 0.  1.
         22    1    1    2    0    0  0.23948291049E+04 -0.67502962289E+03 -0.22672400038E+03  0.24984545635E+04  0.00000000000E+00 0. -1.
<mgrwt>
<rscale>  0 0.51492157E+04</rscale>
<asrwt>0</asrwt>
<pdfrwt beam="1">  1        1 0.33394850E+00 0.51492157E+04</pdfrwt>
<pdfrwt beam="2">  1       -1 0.46980320E+00 0.51492157E+04</pdfrwt>
<totfact> 0.38683396E-03</totfact>
</mgrwt>
</event>
<event>
 6    1  0.1603085E-006  0.7764855E+03  0.7818608E-02  0.9594691E-01
          2   -1    0    0  501    0  0.00000000000E+00  0.00000000000E+00  0.57717324329E+03  0.57717324329E+03  0.00000000000E+00 0.  1.
         -2   -1    0    0    0  501 -0.00000000000E+00 -0.00000000000E+00 -0.26115632302E+03  0.26115632302E+03  0.00000000000E+00 0. -1.
         23    2    1    2    0    0  0.45632009776E+02  0.30109340529E+03 -0.90944512541E+02  0.33004113755E+03  0.88976002868E+02 0.  0.
         11    1    3    3    0    0  0.82055138575E+00  0.45047754012E+02  0.17573526020E+02  0.48361164821E+02  0.00000000000E+00 0. -1.
        -11    1    3    3    0    0  0.44811458390E+02  0.25604565128E+03 -0.10851803856E+03  0.28167997272E+03  0.00000000000E+00 0.  1.
         22    1    1    2    0    0 -0.45632009776E+02 -0.30109340529E+03  0.40696143281E+03  0.50828842877E+03  0.00000000000E+00 0.  1.
<mgrwt>
<rscale>  0 0.77648552E+03</rscale>
<asrwt>0</asrwt>
<pdfrwt beam="1">  1        2 0.88795883E-01 0.77648552E+03</pdfrwt>
<pdfrwt beam="2">  1       -2 0.40177896E-01 0.77648552E+03</pdfrwt>
<totfact> 0.30672253E+02</totfact>
</mgrwt>
</event>
<event>
 6    1  0.1603085E-006  0.3039291E+04  0.7818608E-02  0.8232599E-01
         -2   -1    0    0    0  501 -0.00000000000E+00  0.00000000000E+00  0.12022005079E+04  0.12022005079E+04  0.00000000000E+00 0. -1.
          2   -1    0    0  501    0  0.00000000000E+00 -0.00000000000E+00 -0.19209122748E+04  0.19209122748E+04  0.00000000000E+00 0.  1.
         23    2    1    2    0    0 -0.26326838425E+03 -0.19105277857E+03  0.11642379301E+04  0.12122724000E+04  0.91340066153E+02 0.  0.
         13    1    3    3    0    0 -0.13163233625E+03 -0.69403892705E+02  0.67570023520E+03  0.69189217377E+03  0.00000000000E+00 0. -1.
        -13    1    3    3    0    0 -0.13163604800E+03 -0.12164888586E+03  0.48853769489E+03  0.52038022627E+03  0.00000000000E+00 0.  1.
         22    1    1    2    0    0  0.26326838425E+03  0.19105277857E+03 -0.18829496971E+04  0.19108403827E+04  0.00000000000E+00 0.  1.
<mgrwt>
<rscale>  0 0.30392905E+04</rscale>
<asrwt>0</asrwt>
<pdfrwt beam="1">  1        2 0.29552496E+00 0.30392905E+04</pdfrwt>
<pdfrwt beam="2">  1       -2 0.18495393E+00 0.30392905E+04</pdfrwt>
<totfact> 0.10578303E+00</totfact>
</mgrwt>
</event>
<event>
 6    1  0.1603085E-006  0.2322044E+04  0.7818608E-02  0.8469280E-01
          1   -1    0    0  501    0  0.00000000000E+00  0.00000000000E+00  0.34412719348E+04  0.34412719348E+04  0.00000000000E+00 0. -1.
         -1   -1    0    0    0  501 -0.00000000000E+00 -0.00000000000E+00 -0.39170758702E+03  0.39170758702E+03  0.00000000000E+00 0.  1.
         23    2    1    2    0    0 -0.69591377666E+03 -0.91976557110E+03  0.17198715234E+04  0.20727671206E+04  0.90226320138E+02 0.  0.
         13    1    3    3    0    0 -0.34881082920E+03 -0.49763199770E+03  0.83497680234E+03  0.10327114118E+04  0.00000000000E+00 0.  1.
        -13    1    3    3    0    0 -0.34710294746E+03 -0.42213357340E+03  0.88489472107E+03  0.10400557087E+04  0.00000000000E+00 0. -1.
         22    1    1    2    0    0  0.69591377666E+03  0.91976557110E+03  0.13296928244E+04  0.17602124013E+04  0.00000000000E+00 0.  1.
<mgrwt>
<rscale>  0 0.23220442E+04</rscale>
<asrwt>0</asrwt>
<pdfrwt beam="1">  1        1 0.52942643E+00 0.23220442E+04</pdfrwt>
<pdfrwt beam="2">  1       -1 0.60262708E-01 0.23220442E+04</pdfrwt>
<totfact> 0.70117788E-01</totfact>
</mgrwt>
</event>
<event>
 6    1  0.1603085E-006  0.2740537E+04  0.7818608E-02  0.8321971E-01
          2   -1    0    0  501    0  0.00000000000E+00  0.00000000000E+00  0.20430623873E+04  0.20430623873E+04  0.00000000000E+00 0.  1.
         -2   -1    0    0    0  501 -0.00000000000E+00 -0.00000000000E+00 -0.91903017635E+03  0.91903017635E+03  0.00000000000E+00 0. -1.
         23    2    1    2    0    0  0.98527635798E+03  0.75744034631E+02  0.15861018274E+04  0.18712144811E+04  0.96010243872E+02 0.  0.
         13    1    3    3    0    0  0.84206631649E+03  0.34390832843E+02  0.13767461512E+04  0.16142144764E+04  0.00000000000E+00 0. -1.
        -13    1    3    3    0    0  0.14321004149E+03  0.41353201788E+02  0.20935567620E+03  0.25700000475E+03  0.00000000000E+00 0.  1.
         22    1    1    2    0    0 -0.98527635798E+03 -0.75744034631E+02 -0.46206961653E+03  0.10908780825E+04  0.00000000000E+00 0. -1.
<mgrwt>
<rscale>  0 0.27405372E+04</rscale>
<asrwt>0</asrwt>
<pdfrwt beam="1">  1        2 0.31431729E+00 0.27405372E+04</pdfrwt>
<pdfrwt beam="2">  1       -2 0.14138926E+00 0.27405372E+04</pdfrwt>
<totfact> 0.19351253E+00</totfact>
</mgrwt>
</event>
<event>
 6    1  0.1603085E-006  0.2224053E+04  0.7818608E-02  0.8508483E-01
         -2   -1    0    0    0  501 -0.00000000000E+00  0.00000000000E+00  0.56806546188E+03  0.56806546188E+03  0.00000000000E+00 0.  1.
          2   -1    0    0  501    0  0.00000000000E+00 -0.00000000000E+00 -0.21768674699E+04  0.21768674699E+04  0.00000000000E+00 0. -1.
         23    2    1    2    0    0 -0.54399754634E+03 -0.20147852196E+03 -0.19739201241E+04  0.20594855130E+04  0.92698417942E+02 0.  0.
         11    1    3    3    0    0 -0.85971973096E+02 -0.21169474782E+02 -0.20388029122E+03  0.22227572960E+03  0.00000000000E+00 0. -1.
        -11    1    3    3    0    0 -0.45802557324E+03 -0.18030904718E+03 -0.17700398329E+04  0.18372097834E+04  0.00000000000E+00 0.  1.
         22    1    1    2    0    0  0.54399754634E+03  0.20147852196E+03  0.36511811608E+03  0.68544741879E+03  0.00000000000E+00 0.  1.
<mgrwt>
<rscale>  0 0.22240533E+04</rscale>
<asrwt>0</asrwt>
<pdfrwt beam="1">  1        2 0.33490269E+00 0.22240533E+04</pdfrwt>
<pdfrwt beam="2">  1       -2 0.87394685E-01 0.22240533E+04</pdfrwt>
<totfact> 0.54877876E+00</totfact>
</mgrwt>
</event>
<event>
 6    1  0.1603085E-006  0.3145629E+04  0.7818608E-02  0.8203326E-01
          1   -1    0    0  501    0  0.00000000000E+00  0.00000000000E+00  0.60579629232E+03  0.60579629232E+03  0.00000000000E+00 0. -1.
         -1   -1    0    0    0  501 -0.00000000000E+00 -0.00000000000E+00 -0.40834606551E+04  0.40834606551E+04  0.00000000000E+00 0.  1.
         23    2    1    2    0    0 -0.11183616278E+04  0.83537612196E+00 -0.33860826311E+04  0.35671514969E+04  0.90998841367E+02 0.  0.
         11    1    3    3    0    0 -0.82445679819E+03 -0.31555470520E+02 -0.25669297187E+04  0.26962664818E+04  0.00000000000E+00 0. -1.
        -11    1    3    3    0    0 -0.29390482966E+03  0.32390846642E+02 -0.81915291234E+03  0.87088501516E+03  0.00000000000E+00 0.  1.
         22    1    1    2    0    0  0.11183616278E+04 -0.83537612196E+00 -0.91581731750E+02  0.11221054505E+04  0.00000000000E+00 0. -1.
<mgrwt>
<rscale>  0 0.31456289E+04</rscale>
<asrwt>0</asrwt>
<pdfrwt beam="1">  1        1 0.93199432E-01 0.31456289E+04</pdfrwt>
<pdfrwt beam="2">  1       -1 0.62822470E+00 0.31456289E+04</pdfrwt>
<totfact> 0.97371955E-03</totfact>
</mgrwt>
</event>
<event>
 6    1  0.1603085E-006  0.1429232E+04  0.7818608E-02  0.8932927E-01
         -3   -1    0    0    0  501 -0.00000000000E+00  0.00000000000E+00  0.46483675414E+03  0.46483675414E+03  0.00000000000E+00 0.  1.
          3   -1    0    0  501    0  0.00000000000E+00 -0.00000000000E+00 -0.10986133994E+04  0.10986133994E+04  0.00000000000E+00 0. -1.
         23    2    1    2    0    0  0.55486964974E+03 -0.22920216476E+03 -0.73643879544E+03  0.95439065098E+03  0.90030298936E+02 0.  0.
         13    1    3    3    0    0  0.16084327452E+03 -0.10943281283E+03 -0.25781383093E+03  0.32297688912E+03  0.00000000000E+00 0. -1.
        -13    1    3    3    0    0  0.39402637522E+03 -0.11976935193E+03 -0.47862496450E+03  0.63141376187E+03  0.00000000000E+00 0.  1.
         22    1    1    2    0    0 -0.55486964974E+03  0.22920216476E+03  0.10266215021E+03  0.60905950253E+03  0.00000000000E+00 0.  1.
<mgrwt>
<rscale>  0 0.14292318E+04</rscale>
<asrwt>0</asrwt>
<pdfrwt beam="1">  1        3 0.16901744E+00 0.14292318E+04</pdfrwt>
<pdfrwt beam="2">  1       -3 0.71513347E-01 0.14292318E+04</pdfrwt>
<totfact> 0.11182060E+00</totfact>
</mgrwt>
</event>
<event>
 6    1  0.1603085E-006  0.1190151E+04  0.7818608E-02  0.9121521E-01
         -2   -1    0    0    0  501 -0.00000000000E+00  0.00000000000E+00  0.14310776181E+04  0.14310776181E+04  0.00000000000E+00 0.  1.
          2   -1    0    0  501    0  0.00000000000E+00 -0.00000000000E+00 -0.24744624871E+03  0.24744624871E+03  0.00000000000E+00 0. -1.
         23    2    1    2    0    0  0.31443443808E+03  0.52299544797E+02 -0.10695258609E+03  0.34915890399E+03  0.94174446276E+02 0.  0.
         13    1    3    3    0    0  0.18342980463E+03  0.74313144124E+02 -0.47000688123E+02  0.20341583346E+03  0.00000000000E+00 0. -1.
        -13    1    3    3    0    0  0.13100463344E+03 -0.22013599327E+02 -0.59951897969E+02  0.14574307054E+03  0.00000000000E+00 0.  1.
         22    1    1    2    0    0 -0.31443443808E+03 -0.52299544797E+02  0.12905839554E+04  0.13293649628E+04  0.00000000000E+00 0.  1.
<mgrwt>
<rscale>  0 0.11901509E+04</rscale>
<asrwt>0</asrwt>
<pdfrwt beam="1">  1        2 0.38068655E-01 0.11901509E+04</pdfrwt>
<pdfrwt beam="2">  1       -2 0.22016578E+00 0.11901509E+04</pdfrwt>
<totfact> 0.13261511E+01</totfact>
</mgrwt>
</event>
<event>
 6    1  0.1603085E-006  0.1109300E+04  0.7818608E-02  0.9196175E-01
          1   -1    0    0  501    0  0.00000000000E+00  0.00000000000E+00  0.80967216926E+03  0.80967216926E+03  0.00000000000E+00 0. -1.
         -1   -1    0    0    0  501 -0.00000000000E+00 -0.00000000000E+00 -0.37995201882E+03  0.37995201882E+03  0.00000000000E+00 0.  1.
         23    2    1    2    0    0 -0.12442626548E+01  0.34003486878E+03 -0.24851317093E+03  0.43092418254E+03  0.91167948293E+02 0.  0.
         13    1    3    3    0    0 -0.30277810369E+02  0.25407154007E+03 -0.21497395659E+03  0.33418990901E+03  0.00000000000E+00 0. -1.
        -13    1    3    3    0    0  0.29033547714E+02  0.85963328718E+02 -0.33539214337E+02  0.96734273530E+02  0.00000000000E+00 0.  1.
         22    1    1    2    0    0  0.12442626548E+01 -0.34003486878E+03  0.67823332137E+03  0.75870000553E+03  0.00000000000E+00 0. -1.
<mgrwt>
<rscale>  0 0.11092999E+04</rscale>
<asrwt>0</asrwt>
<pdfrwt beam="1">  1        1 0.12456495E+00 0.11092999E+04</pdfrwt>
<pdfrwt beam="2">  1       -1 0.58454157E-01 0.11092999E+04</pdfrwt>
<totfact> 0.64046694E+01</totfact>
</mgrwt>
</event>
<event>
 6    1  0.1603085E-006  0.2624945E+04  0.7818608E-02  0.8359777E-01
          1   -1    0    0  501    0  0.00000000000E+00  0.00000000000E+00  0.14972559489E+04  0.14972559489E+04  0.00000000000E+00 0. -1.
         -1   -1    0    0    0  501 -0.00000000000E+00 -0.00000000000E+00 -0.11504938635E+04  0.11504938635E+04  0.00000000000E+00 0.  1.
         23    2    1    2    0    0 -0.10002796201E+04 -0.65196765303E+01 -0.68107263627E+03  0.12135092330E+04  0.90238008559E+02 0.  0.
         11    1    3    3    0    0 -0.59204961315E+03  0.59378528266E+00 -0.34926777081E+03  0.68739440843E+03  0.00000000000E+00 0.  1.
        -11    1    3    3    0    0 -0.40823000691E+03 -0.71134618129E+01 -0.33180486547E+03  0.52611482457E+03  0.00000000000E+00 0. -1.
         22    1    1    2    0    0  0.10002796201E+04  0.65196765303E+01  0.10278347216E+04  0.14342405794E+04  0.00000000000E+00 0. -1.
<mgrwt>
<rscale>  0 0.26249448E+04</rscale>
<asrwt>0</asrwt>
<pdfrwt beam="1">  1        1 0.23034707E+00 0.26249448E+04</pdfrwt>
<pdfrwt beam="2">  1       -1 0.17699905E+00 0.26249448E+04</pdfrwt>
<totfact> 0.12632172E+00</totfact>
</mgrwt>
</event>
<event>
 6    1  0.1603085E-006  0.1263255E+04  0.7818608E-02  0.9059222E-01
         -2   -1    0    0    0  501 -0.00000000000E+00  0.00000000000E+00  0.26658500487E+03  0.26658500487E+03  0.00000000000E+00 0.  1.
          2   -1    0    0  501    0  0.00000000000E+00 -0.00000000000E+00 -0.14965340901E+04  0.14965340901E+04  0.00000000000E+00 0. -1.
         23    2    1    2    0    0 -0.39290538594E+03 -0.46292646378E+03 -0.39029823875E+03  0.72692939363E+03  0.86128247270E+02 0.  0.
         11    1    3    3    0    0 -0.26454845393E+03 -0.35864592006E+03 -0.25649115564E+03  0.51419888504E+03  0.00000000000E+00 0.  1.
        -11    1    3    3    0    0 -0.12835693202E+03 -0.10428054372E+03 -0.13380708311E+03  0.21273050859E+03  0.00000000000E+00 0. -1.
         22    1    1    2    0    0  0.39290538594E+03  0.46292646378E+03 -0.83965084650E+03  0.10361897014E+04  0.00000000000E+00 0. -1.
<mgrwt>
<rscale>  0 0.12632554E+04</rscale>
<asrwt>0</asrwt>
<pdfrwt beam="1">  1        2 0.23023601E+00 0.12632554E+04</pdfrwt>
<pdfrwt beam="2">  1       -2 0.41013078E-01 0.12632554E+04</pdfrwt>
<totfact> 0.70518092E+01</totfact>
</mgrwt>
</event>
<event>
 6    1  0.1603085E-006  0.8885676E+03  0.7818608E-02  0.9439986E-01
          1   -1    0    0  501    0  0.00000000000E+00  0.00000000000E+00  0.57853499152E+03  0.57853499152E+03  0.00000000000E+00 0. -1.
         -1   -1    0    0    0  501 -0.00000000000E+00 -0.00000000000E+00 -0.34118608450E+03  0.34118608450E+03  0.00000000000E+00 0.  1.
         23    2    1    2    0    0  0.36557751298E+03  0.22725656890E+03  0.21055832377E+03  0.48843207610E+03  0.94544270854E+02 0.  0.
         11    1    3    3    0    0  0.12067367410E+03  0.88115562373E+02  0.25953901544E+02  0.15165781536E+03  0.00000000000E+00 0.  1.
        -11    1    3    3    0    0  0.24490383887E+03  0.13914100653E+03  0.18460442223E+03  0.33677426074E+03  0.00000000000E+00 0. -1.
         22    1    1    2    0    0 -0.36557751298E+03 -0.22725656890E+03  0.26790583249E+02  0.43128899992E+03  0.00000000000E+00 0.  1.
<mgrwt>
<rscale>  0 0.88856759E+03</rscale>
<asrwt>0</asrwt>
<pdfrwt beam="1">  1        1 0.89005383E-01 0.88856759E+03</pdfrwt>
<pdfrwt beam="2">  1       -1 0.52490167E-01 0.88856759E+03</pdfrwt>
<totfact> 0.13308216E+02</totfact>
</mgrwt>
</event>
<event>
 6    1  0.1603085E-006  0.1816365E+04  0.7818608E-02  0.8697645E-01
         -2   -1    0    0    0  501 -0.00000000000E+00  0.00000000000E+00  0.55581146789E+03  0.55581146789E+03  0.00000000000E+00 0.  1.
          2   -1    0    0  501    0  0.00000000000E+00 -0.00000000000E+00 -0.14839489639E+04  0.14839489639E+04  0.00000000000E+00 0. -1.
         23    2    1    2    0    0 -0.42178626515E+03 -0.48071296554E+03 -0.11858253995E+04  0.13502739096E+04  0.89828415080E+02 0.  0.
         11    1    3    3    0    0 -0.31150265877E+03 -0.35676955094E+03 -0.79015851443E+03  0.92123227084E+03  0.00000000000E+00 0.  1.
        -11    1    3    3    0    0 -0.11028360638E+03 -0.12394341460E+03 -0.39566688508E+03  0.42904163878E+03  0.00000000000E+00 0. -1.
         22    1    1    2    0    0  0.42178626515E+03  0.48071296554E+03  0.25768790348E+03  0.68948652221E+03  0.00000000000E+00 0.  1.
<mgrwt>
<rscale>  0 0.18163654E+04</rscale>
<asrwt>0</asrwt>
<pdfrwt beam="1">  1        2 0.22829984E+00 0.18163654E+04</pdfrwt>
<pdfrwt beam="2">  1       -2 0.85509457E-01 0.18163654E+04</pdfrwt>
<totfact> 0.14526360E+01</totfact>
</mgrwt>
</event>
<event>
 6    1  0.1603085E-006  0.2064487E+04  0.7818608E-02  0.8577051E-01
          1   -1    0    0  501    0  0.00000000000E+00  0.00000000000E+00  0.10815955794E+04  0.10815955794E+04  0.00000000000E+00 0. -1.
         -1   -1    0    0    0  501 -0.00000000000E+00 -0.00000000000E+00 -0.98514313618E+03  0.98514313618E+03  0.00000000000E+00 0.  1.
         23    2    1    2    0    0  0.45502570205E+03 -0.76466520311E+03  0.56828451784E+03  0.10595710190E+04  0.89343095946E+02 0.  0.
         13    1    3    3    0    0  0.22919587682E+03 -0.47071927871E+03  0.33831776342E+03  0.62335086295E+03  0.00000000000E+00 0.  1.
        -13    1    3    3    0    0  0.22582982523E+03 -0.29394592441E+03  0.22996675442E+03  0.43622015609E+03  0.00000000000E+00 0. -1.
         22    1    1    2    0    0 -0.45502570205E+03  0.76466520311E+03 -0.47183207459E+03  0.10071676966E+04  0.00000000000E+00 0.  1.
<mgrwt>
<rscale>  0 0.20644868E+04</rscale>
<asrwt>0</asrwt>
<pdfrwt beam="1">  1        1 0.16639932E+00 0.20644868E+04</pdfrwt>
<pdfrwt beam="2">  1       -1 0.15156048E+00 0.20644868E+04</pdfrwt>
<totfact> 0.40977134E+00</totfact>
</mgrwt>
</event>
<event>
 6    1  0.1603085E-006  0.2499361E+04  0.7818608E-02  0.8403213E-01
         -2   -1    0    0    0  501 -0.00000000000E+00  0.00000000000E+00  0.75196348848E+03  0.75196348848E+03  0.00000000000E+00 0.  1.
          2   -1    0    0  501    0  0.00000000000E+00 -0.00000000000E+00 -0.20768318816E+04  0.20768318816E+04  0.00000000000E+00 0. -1.
         23    2    1    2    0    0 -0.11472777061E+03 -0.77956035288E+03 -0.17587090875E+04  0.19292985367E+04  0.90875651104E+02 0.  0.
         13    1    3    3    0    0 -0.19818892071E+02 -0.31410629670E+03 -0.79001191352E+03  0.85039660019E+03  0.00000000000E+00 0. -1.
        -13    1    3    3    0    0 -0.94908878541E+02 -0.46545405618E+03 -0.96869717401E+03  0.10789019365E+04  0.00000000000E+00 0.  1.
         22    1    1    2    0    0  0.11472777061E+03  0.77956035288E+03  0.43384069443E+03  0.89949683339E+03  0.00000000000E+00 0.  1.
<mgrwt>
<rscale>  0 0.24993613E+04</rscale>
<asrwt>0</asrwt>
<pdfrwt beam="1">  1        2 0.31951259E+00 0.24993613E+04</pdfrwt>
<pdfrwt beam="2">  1       -2 0.11568669E+00 0.24993613E+04</pdfrwt>
<totfact> 0.31376129E+00</totfact>
</mgrwt>
</event>
<event>
 6    1  0.1603085E-006  0.3119804E+04  0.7818608E-02  0.8210324E-01
         -2   -1    0    0    0  501 -0.00000000000E+00  0.00000000000E+00  0.10046040296E+04  0.10046040296E+04  0.00000000000E+00 0.  1.
          2   -1    0    0  501    0  0.00000000000E+00 -0.00000000000E+00 -0.24221427326E+04  0.24221427326E+04  0.00000000000E+00 0. -1.
         23    2    1    2    0    0  0.65580455555E+03 -0.12276496948E+04 -0.14796710620E+04  0.20335260983E+04  0.92728380139E+02 0.  0.
         11    1    3    3    0    0  0.59279560733E+02 -0.17654398630E+03 -0.18897647358E+03  0.26531858771E+03  0.00000000000E+00 0.  1.
        -11    1    3    3    0    0  0.59652499482E+03 -0.10511057085E+04 -0.12906945884E+04  0.17682075106E+04  0.00000000000E+00 0. -1.
         22    1    1    2    0    0 -0.65580455555E+03  0.12276496948E+04  0.62132358938E+02  0.13932206639E+04  0.00000000000E+00 0.  1.
<mgrwt>
<rscale>  0 0.31198041E+04</rscale>
<asrwt>0</asrwt>
<pdfrwt beam="1">  1        2 0.37263734E+00 0.31198041E+04</pdfrwt>
<pdfrwt beam="2">  1       -2 0.15455447E+00 0.31198041E+04</pdfrwt>
<totfact> 0.90522591E-01</totfact>
</mgrwt>
</event>
<event>
 6    1  0.1603085E-006  0.1342334E+04  0.7818608E-02  0.8996651E-01
          1   -1    0    0  501    0  0.00000000000E+00  0.00000000000E+00  0.97926656237E+03  0.97926656237E+03  0.00000000000E+00 0. -1.
         -1   -1    0    0    0  501 -0.00000000000E+00 -0.00000000000E+00 -0.46000262224E+03  0.46000262224E+03  0.00000000000E+00 0.  1.
         23    2    1    2    0    0  0.43475237246E+03 -0.49297949937E+03  0.13079661935E+03  0.67576065717E+03  0.86638894227E+02 0.  0.
         13    1    3    3    0    0  0.18061377910E+03 -0.20762692222E+03  0.11406465978E+02  0.27542763750E+03  0.00000000000E+00 0.  1.
        -13    1    3    3    0    0  0.25413859335E+03 -0.28535257715E+03  0.11939015337E+03  0.40033301967E+03  0.00000000000E+00 0. -1.
         22    1    1    2    0    0 -0.43475237246E+03  0.49297949937E+03  0.38846732079E+03  0.76350852744E+03  0.00000000000E+00 0. -1.
<mgrwt>
<rscale>  0 0.13423341E+04</rscale>
<asrwt>0</asrwt>
<pdfrwt beam="1">  1        1 0.15065639E+00 0.13423341E+04</pdfrwt>
<pdfrwt beam="2">  1       -1 0.70769634E-01 0.13423341E+04</pdfrwt>
<totfact> 0.31044070E+01</totfact>
</mgrwt>
</event>
<event>
 6    1  0.1603085E-006  0.2024688E+04  0.7818608E-02  0.8595164E-01
          2   -1    0    0  501    0  0.00000000000E+00  0.00000000000E+00  0.24264539903E+04  0.24264539903E+04  0.00000000000E+00 0. -1.
         -2   -1    0    0    0  501 -0.00000000000E+00 -0.00000000000E+00 -0.42236148563E+03  0.42236148563E+03  0.00000000000E+00 0.  1.
         23    2    1    2    0    0 -0.10019154468E+04  0.10413367723E+03  0.11146778348E+04  0.15050383962E+04  0.89193684309E+02 0.  0.
         11    1    3    3    0    0 -0.46623107591E+03  0.93211474294E+02  0.52336674528E+03  0.70708736741E+03  0.00000000000E+00 0.  1.
        -11    1    3    3    0    0 -0.53568437085E+03  0.10922202939E+02  0.59131108952E+03  0.79795102875E+03  0.00000000000E+00 0. -1.
         22    1    1    2    0    0  0.10019154468E+04 -0.10413367723E+03  0.88941466990E+03  0.13437770798E+04  0.00000000000E+00 0. -1.
<mgrwt>
<rscale>  0 0.20246883E+04</rscale>
<asrwt>0</asrwt>
<pdfrwt beam="1">  1        2 0.37330061E+00 0.20246883E+04</pdfrwt>
<pdfrwt beam="2">  1       -2 0.64978691E-01 0.20246883E+04</pdfrwt>
<totfact> 0.77787156E+00</totfact>
</mgrwt>
</event>
<event>
 6    1  0.1603085E-006  0.1472382E+04  0.7818608E-02  0.8903029E-01
         -1   -1    0    0    0  501 -0.00000000000E+00  0.00000000000E+00  0.31255287456E+04  0.31255287456E+04  0.00000000000E+00 0.  1.
          1   -1    0    0  501    0  0.00000000000E+00 -0.00000000000E+00 -0.17340334656E+03  0.17340334656E+03  0.00000000000E+00 0. -1.
         23    2    1    2    0    0  0.40657934304E+03  0.32495086976E+03  0.26390830986E+04  0.26915645660E+04  0.94129601913E+02 0.  0.
         13    1    3    3    0    0  0.19156287760E+03  0.21298756664E+03  0.14462159087E+04  0.14743135671E+04  0.00000000000E+00 0.  1.
        -13    1    3    3    0    0  0.21501646544E+03  0.11196330312E+03  0.11928671899E+04  0.12172509989E+04  0.00000000000E+00 0. -1.
         22    1    1    2    0    0 -0.40657934304E+03 -0.32495086976E+03  0.31304230048E+03  0.60736752616E+03  0.00000000000E+00 0. -1.
<mgrwt>
<rscale>  0 0.14723819E+04</rscale>
<asrwt>0</asrwt>
<pdfrwt beam="1">  1        1 0.26677440E-01 0.14723819E+04</pdfrwt>
<pdfrwt beam="2">  1       -1 0.48085054E+00 0.14723819E+04</pdfrwt>
<totfact> 0.34798122E-01</totfact>
</mgrwt>
</event>
<event>
 6    1  0.1603085E-006  0.1665327E+04  0.7818608E-02  0.8781391E-01
          2   -1    0    0  501    0  0.00000000000E+00  0.00000000000E+00  0.12256908969E+04  0.12256908969E+04  0.00000000000E+00 0. -1.
         -2   -1    0    0    0  501 -0.00000000000E+00 -0.00000000000E+00 -0.56566336278E+03  0.56566336278E+03  0.00000000000E+00 0.  1.
         23    2    1    2    0    0  0.44863557314E+03 -0.69619014742E+03  0.39089174995E+03  0.92049912292E+03  0.92561743048E+02 0.  0.
         13    1    3    3    0    0  0.10008661434E+03 -0.15592773455E+03  0.13149993528E+03  0.22720700199E+03  0.00000000000E+00 0. -1.
        -13    1    3    3    0    0  0.34854895879E+03 -0.54026241288E+03  0.25939181466E+03  0.69329212094E+03  0.00000000000E+00 0.  1.
         22    1    1    2    0    0 -0.44863557314E+03  0.69619014742E+03  0.26913578414E+03  0.87085513672E+03  0.00000000000E+00 0. -1.
<mgrwt>
<rscale>  0 0.16653269E+04</rscale>
<asrwt>0</asrwt>
<pdfrwt beam="1">  1        2 0.18856783E+00 0.16653269E+04</pdfrwt>
<pdfrwt beam="2">  1       -2 0.87025133E-01 0.16653269E+04</pdfrwt>
<totfact> 0.19921539E+01</totfact>
</mgrwt>
</event>
<event>
 6    1  0.1603085E-006  0.1051186E+04  0.7818608E-02  0.9254120E-01
          3   -1    0    0  501    0  0.00000000000E+00  0.00000000000E+00  0.65680227494E+03  0.65680227494E+03  0.00000000000E+00 0. -1.
         -3   -1    0    0    0  501 -0.00000000000E+00 -0.00000000000E+00 -0.42059556534E+03  0.42059556534E+03  0.00000000000E+00 0.  1.
         23    2    1    2    0    0 -0.10991472501E+03  0.41278744709E+03  0.42626502335E+03  0.60985438147E+03  0.88010074547E+02 0.  0.
         13    1    3    3    0    0 -0.49503782286E+02  0.28483252625E+03  0.32994058544E+03  0.43868095741E+03  0.00000000000E+00 0. -1.
        -13    1    3    3    0    0 -0.60410942721E+02  0.12795492084E+03  0.96324437904E+02  0.17117342406E+03  0.00000000000E+00 0.  1.
         22    1    1    2    0    0  0.10991472501E+03 -0.41278744709E+03 -0.19005831375E+03  0.46754345881E+03  0.00000000000E+00 0.  1.
<mgrwt>
<rscale>  0 0.10511862E+04</rscale>
<asrwt>0</asrwt>
<pdfrwt beam="1">  1        3 0.10104650E+00 0.10511862E+04</pdfrwt>
<pdfrwt beam="2">  1       -3 0.64707010E-01 0.10511862E+04</pdfrwt>
<totfact> 0.51525625E+00</totfact>
</mgrwt>
</event>
<event>
 6    1  0.1603085E-006  0.3313121E+04  0.7818608E-02  0.8159565E-01
          2   -1    0    0  501    0  0.00000000000E+00  0.00000000000E+00  0.25952949774E+04  0.25952949774E+04  0.00000000000E+00 0.  1.
         -2   -1    0    0    0  501 -0.00000000000E+00 -0.00000000000E+00 -0.10573724236E+04  0.10573724236E+04  0.00000000000E+00 0. -1.
         23    2    1    2    0    0 -0.63334624661E+03  0.77558906751E+03 -0.68364476301E+03  0.12158606353E+04  0.91000290070E+02 0.  0.
         13    1    3    3    0    0 -0.49366743608E+03  0.54256350131E+03 -0.51048687556E+03  0.89368872686E+03  0.00000000000E+00 0. -1.
        -13    1    3    3    0    0 -0.13967881053E+03  0.23302556619E+03 -0.17315788746E+03  0.32217190846E+03  0.00000000000E+00 0.  1.
         22    1    1    2    0    0  0.63334624661E+03 -0.77558906751E+03  0.22215673168E+04  0.24368067656E+04  0.00000000000E+00 0. -1.
<mgrwt>
<rscale>  0 0.33131214E+04</rscale>
<asrwt>0</asrwt>
<pdfrwt beam="1">  1        2 0.39927615E+00 0.33131214E+04</pdfrwt>
<pdfrwt beam="2">  1       -2 0.16267268E+00 0.33131214E+04</pdfrwt>
<totfact> 0.61498718E-01</totfact>
</mgrwt>
</event>
<event>
 6    1  0.1603085E-006  0.1412494E+04  0.7818608E-02  0.8944824E-01
         -2   -1    0    0    0  501 -0.00000000000E+00  0.00000000000E+00  0.31891370031E+03  0.31891370031E+03  0.00000000000E+00 0.  1.
          2   -1    0    0  501    0  0.00000000000E+00 -0.00000000000E+00 -0.15640108725E+04  0.15640108725E+04  0.00000000000E+00 0. -1.
         23    2    1    2    0    0  0.61338017943E+03  0.81512745202E+02 -0.10716728596E+04  0.12403083854E+04  0.83681542434E+02 0.  0.
         13    1    3    3    0    0  0.44962283955E+03  0.60230196567E+02 -0.70748273154E+03  0.84042857510E+03  0.00000000000E+00 0. -1.
        -13    1    3    3    0    0  0.16375733988E+03  0.21282548635E+02 -0.36419012810E+03  0.39987981025E+03  0.00000000000E+00 0.  1.
         22    1    1    2    0    0 -0.61338017943E+03 -0.81512745202E+02 -0.17342431251E+03  0.64261618741E+03  0.00000000000E+00 0.  1.
<mgrwt>
<rscale>  0 0.14124935E+04</rscale>
<asrwt>0</asrwt>
<pdfrwt beam="1">  1        2 0.24061706E+00 0.14124935E+04</pdfrwt>
<pdfrwt beam="2">  1       -2 0.49063646E-01 0.14124935E+04</pdfrwt>
<totfact> 0.44670558E+01</totfact>
</mgrwt>
</event>
<event>
 6    1  0.1603085E-006  0.1674320E+04  0.7818608E-02  0.8776148E-01
         -2   -1    0    0    0  501 -0.00000000000E+00  0.00000000000E+00  0.40019311896E+03  0.40019311896E+03  0.00000000000E+00 0.  1.
          2   -1    0    0  501    0  0.00000000000E+00 -0.00000000000E+00 -0.17512468562E+04  0.17512468562E+04  0.00000000000E+00 0. -1.
         23    2    1    2    0    0  0.12597470459E+03  0.82029691790E+03 -0.79100906488E+03  0.11502373509E+04  0.92703630093E+02 0.  0.
         11    1    3    3    0    0  0.77436734067E+02  0.67909704332E+03 -0.68037423868E+03  0.96440569611E+03  0.00000000000E+00 0. -1.
        -11    1    3    3    0    0  0.48537970523E+02  0.14119987458E+03 -0.11063482620E+03  0.18583165482E+03  0.00000000000E+00 0.  1.
         22    1    1    2    0    0 -0.12597470459E+03 -0.82029691790E+03 -0.56004467236E+03  0.10012026242E+04  0.00000000000E+00 0.  1.
<mgrwt>
<rscale>  0 0.16743201E+04</rscale>
<asrwt>0</asrwt>
<pdfrwt beam="1">  1        2 0.26942259E+00 0.16743201E+04</pdfrwt>
<pdfrwt beam="2">  1       -2 0.61568173E-01 0.16743201E+04</pdfrwt>
<totfact> 0.21467974E+01</totfact>
</mgrwt>
</event>
<event>
 6    1  0.1603085E-006  0.2047241E+04  0.7818608E-02  0.8584847E-01
         -1   -1    0    0    0  501 -0.00000000000E+00  0.00000000000E+00  0.82012003760E+03  0.82012003760E+03  0.00000000000E+00 0.  1.
          1   -1    0    0  501    0  0.00000000000E+00 -0.00000000000E+00 -0.12776162252E+04  0.12776162252E+04  0.00000000000E+00 0. -1.
         23    2    1    2    0    0  0.25837346686E+03  0.96905445890E+03 -0.42877982818E+03  0.10944177581E+04  0.89859309091E+02 0.  0.
         13    1    3    3    0    0  0.24954365535E+03  0.81703166589E+03 -0.37422607427E+03  0.93266174665E+03  0.00000000000E+00 0.  1.
        -13    1    3    3    0    0  0.88298115132E+01  0.15202279301E+03 -0.54553753907E+02  0.16175601142E+03  0.00000000000E+00 0. -1.
         22    1    1    2    0    0 -0.25837346686E+03 -0.96905445890E+03 -0.28716359451E+02  0.10033185048E+04  0.00000000000E+00 0. -1.
<mgrwt>
<rscale>  0 0.20472407E+04</rscale>
<asrwt>0</asrwt>
<pdfrwt beam="1">  1        1 0.19655634E+00 0.20472407E+04</pdfrwt>
<pdfrwt beam="2">  1       -1 0.12617231E+00 0.20472407E+04</pdfrwt>
<totfact> 0.47415722E+00</totfact>
</mgrwt>
</event>
<event>
 6    1  0.1603085E-006  0.2129441E+04  0.7818608E-02  0.8548384E-01
          1   -1    0    0  501    0  0.00000000000E+00  0.00000000000E+00  0.53223524540E+03  0.53223524540E+03  0.00000000000E+00 0. -1.
         -1   -1    0    0    0  501 -0.00000000000E+00 -0.00000000000E+00 -0.21299401847E+04  0.21299401847E+04  0.00000000000E+00 0.  1.
         23    2    1    2    0    0 -0.68578793374E+03 -0.69769952195E+02 -0.18116307522E+04  0.19404156434E+04  0.89632305788E+02 0.  0.
         11    1    3    3    0    0 -0.47922551351E+03 -0.36611145928E+02 -0.11466875244E+04  0.12433381468E+04  0.00000000000E+00 0. -1.
        -11    1    3    3    0    0 -0.20656242023E+03 -0.33158806267E+02 -0.66494322788E+03  0.69707749655E+03  0.00000000000E+00 0.  1.
         22    1    1    2    0    0  0.68578793374E+03  0.69769952195E+02  0.21392581294E+03  0.72175978673E+03  0.00000000000E+00 0. -1.
<mgrwt>
<rscale>  0 0.21294405E+04</rscale>
<asrwt>0</asrwt>
<pdfrwt beam="1">  1        1 0.81882346E-01 0.21294405E+04</pdfrwt>
<pdfrwt beam="2">  1       -1 0.32768310E+00 0.21294405E+04</pdfrwt>
<totfact> 0.81318751E-01</totfact>
</mgrwt>
</event>
<event>
 6    1  0.1603085E-006  0.2872831E+04  0.7818608E-02  0.8281007E-01
         -2   -1    0    0    0  501 -0.00000000000E+00  0.00000000000E+00  0.22050303084E+04  0.22050303084E+04  0.00000000000E+00 0.  1.
          2   -1    0    0  501    0  0.00000000000E+00 -0.00000000000E+00 -0.93571930150E+03  0.93571930150E+03  0.00000000000E+00 0. -1.
         23    2    1    2    0    0 -0.57794585351E+03 -0.59938048682E+03  0.19130173580E+04  0.20883066214E+04  0.90059733268E+02 0.  0.
         11    1    3    3    0    0 -0.52793373222E+03 -0.57079270456E+03  0.17362262364E+04  0.19023669155E+04  0.00000000000E+00 0.  1.
        -11    1    3    3    0    0 -0.50012121291E+02 -0.28587782261E+02  0.17679112158E+03  0.18593970593E+03  0.00000000000E+00 0. -1.
         22    1    1    2    0    0  0.57794585351E+03  0.59938048682E+03 -0.64370635108E+03  0.10524429885E+04  0.00000000000E+00 0. -1.
<mgrwt>
<rscale>  0 0.28728310E+04</rscale>
<asrwt>0</asrwt>
<pdfrwt beam="1">  1        2 0.14395682E+00 0.28728310E+04</pdfrwt>
<pdfrwt beam="2">  1       -2 0.33923543E+00 0.28728310E+04</pdfrwt>
<totfact> 0.43630208E-01</totfact>
</mgrwt>
</event>
<event>
 6    1  0.1603085E-006  0.1513693E+04  0.7818608E-02  0.8875398E-01
          1   -1    0    0  501    0  0.00000000000E+00  0.00000000000E+00  0.11228544607E+04  0.11228544607E+04  0.00000000000E+00 0. -1.
         -1   -1    0    0    0  501 -0.00000000000E+00 -0.00000000000E+00 -0.51014304200E+03  0.51014304200E+03  0.00000000000E+00 0.  1.
         23    2    1    2    0    0  0.47568513032E+03  0.54031699774E+03  0.65399121011E+02  0.72869138614E+03  0.92169897254E+02 0.  0.
         11    1    3    3    0    0  0.33830754769E+03  0.32695741346E+03  0.64843242339E+02  0.47492925065E+03  0.00000000000E+00 0. -1.
        -11    1    3    3    0    0  0.13737758263E+03  0.21335958427E+03  0.55587867161E+00  0.25376213549E+03  0.00000000000E+00 0.  1.
         22    1    1    2    0    0 -0.47568513032E+03 -0.54031699774E+03  0.54731229771E+03  0.90430611658E+03  0.00000000000E+00 0. -1.
<mgrwt>
<rscale>  0 0.15136927E+04</rscale>
<asrwt>0</asrwt>
<pdfrwt beam="1">  1        1 0.17274684E+00 0.15136927E+04</pdfrwt>
<pdfrwt beam="2">  1       -1 0.78483545E-01 0.15136927E+04</pdfrwt>
<totfact> 0.19135636E+01</totfact>
</mgrwt>
</event>
<event>
 6    1  0.1603085E-006  0.3382446E+04  0.7818608E-02  0.8142228E-01
          1   -1    0    0  501    0  0.00000000000E+00  0.00000000000E+00  0.19460452624E+04  0.19460452624E+04  0.00000000000E+00 0. -1.
         -1   -1    0    0    0  501 -0.00000000000E+00 -0.00000000000E+00 -0.14697678931E+04  0.14697678931E+04  0.00000000000E+00 0.  1.
         23    2    1    2    0    0 -0.11844404409E+04 -0.11543761453E+04 -0.11180094903E+03  0.16604443762E+04  0.95355289814E+02 0.  0.
         11    1    3    3    0    0 -0.30240949802E+03 -0.32124885693E+03 -0.67631178443E+02  0.44634774433E+03  0.00000000000E+00 0.  1.
        -11    1    3    3    0    0 -0.88203094289E+03 -0.83312728834E+03 -0.44169770586E+02  0.12140966318E+04  0.00000000000E+00 0. -1.
         22    1    1    2    0    0  0.11844404409E+04  0.11543761453E+04  0.58807831838E+03  0.17553687793E+04  0.00000000000E+00 0. -1.
<mgrwt>
<rscale>  0 0.33824458E+04</rscale>
<asrwt>0</asrwt>
<pdfrwt beam="1">  1        1 0.29939158E+00 0.33824458E+04</pdfrwt>
<pdfrwt beam="2">  1       -1 0.22611814E+00 0.33824458E+04</pdfrwt>
<totfact> 0.26759459E-01</totfact>
</mgrwt>
</event>
<event>
 6    1  0.1603085E-006  0.2116018E+04  0.7818608E-02  0.8554220E-01
         -1   -1    0    0    0  501 -0.00000000000E+00  0.00000000000E+00  0.42727965851E+03  0.42727965851E+03  0.00000000000E+00 0.  1.
          1   -1    0    0  501    0  0.00000000000E+00 -0.00000000000E+00 -0.26197889759E+04  0.26197889759E+04  0.00000000000E+00 0. -1.
         23    2    1    2    0    0 -0.38781666903E+03 -0.65375101166E+03 -0.21542512139E+04  0.22859800479E+04  0.84346503750E+02 0.  0.
         13    1    3    3    0    0 -0.29751212622E+03 -0.45564050543E+03 -0.16250715456E+04  0.17137617290E+04  0.00000000000E+00 0.  1.
        -13    1    3    3    0    0 -0.90304542813E+02 -0.19811050623E+03 -0.52917966831E+03  0.57221831890E+03  0.00000000000E+00 0. -1.
         22    1    1    2    0    0  0.38781666903E+03  0.65375101166E+03 -0.38258103458E+02  0.76108858650E+03  0.00000000000E+00 0.  1.
<mgrwt>
<rscale>  0 0.21160175E+04</rscale>
<asrwt>0</asrwt>
<pdfrwt beam="1">  1        1 0.40304446E+00 0.21160175E+04</pdfrwt>
<pdfrwt beam="2">  1       -1 0.65735331E-01 0.21160175E+04</pdfrwt>
<totfact> 0.24085764E+00</totfact>
</mgrwt>
</event>
<event>
 6    1  0.1603085E-006  0.2433330E+04  0.7818608E-02  0.8427130E-01
         -1   -1    0    0    0  501 -0.00000000000E+00  0.00000000000E+00  0.91858136389E+03  0.91858136389E+03  0.00000000000E+00 0. -1.
          1   -1    0    0  501    0  0.00000000000E+00 -0.00000000000E+00 -0.16114775678E+04  0.16114775678E+04  0.00000000000E+00 0.  1.
         23    2    1    2    0    0 -0.11938609242E+04 -0.22385005000E+03 -0.32235397499E+03  0.12601320462E+04  0.92778970481E+02 0.  0.
         13    1    3    3    0    0 -0.40744309927E+03 -0.11991402150E+03 -0.12396637116E+03  0.44244424832E+03  0.00000000000E+00 0. -1.
        -13    1    3    3    0    0 -0.78641782492E+03 -0.10393602850E+03 -0.19838760383E+03  0.81768779783E+03  0.00000000000E+00 0.  1.
         22    1    1    2    0    0  0.11938609242E+04  0.22385005000E+03 -0.37054222893E+03  0.12699268855E+04  0.00000000000E+00 0. -1.
<mgrwt>
<rscale>  0 0.24333296E+04</rscale>
<asrwt>0</asrwt>
<pdfrwt beam="1">  1        1 0.24791962E+00 0.24333296E+04</pdfrwt>
<pdfrwt beam="2">  1       -1 0.14132021E+00 0.24333296E+04</pdfrwt>
<totfact> 0.20024201E+00</totfact>
</mgrwt>
</event>
<event>
 6    1  0.1603085E-006  0.1472201E+04  0.7818608E-02  0.8903153E-01
          2   -1    0    0  501    0  0.00000000000E+00  0.00000000000E+00  0.19042916404E+04  0.19042916404E+04  0.00000000000E+00 0. -1.
         -2   -1    0    0    0  501 -0.00000000000E+00 -0.00000000000E+00 -0.28453812809E+03  0.28453812809E+03  0.00000000000E+00 0.  1.
         23    2    1    2    0    0  0.21369929507E+03  0.57030139361E+03  0.14205220802E+04  0.15480456927E+04  0.87472385047E+02 0.  0.
         13    1    3    3    0    0  0.15492615499E+02  0.14392581081E+03  0.35607853214E+03  0.38437817472E+03  0.00000000000E+00 0. -1.
        -13    1    3    3    0    0  0.19820667957E+03  0.42637558279E+03  0.10644435481E+04  0.11636675180E+04  0.00000000000E+00 0.  1.
         22    1    1    2    0    0 -0.21369929507E+03 -0.57030139361E+03  0.19923143215E+03  0.64078407582E+03  0.00000000000E+00 0.  1.
<mgrwt>
<rscale>  0 0.14722005E+04</rscale>
<asrwt>0</asrwt>
<pdfrwt beam="1">  1        2 0.29296794E+00 0.14722005E+04</pdfrwt>
<pdfrwt beam="2">  1       -2 0.43775098E-01 0.14722005E+04</pdfrwt>
<totfact> 0.36189690E+01</totfact>
</mgrwt>
</event>
<event>
 6    1  0.1603085E-006  0.5146218E+04  0.7818608E-02  0.7806339E-01
          2   -1    0    0  501    0  0.00000000000E+00  0.00000000000E+00  0.30564275847E+04  0.30564275847E+04  0.00000000000E+00 0. -1.
         -2   -1    0    0    0  501 -0.00000000000E+00 -0.00000000000E+00 -0.21662187461E+04  0.21662187461E+04  0.00000000000E+00 0.  1.
         23    2    1    2    0    0 -0.20593966075E+04 -0.93489805986E+03 -0.79835361049E+03  0.24001665852E+04  0.91007580874E+02 0.  0.
         11    1    3    3    0    0 -0.17759209593E+04 -0.80279767150E+03 -0.65431788255E+03  0.20558480602E+04  0.00000000000E+00 0. -1.
        -11    1    3    3    0    0 -0.28347564822E+03 -0.13210038836E+03 -0.14403572794E+03  0.34431852500E+03  0.00000000000E+00 0.  1.
         22    1    1    2    0    0  0.20593966075E+04  0.93489805986E+03  0.16885624491E+04  0.28224797456E+04  0.00000000000E+00 0.  1.
<mgrwt>
<rscale>  0 0.51462183E+04</rscale>
<asrwt>0</asrwt>
<pdfrwt beam="1">  1        2 0.47021963E+00 0.51462183E+04</pdfrwt>
<pdfrwt beam="2">  1       -2 0.33326442E+00 0.51462183E+04</pdfrwt>
<totfact> 0.22855726E-02</totfact>
</mgrwt>
</event>
<event>
 6    1  0.1603085E-006  0.2334952E+04  0.7818608E-02  0.8464266E-01
          2   -1    0    0  501    0  0.00000000000E+00  0.00000000000E+00  0.23436203746E+04  0.23436203746E+04  0.00000000000E+00 0. -1.
         -2   -1    0    0    0  501 -0.00000000000E+00 -0.00000000000E+00 -0.58157892435E+03  0.58157892435E+03  0.00000000000E+00 0.  1.
         23    2    1    2    0    0  0.33335387813E+03  0.10155709905E+04  0.29974037600E+03  0.11138921255E+04  0.91663129603E+02 0.  0.
         11    1    3    3    0    0  0.16427417168E+03  0.64266742396E+03  0.18938748081E+03  0.68983696566E+03  0.00000000000E+00 0.  1.
        -11    1    3    3    0    0  0.16907970645E+03  0.37290356658E+03  0.11035289519E+03  0.42405515983E+03  0.00000000000E+00 0. -1.
         22    1    1    2    0    0 -0.33335387813E+03 -0.10155709905E+04  0.14623010743E+04  0.18113071735E+04  0.00000000000E+00 0. -1.
<mgrwt>
<rscale>  0 0.23349520E+04</rscale>
<asrwt>0</asrwt>
<pdfrwt beam="1">  1        2 0.36055698E+00 0.23349520E+04</pdfrwt>
<pdfrwt beam="2">  1       -2 0.89473682E-01 0.23349520E+04</pdfrwt>
<totfact> 0.41460100E+00</totfact>
</mgrwt>
</event>
<event>
 6    1  0.1603085E-006  0.7347289E+03  0.7818608E-02  0.9659618E-01
          2   -1    0    0  501    0  0.00000000000E+00  0.00000000000E+00  0.17363333042E+04  0.17363333042E+04  0.00000000000E+00 0. -1.
         -2   -1    0    0    0  501 -0.00000000000E+00 -0.00000000000E+00 -0.77725066232E+02  0.77725066232E+02  0.00000000000E+00 0.  1.
         23    2    1    2    0    0  0.34920604251E+03  0.66324016874E+02  0.10065405728E+04  0.10714036893E+04  0.91859705909E+02 0.  0.
         13    1    3    3    0    0  0.23960714107E+03  0.73073768372E+02  0.78747437702E+03  0.82635782331E+03  0.00000000000E+00 0. -1.
        -13    1    3    3    0    0  0.10959890144E+03 -0.67497514985E+01  0.21906619574E+03  0.24504586603E+03  0.00000000000E+00 0.  1.
         22    1    1    2    0    0 -0.34920604251E+03 -0.66324016874E+02  0.65206766520E+03  0.74265468108E+03  0.00000000000E+00 0. -1.
<mgrwt>
<rscale>  0 0.73472885E+03</rscale>
<asrwt>0</asrwt>
<pdfrwt beam="1">  1        2 0.26712817E+00 0.73472885E+03</pdfrwt>
<pdfrwt beam="2">  1       -2 0.11957704E-01 0.73472885E+03</pdfrwt>
<totfact> 0.48792470E+02</totfact>
</mgrwt>
</event>
<event>
 6    1  0.1603085E-006  0.7599769E+03  0.7818608E-02  0.9619827E-01
         -2   -1    0    0    0  501 -0.00000000000E+00  0.00000000000E+00  0.37314846759E+03  0.37314846759E+03  0.00000000000E+00 0.  1.
          2   -1    0    0  501    0  0.00000000000E+00 -0.00000000000E+00 -0.38695378283E+03  0.38695378283E+03  0.00000000000E+00 0. -1.
         23    2    1    2    0    0 -0.26807292363E+03 -0.24628057973E+03  0.80000102451E+02  0.38418115135E+03  0.93155377334E+02 0.  0.
         13    1    3    3    0    0 -0.20259875286E+03 -0.21536330941E+03  0.32223270998E+02  0.29743225933E+03  0.00000000000E+00 0.  1.
        -13    1    3    3    0    0 -0.65474170777E+02 -0.30917270319E+02  0.47776831452E+02  0.86748892019E+02  0.00000000000E+00 0. -1.
         22    1    1    2    0    0  0.26807292363E+03  0.24628057973E+03 -0.93805417688E+02  0.37592109907E+03  0.00000000000E+00 0. -1.
<mgrwt>
<rscale>  0 0.75997687E+03</rscale>
<asrwt>0</asrwt>
<pdfrwt beam="1">  1        2 0.59531351E-01 0.75997687E+03</pdfrwt>
<pdfrwt beam="2">  1       -2 0.57407457E-01 0.75997687E+03</pdfrwt>
<totfact> 0.23668494E+02</totfact>
</mgrwt>
</event>
<event>
 6    1  0.1603085E-006  0.6832490E+03  0.7818608E-02  0.9746315E-01
         -2   -1    0    0    0  501 -0.00000000000E+00  0.00000000000E+00  0.28705623942E+03  0.28705623942E+03  0.00000000000E+00 0.  1.
          2   -1    0    0  501    0  0.00000000000E+00 -0.00000000000E+00 -0.40656597290E+03  0.40656597290E+03  0.00000000000E+00 0. -1.
         23    2    1    2    0    0 -0.19573786404E+02 -0.32407971333E+03 -0.15276163324E+03  0.36725358248E+03  0.78283354230E+02 0.  0.
         11    1    3    3    0    0 -0.40323553937E+02 -0.11124326028E+03 -0.72912585035E+02  0.13898667928E+03  0.00000000000E+00 0.  1.
        -11    1    3    3    0    0  0.20749767533E+02 -0.21283645305E+03 -0.79849048200E+02  0.22826690320E+03  0.00000000000E+00 0. -1.
         22    1    1    2    0    0  0.19573786404E+02  0.32407971333E+03  0.33251899747E+02  0.32636862984E+03  0.00000000000E+00 0.  1.
<mgrwt>
<rscale>  0 0.68324900E+03</rscale>
<asrwt>0</asrwt>
<pdfrwt beam="1">  1        2 0.62548611E-01 0.68324900E+03</pdfrwt>
<pdfrwt beam="2">  1       -2 0.44162498E-01 0.68324900E+03</pdfrwt>
<totfact> 0.38290511E+02</totfact>
</mgrwt>
</event>
<event>
 6    1  0.1603085E-006  0.3705498E+04  0.7818608E-02  0.8066744E-01
          1   -1    0    0  501    0  0.00000000000E+00  0.00000000000E+00  0.28676535720E+04  0.28676535720E+04  0.00000000000E+00 0. -1.
         -1   -1    0    0    0  501 -0.00000000000E+00 -0.00000000000E+00 -0.11970340316E+04  0.11970340316E+04  0.00000000000E+00 0.  1.
         23    2    1    2    0    0 -0.13853208667E+04  0.43524691586E+03  0.20960806068E+04  0.25515547936E+04  0.91236907397E+02 0.  0.
         11    1    3    3    0    0 -0.91026757535E+03  0.32555653931E+03  0.13566872806E+04  0.16658854992E+04  0.00000000000E+00 0. -1.
        -11    1    3    3    0    0 -0.47505329132E+03  0.10969037655E+03  0.73939332623E+03  0.88566929448E+03  0.00000000000E+00 0.  1.
         22    1    1    2    0    0  0.13853208667E+04 -0.43524691586E+03 -0.42546106648E+03  0.15131328099E+04  0.00000000000E+00 0.  1.
<mgrwt>
<rscale>  0 0.37054980E+04</rscale>
<asrwt>0</asrwt>
<pdfrwt beam="1">  1        1 0.44117747E+00 0.37054980E+04</pdfrwt>
<pdfrwt beam="2">  1       -1 0.18415908E+00 0.37054980E+04</pdfrwt>
<totfact> 0.11611394E-01</totfact>
</mgrwt>
</event>
<event>
 6    1  0.1603085E-006  0.4721634E+04  0.7818608E-02  0.7872944E-01
         -1   -1    0    0    0  501 -0.00000000000E+00  0.00000000000E+00  0.25348400721E+04  0.25348400721E+04  0.00000000000E+00 0. -1.
          1   -1    0    0  501    0  0.00000000000E+00 -0.00000000000E+00 -0.21987407279E+04  0.21987407279E+04  0.00000000000E+00 0.  1.
         23    2    1    2    0    0  0.23469309444E+03  0.12501436544E+04  0.21602607323E+04  0.25097317100E+04  0.11868790705E+03 0.  0.
         11    1    3    3    0    0  0.13631539118E+02  0.37958716006E+02  0.36444544614E+02  0.54358879786E+02  0.00000000000E+00 0. -1.
        -11    1    3    3    0    0  0.22106155533E+03  0.12121849384E+04  0.21238161876E+04  0.24553728302E+04  0.00000000000E+00 0.  1.
         22    1    1    2    0    0 -0.23469309444E+03 -0.12501436544E+04 -0.18241613881E+04  0.22238490900E+04  0.00000000000E+00 0.  1.
<mgrwt>
<rscale>  0 0.47216337E+04</rscale>
<asrwt>0</asrwt>
<pdfrwt beam="1">  1        1 0.33826780E+00 0.47216337E+04</pdfrwt>
<pdfrwt beam="2">  1       -1 0.38997540E+00 0.47216337E+04</pdfrwt>
<totfact> 0.13490617E-02</totfact>
</mgrwt>
</event>
<event>
 6    1  0.1603085E-006  0.1521727E+04  0.7818608E-02  0.8870132E-01
         -2   -1    0    0    0  501 -0.00000000000E+00  0.00000000000E+00  0.22911408805E+03  0.22911408805E+03  0.00000000000E+00 0.  1.
          2   -1    0    0  501    0  0.00000000000E+00 -0.00000000000E+00 -0.25267483230E+04  0.25267483230E+04  0.00000000000E+00 0. -1.
         23    2    1    2    0    0 -0.38509650809E+03 -0.22908615430E+02 -0.23348804944E+04  0.23682912446E+04  0.91172206667E+02 0.  0.
         13    1    3    3    0    0 -0.12370268404E+03 -0.50177396036E+02 -0.81183199482E+03  0.82273404750E+03  0.00000000000E+00 0. -1.
        -13    1    3    3    0    0 -0.26139382406E+03  0.27268780606E+02 -0.15230484995E+04  0.15455571971E+04  0.00000000000E+00 0.  1.
         22    1    1    2    0    0  0.38509650809E+03  0.22908615430E+02  0.37246259389E+02  0.38757116643E+03  0.00000000000E+00 0.  1.
<mgrwt>
<rscale>  0 0.15217275E+04</rscale>
<asrwt>0</asrwt>
<pdfrwt beam="1">  1        2 0.38873053E+00 0.15217275E+04</pdfrwt>
<pdfrwt beam="2">  1       -2 0.35248320E-01 0.15217275E+04</pdfrwt>
<totfact> 0.24554983E+01</totfact>
</mgrwt>
</event>
<event>
 6    1  0.1603085E-006  0.1661673E+04  0.7818608E-02  0.8783531E-01
         -2   -1    0    0    0  501 -0.00000000000E+00  0.00000000000E+00  0.13360581456E+03  0.13360581456E+03  0.00000000000E+00 0.  1.
          2   -1    0    0  501    0  0.00000000000E+00 -0.00000000000E+00 -0.51666096432E+04  0.51666096432E+04  0.00000000000E+00 0. -1.
         23    2    1    2    0    0  0.24593237785E+03 -0.73111875289E+03 -0.34870466243E+04  0.35724999016E+04  0.90796594651E+02 0.  0.
         11    1    3    3    0    0  0.66629584600E+02 -0.21828421372E+03 -0.85249312317E+03  0.88251460302E+03  0.00000000000E+00 0.  1.
        -11    1    3    3    0    0  0.17930279325E+03 -0.51283453917E+03 -0.26345535011E+04  0.26899852986E+04  0.00000000000E+00 0. -1.
         22    1    1    2    0    0 -0.24593237785E+03  0.73111875289E+03 -0.15459572043E+04  0.17277155561E+04  0.00000000000E+00 0.  1.
<mgrwt>
<rscale>  0 0.16616728E+04</rscale>
<asrwt>0</asrwt>
<pdfrwt beam="1">  1        2 0.79486303E+00 0.16616728E+04</pdfrwt>
<pdfrwt beam="2">  1       -2 0.20554740E-01 0.16616728E+04</pdfrwt>
<totfact> 0.41923366E-01</totfact>
</mgrwt>
</event>
<event>
 6    1  0.1603085E-006  0.1376082E+04  0.7818608E-02  0.8971316E-01
         -3   -1    0    0    0  501 -0.00000000000E+00  0.00000000000E+00  0.10800970816E+04  0.10800970816E+04  0.00000000000E+00 0.  1.
          3   -1    0    0  501    0  0.00000000000E+00 -0.00000000000E+00 -0.43829418931E+03  0.43829418931E+03  0.00000000000E+00 0. -1.
         23    2    1    2    0    0  0.36514376721E+03 -0.20971302536E+03 -0.27429601943E+03  0.51015184508E+03  0.87789948306E+02 0.  0.
         13    1    3    3    0    0  0.23615450354E+03 -0.10490885696E+03 -0.12635479262E+03  0.28764622617E+03  0.00000000000E+00 0.  1.
        -13    1    3    3    0    0  0.12898926367E+03 -0.10480416840E+03 -0.14794122681E+03  0.22250561891E+03  0.00000000000E+00 0. -1.
         22    1    1    2    0    0 -0.36514376721E+03  0.20971302536E+03  0.91609891172E+03  0.10082394258E+04  0.00000000000E+00 0.  1.
<mgrwt>
<rscale>  0 0.13760818E+04</rscale>
<asrwt>0</asrwt>
<pdfrwt beam="1">  1        3 0.67429876E-01 0.13760818E+04</pdfrwt>
<pdfrwt beam="2">  1       -3 0.16616878E+00 0.13760818E+04</pdfrwt>
<totfact> 0.13300933E+00</totfact>
</mgrwt>
</event>
<event>
 6    1  0.1603085E-006  0.1905797E+04  0.7818608E-02  0.8651976E-01
         -2   -1    0    0    0  501 -0.00000000000E+00  0.00000000000E+00  0.35147804560E+03  0.35147804560E+03  0.00000000000E+00 0.  1.
          2   -1    0    0  501    0  0.00000000000E+00 -0.00000000000E+00 -0.25834193547E+04  0.25834193547E+04  0.00000000000E+00 0. -1.
         23    2    1    2    0    0 -0.30698358806E+03  0.88759289840E+03 -0.13439229164E+04  0.16423662624E+04  0.95802181768E+02 0.  0.
         13    1    3    3    0    0 -0.17178011798E+03  0.48389692173E+03 -0.65144502940E+03  0.82948494026E+03  0.00000000000E+00 0.  1.
        -13    1    3    3    0    0 -0.13520347008E+03  0.40369597667E+03 -0.69247788703E+03  0.81288132217E+03  0.00000000000E+00 0. -1.
         22    1    1    2    0    0  0.30698358806E+03 -0.88759289840E+03 -0.88801839265E+03  0.12925311379E+04  0.00000000000E+00 0. -1.
<mgrwt>
<rscale>  0 0.19057966E+04</rscale>
<asrwt>0</asrwt>
<pdfrwt beam="1">  1        2 0.39744913E+00 0.19057966E+04</pdfrwt>
<pdfrwt beam="2">  1       -2 0.54073545E-01 0.19057966E+04</pdfrwt>
<totfact> 0.93934693E+00</totfact>
</mgrwt>
</event>
<event>
 6    1  0.1603085E-006  0.1757815E+04  0.7818608E-02  0.8729060E-01
          2   -1    0    0  501    0  0.00000000000E+00  0.00000000000E+00  0.32941790692E+03  0.32941790692E+03  0.00000000000E+00 0. -1.
         -2   -1    0    0    0  501 -0.00000000000E+00 -0.00000000000E+00 -0.23449803632E+04  0.23449803632E+04  0.00000000000E+00 0.  1.
         23    2    1    2    0    0  0.42999303237E+03  0.58026217937E+03 -0.25509665899E+03  0.77154829491E+03  0.92813044692E+02 0.  0.
         11    1    3    3    0    0  0.22817657147E+03  0.25252626075E+03 -0.15423941485E+03  0.37366275869E+03  0.00000000000E+00 0. -1.
        -11    1    3    3    0    0  0.20181646090E+03  0.32773591862E+03 -0.10085724414E+03  0.39788553623E+03  0.00000000000E+00 0.  1.
         22    1    1    2    0    0 -0.42999303237E+03 -0.58026217937E+03 -0.17604657973E+04  0.19028499752E+04  0.00000000000E+00 0.  1.
<mgrwt>
<rscale>  0 0.17578151E+04</rscale>
<asrwt>0</asrwt>
<pdfrwt beam="1">  1        2 0.50679681E-01 0.17578151E+04</pdfrwt>
<pdfrwt beam="2">  1       -2 0.36076619E+00 0.17578151E+04</pdfrwt>
<totfact> 0.12512843E+00</totfact>
</mgrwt>
</event>
<event>
 6    1  0.1603085E-006  0.7301956E+03  0.7818608E-02  0.9666943E-01
         -2   -1    0    0    0  501 -0.00000000000E+00  0.00000000000E+00  0.55128837232E+02  0.55128837232E+02  0.00000000000E+00 0.  1.
          2   -1    0    0  501    0  0.00000000000E+00 -0.00000000000E+00 -0.24179070071E+04  0.24179070071E+04  0.00000000000E+00 0. -1.
         23    2    1    2    0    0  0.68167579907E+02 -0.30153526616E+03 -0.18212372854E+04  0.18494679930E+04  0.89756735737E+02 0.  0.
         11    1    3    3    0    0  0.37836507630E+02 -0.26378312807E+03 -0.13729393484E+04  0.13985619738E+04  0.00000000000E+00 0. -1.
        -11    1    3    3    0    0  0.30331072277E+02 -0.37752138092E+02 -0.44829793699E+03  0.45090601924E+03  0.00000000000E+00 0.  1.
         22    1    1    2    0    0 -0.68167579907E+02  0.30153526616E+03 -0.54154088440E+03  0.62356785129E+03  0.00000000000E+00 0.  1.
<mgrwt>
<rscale>  0 0.73019560E+03</rscale>
<asrwt>0</asrwt>
<pdfrwt beam="1">  1        2 0.37198574E+00 0.73019560E+03</pdfrwt>
<pdfrwt beam="2">  1       -2 0.84813585E-02 0.73019560E+03</pdfrwt>
<totfact> 0.36077287E+02</totfact>
</mgrwt>
</event>
<event>
 6    1  0.1603085E-006  0.9585259E+03  0.7818608E-02  0.9355240E-01
         -1   -1    0    0    0  501 -0.00000000000E+00  0.00000000000E+00  0.52577899769E+03  0.52577899769E+03  0.00000000000E+00 0.  1.
          1   -1    0    0  501    0  0.00000000000E+00 -0.00000000000E+00 -0.43686224329E+03  0.43686224329E+03  0.00000000000E+00 0. -1.
         23    2    1    2    0    0  0.45357534120E+03 -0.77916397279E+02  0.16476439684E+03  0.49621394764E+03  0.85319518605E+02 0.  0.
         13    1    3    3    0    0  0.23801289559E+03 -0.64293703300E+02  0.49769469197E+02  0.25151703484E+03  0.00000000000E+00 0.  1.
        -13    1    3    3    0    0  0.21556244561E+03 -0.13622693979E+02  0.11499492764E+03  0.24469691280E+03  0.00000000000E+00 0. -1.
         22    1    1    2    0    0 -0.45357534120E+03  0.77916397279E+02 -0.75847642435E+02  0.46642729334E+03  0.00000000000E+00 0. -1.
<mgrwt>
<rscale>  0 0.95852594E+03</rscale>
<asrwt>0</asrwt>
<pdfrwt beam="1">  1        1 0.67209576E-01 0.95852594E+03</pdfrwt>
<pdfrwt beam="2">  1       -1 0.80889077E-01 0.95852594E+03</pdfrwt>
<totfact> 0.81653322E+01</totfact>
</mgrwt>
</event>
<event>
 6    1  0.1603085E-006  0.3441791E+04  0.7818608E-02  0.8127725E-01
         -2   -1    0    0    0  501 -0.00000000000E+00  0.00000000000E+00  0.14225009336E+04  0.14225009336E+04  0.00000000000E+00 0.  1.
          2   -1    0    0  501    0  0.00000000000E+00 -0.00000000000E+00 -0.20818830353E+04  0.20818830353E+04  0.00000000000E+00 0. -1.
         23    2    1    2    0    0 -0.14669142542E+04 -0.76223912344E+03  0.15226599271E+03  0.16627492224E+04  0.93295946546E+02 0.  0.
         11    1    3    3    0    0 -0.15726210467E+03 -0.50387929285E+02  0.13101121634E+02  0.16565612687E+03  0.00000000000E+00 0. -1.
        -11    1    3    3    0    0 -0.13096521495E+04 -0.71185119415E+03  0.13916487107E+03  0.14970930955E+04  0.00000000000E+00 0.  1.
         22    1    1    2    0    0  0.14669142542E+04  0.76223912344E+03 -0.81164809438E+03  0.18416347465E+04  0.00000000000E+00 0. -1.
<mgrwt>
<rscale>  0 0.34417906E+04</rscale>
<asrwt>0</asrwt>
<pdfrwt beam="1">  1        2 0.32028970E+00 0.34417906E+04</pdfrwt>
<pdfrwt beam="2">  1       -2 0.21884630E+00 0.34417906E+04</pdfrwt>
<totfact> 0.49915602E-01</totfact>
</mgrwt>
</event>
<event>
 6    1  0.1603085E-006  0.5158280E+03  0.7818608E-02  0.1009728E+00
         -4   -1    0    0    0  501 -0.00000000000E+00  0.00000000000E+00  0.78908273573E+02  0.78908273573E+02  0.00000000000E+00 0.  1.
          4   -1    0    0  501    0  0.00000000000E+00 -0.00000000000E+00 -0.84299952796E+03  0.84299952796E+03  0.00000000000E+00 0. -1.
         23    2    1    2    0    0  0.11780002988E+03  0.20152451415E+03 -0.23468982167E+03  0.34332776921E+03  0.91135436958E+02 0.  0.
         13    1    3    3    0    0  0.90513180177E+02  0.11732312238E+03 -0.19848585673E+03  0.24769736808E+03  0.00000000000E+00 0. -1.
        -13    1    3    3    0    0  0.27286849700E+02  0.84201391769E+02 -0.36203964940E+02  0.95630401127E+02  0.00000000000E+00 0.  1.
         22    1    1    2    0    0 -0.11780002988E+03 -0.20152451415E+03 -0.52940143272E+03  0.57858003233E+03  0.00000000000E+00 0. -1.
<mgrwt>
<rscale>  0 0.51582802E+03</rscale>
<asrwt>0</asrwt>
<pdfrwt beam="1">  1        4 0.12969223E+00 0.51582802E+03</pdfrwt>
<pdfrwt beam="2">  1       -4 0.12139735E-01 0.51582802E+03</pdfrwt>
<totfact> 0.48359673E+01</totfact>
</mgrwt>
</event>
<event>
 6    1  0.1603085E-006  0.1381134E+04  0.7818608E-02  0.8967589E-01
         -2   -1    0    0    0  501 -0.00000000000E+00  0.00000000000E+00  0.15377475104E+03  0.15377475104E+03  0.00000000000E+00 0.  1.
          2   -1    0    0  501    0  0.00000000000E+00 -0.00000000000E+00 -0.31011752593E+04  0.31011752593E+04  0.00000000000E+00 0. -1.
         23    2    1    2    0    0  0.55391420017E+03  0.23158616005E+03 -0.69004605697E+03  0.91911992032E+03  0.90359152919E+02 0.  0.
         13    1    3    3    0    0  0.46781816842E+02  0.32735483822E+02 -0.10649733083E+03  0.12083803938E+03  0.00000000000E+00 0. -1.
        -13    1    3    3    0    0  0.50713238333E+03  0.19885067623E+03 -0.58354872615E+03  0.79828188094E+03  0.00000000000E+00 0.  1.
         22    1    1    2    0    0 -0.55391420017E+03 -0.23158616005E+03 -0.22573544513E+04  0.23358300901E+04  0.00000000000E+00 0. -1.
<mgrwt>
<rscale>  0 0.13811335E+04</rscale>
<asrwt>0</asrwt>
<pdfrwt beam="1">  1        2 0.47710387E+00 0.13811335E+04</pdfrwt>
<pdfrwt beam="2">  1       -2 0.23657655E-01 0.13811335E+04</pdfrwt>
<totfact> 0.23465965E+01</totfact>
</mgrwt>
</event>
<event>
 6    1  0.1603085E-006  0.2429854E+04  0.7818608E-02  0.8428410E-01
          1   -1    0    0  501    0  0.00000000000E+00  0.00000000000E+00  0.20706930409E+04  0.20706930409E+04  0.00000000000E+00 0. -1.
         -1   -1    0    0    0  501 -0.00000000000E+00 -0.00000000000E+00 -0.71282794097E+03  0.71282794097E+03  0.00000000000E+00 0.  1.
         23    2    1    2    0    0 -0.63364368562E+03 -0.64493220379E+03 -0.24691533809E+03  0.94157578124E+03  0.90310020624E+02 0.  0.
         13    1    3    3    0    0 -0.45134227083E+03 -0.49084899636E+03 -0.21577571702E+03  0.70085786199E+03  0.00000000000E+00 0. -1.
        -13    1    3    3    0    0 -0.18230141479E+03 -0.15408320743E+03 -0.31139621080E+02  0.24071791925E+03  0.00000000000E+00 0.  1.
         22    1    1    2    0    0  0.63364368562E+03  0.64493220379E+03  0.16047804380E+04  0.18419452006E+04  0.00000000000E+00 0. -1.
<mgrwt>
<rscale>  0 0.24298542E+04</rscale>
<asrwt>0</asrwt>
<pdfrwt beam="1">  1        1 0.31856816E+00 0.24298542E+04</pdfrwt>
<pdfrwt beam="2">  1       -1 0.10966584E+00 0.24298542E+04</pdfrwt>
<totfact> 0.18327648E+00</totfact>
</mgrwt>
</event>
<event>
 6    1  0.1603085E-006  0.4363456E+04  0.7818608E-02  0.7934987E-01
          1   -1    0    0  501    0  0.00000000000E+00  0.00000000000E+00  0.15306905722E+04  0.15306905722E+04  0.00000000000E+00 0. -1.
         -1   -1    0    0    0  501 -0.00000000000E+00 -0.00000000000E+00 -0.31096669577E+04  0.31096669577E+04  0.00000000000E+00 0.  1.
         23    2    1    2    0    0  0.18405692604E+04 -0.47660852286E+03 -0.19257561043E+04  0.27077150229E+04  0.91286283723E+02 0.  0.
         11    1    3    3    0    0  0.12208351873E+04 -0.35277103249E+03 -0.13204546413E+04  0.18326173676E+04  0.00000000000E+00 0.  1.
        -11    1    3    3    0    0  0.61973407308E+03 -0.12383749036E+03 -0.60530146291E+03  0.87509765533E+03  0.00000000000E+00 0. -1.
         22    1    1    2    0    0 -0.18405692604E+04  0.47660852286E+03  0.34677971879E+03  0.19326425070E+04  0.00000000000E+00 0. -1.
<mgrwt>
<rscale>  0 0.43634564E+04</rscale>
<asrwt>0</asrwt>
<pdfrwt beam="1">  1        1 0.23549086E+00 0.43634564E+04</pdfrwt>
<pdfrwt beam="2">  1       -1 0.47841030E+00 0.43634564E+04</pdfrwt>
<totfact> 0.98138039E-03</totfact>
</mgrwt>
</event>
<event>
 6    1  0.1603085E-006  0.2703408E+04  0.7818608E-02  0.8333900E-01
          2   -1    0    0  501    0  0.00000000000E+00  0.00000000000E+00  0.10542225365E+04  0.10542225365E+04  0.00000000000E+00 0. -1.
         -2   -1    0    0    0  501 -0.00000000000E+00 -0.00000000000E+00 -0.17331293471E+04  0.17331293471E+04  0.00000000000E+00 0.  1.
         23    2    1    2    0    0 -0.81023399224E+01 -0.11038127268E+04 -0.11415475906E+04  0.15904790101E+04  0.89578994905E+02 0.  0.
         13    1    3    3    0    0 -0.48166290372E+02 -0.49405921542E+03 -0.51293663988E+03  0.71380564330E+03  0.00000000000E+00 0.  1.
        -13    1    3    3    0    0  0.40063950449E+02 -0.60975351140E+03 -0.62861095071E+03  0.87667336685E+03  0.00000000000E+00 0. -1.
         22    1    1    2    0    0  0.81023399224E+01  0.11038127268E+04  0.46264078003E+03  0.11968728734E+04  0.00000000000E+00 0. -1.
<mgrwt>
<rscale>  0 0.27034082E+04</rscale>
<asrwt>0</asrwt>
<pdfrwt beam="1">  1        2 0.16218808E+00 0.27034082E+04</pdfrwt>
<pdfrwt beam="2">  1       -2 0.26663528E+00 0.27034082E+04</pdfrwt>
<totfact> 0.10368790E+00</totfact>
</mgrwt>
</event>
<event>
 6    1  0.1603085E-006  0.3745506E+04  0.7818608E-02  0.8057951E-01
         -1   -1    0    0    0  501 -0.00000000000E+00  0.00000000000E+00  0.13071734539E+04  0.13071734539E+04  0.00000000000E+00 0.  1.
          1   -1    0    0  501    0  0.00000000000E+00 -0.00000000000E+00 -0.26830437434E+04  0.26830437434E+04  0.00000000000E+00 0. -1.
         23    2    1    2    0    0  0.64140798271E+03  0.15898423186E+03  0.11771732282E+04  0.13530385174E+04  0.91083665150E+02 0.  0.
         13    1    3    3    0    0  0.36548314557E+03  0.45669672227E+02  0.62553223395E+03  0.72591612763E+03  0.00000000000E+00 0. -1.
        -13    1    3    3    0    0  0.27592483715E+03  0.11331455964E+03  0.55164099426E+03  0.62712238976E+03  0.00000000000E+00 0.  1.
         22    1    1    2    0    0 -0.64140798271E+03 -0.15898423186E+03 -0.25530435178E+04  0.26371786799E+04  0.00000000000E+00 0. -1.
<mgrwt>
<rscale>  0 0.37455059E+04</rscale>
<asrwt>0</asrwt>
<pdfrwt beam="1">  1        1 0.41277596E+00 0.37455059E+04</pdfrwt>
<pdfrwt beam="2">  1       -1 0.20110361E+00 0.37455059E+04</pdfrwt>
<totfact> 0.11922011E-01</totfact>
</mgrwt>
</event>
<event>
 6    1  0.1603085E-006  0.1554564E+04  0.7818608E-02  0.8848958E-01
         -2   -1    0    0    0  501 -0.00000000000E+00  0.00000000000E+00  0.26330236408E+03  0.26330236408E+03  0.00000000000E+00 0.  1.
          2   -1    0    0  501    0  0.00000000000E+00 -0.00000000000E+00 -0.22945773035E+04  0.22945773035E+04  0.00000000000E+00 0. -1.
         23    2    1    2    0    0  0.40820491242E+03 -0.49820690436E+03 -0.17276034893E+04  0.18457998127E+04  0.86728093877E+02 0.  0.
         13    1    3    3    0    0  0.10733677755E+03 -0.17747708773E+03 -0.47744904721E+03  0.52055440942E+03  0.00000000000E+00 0. -1.
        -13    1    3    3    0    0  0.30086813487E+03 -0.32072981663E+03 -0.12501544421E+04  0.13252454033E+04  0.00000000000E+00 0.  1.
         22    1    1    2    0    0 -0.40820491242E+03  0.49820690436E+03 -0.30367145011E+03  0.71207985485E+03  0.00000000000E+00 0.  1.
<mgrwt>
<rscale>  0 0.15545644E+04</rscale>
<asrwt>0</asrwt>
<pdfrwt beam="1">  1        2 0.35301190E+00 0.15545644E+04</pdfrwt>
<pdfrwt beam="2">  1       -2 0.40508055E-01 0.15545644E+04</pdfrwt>
<totfact> 0.25381202E+01</totfact>
</mgrwt>
</event>
<event>
 6    1  0.1603085E-006  0.9121104E+03  0.7818608E-02  0.9410568E-01
         -1   -1    0    0    0  501 -0.00000000000E+00  0.00000000000E+00  0.28072970909E+03  0.28072970909E+03  0.00000000000E+00 0.  1.
          1   -1    0    0  501    0  0.00000000000E+00 -0.00000000000E+00 -0.74087763555E+03  0.74087763555E+03  0.00000000000E+00 0. -1.
         23    2    1    2    0    0  0.33264583694E+03  0.16915506879E+03 -0.51606127237E+03  0.64425738454E+03  0.97373767280E+02 0.  0.
         13    1    3    3    0    0  0.12389978748E+03  0.80351006372E+02 -0.28186746166E+03  0.31820859119E+03  0.00000000000E+00 0.  1.
        -13    1    3    3    0    0  0.20874604946E+03  0.88804062422E+02 -0.23419381071E+03  0.32604879335E+03  0.00000000000E+00 0. -1.
         22    1    1    2    0    0 -0.33264583694E+03 -0.16915506879E+03  0.55913345913E+02  0.37734996010E+03  0.00000000000E+00 0.  1.
<mgrwt>
<rscale>  0 0.91211044E+03</rscale>
<asrwt>0</asrwt>
<pdfrwt beam="1">  1        1 0.11398117E+00 0.91211044E+03</pdfrwt>
<pdfrwt beam="2">  1       -1 0.43189187E-01 0.91211044E+03</pdfrwt>
<totfact> 0.13283926E+02</totfact>
</mgrwt>
</event>
<event>
 6    1  0.1603085E-006  0.4660675E+04  0.7818608E-02  0.7883096E-01
          2   -1    0    0  501    0  0.00000000000E+00  0.00000000000E+00  0.16533459850E+04  0.16533459850E+04  0.00000000000E+00 0. -1.
         -2   -1    0    0    0  501 -0.00000000000E+00 -0.00000000000E+00 -0.32845350425E+04  0.32845350425E+04  0.00000000000E+00 0.  1.
         23    2    1    2    0    0  0.15751955344E+04  0.11988674952E+04 -0.21167716370E+04  0.28996674262E+04  0.93940282778E+02 0.  0.
         13    1    3    3    0    0  0.36635863938E+03  0.32813009160E+03 -0.51033223967E+03  0.70875031182E+03  0.00000000000E+00 0.  1.
        -13    1    3    3    0    0  0.12088368950E+04  0.87073740364E+03 -0.16064393973E+04  0.21909171144E+04  0.00000000000E+00 0. -1.
         22    1    1    2    0    0 -0.15751955344E+04 -0.11988674952E+04  0.48558257955E+03  0.20382136013E+04  0.00000000000E+00 0. -1.
<mgrwt>
<rscale>  0 0.46606750E+04</rscale>
<asrwt>0</asrwt>
<pdfrwt beam="1">  1        2 0.25436092E+00 0.46606750E+04</pdfrwt>
<pdfrwt beam="2">  1       -2 0.50531308E+00 0.46606750E+04</pdfrwt>
<totfact> 0.11975597E-02</totfact>
</mgrwt>
</event>
<event>
 6    1  0.1603085E-006  0.2465946E+04  0.7818608E-02  0.8415219E-01
         -2   -1    0    0    0  501 -0.00000000000E+00  0.00000000000E+00  0.18891433535E+04  0.18891433535E+04  0.00000000000E+00 0.  1.
          2   -1    0    0  501    0  0.00000000000E+00 -0.00000000000E+00 -0.80471548812E+03  0.80471548812E+03  0.00000000000E+00 0. -1.
         23    2    1    2    0    0  0.90268525737E+03  0.83250758603E+03  0.44528755797E+03  0.13095142721E+04  0.92935809756E+02 0.  0.
         11    1    3    3    0    0  0.26169250645E+03  0.18812182008E+03  0.12900735741E+03  0.34715369130E+03  0.00000000000E+00 0. -1.
        -11    1    3    3    0    0  0.64099275093E+03  0.64438576596E+03  0.31628020056E+03  0.96236058075E+03  0.00000000000E+00 0.  1.
         22    1    1    2    0    0 -0.90268525737E+03 -0.83250758603E+03  0.63914030736E+03  0.13843445695E+04  0.00000000000E+00 0. -1.
<mgrwt>
<rscale>  0 0.24659464E+04</rscale>
<asrwt>0</asrwt>
<pdfrwt beam="1">  1        2 0.12380238E+00 0.24659464E+04</pdfrwt>
<pdfrwt beam="2">  1       -2 0.29063744E+00 0.24659464E+04</pdfrwt>
<totfact> 0.11086021E+00</totfact>
</mgrwt>
</event>
<event>
 6    1  0.1603085E-006  0.4059345E+04  0.7818608E-02  0.7992681E-01
         -2   -1    0    0    0  501 -0.00000000000E+00  0.00000000000E+00  0.12766551583E+04  0.12766551583E+04  0.00000000000E+00 0.  1.
          2   -1    0    0  501    0  0.00000000000E+00 -0.00000000000E+00 -0.32268465780E+04  0.32268465780E+04  0.00000000000E+00 0. -1.
         23    2    1    2    0    0  0.84822121825E+03 -0.15554662651E+03 -0.30127441337E+04  0.31350382702E+04  0.90353485130E+02 0.  0.
         11    1    3    3    0    0  0.58304017793E+03 -0.64463132084E+02 -0.20611175324E+04  0.21429644950E+04  0.00000000000E+00 0.  1.
        -11    1    3    3    0    0  0.26518104032E+03 -0.91083494427E+02 -0.95162660132E+03  0.99207377520E+03  0.00000000000E+00 0. -1.
         22    1    1    2    0    0 -0.84822121825E+03  0.15554662651E+03  0.10625527140E+04  0.13684634662E+04  0.00000000000E+00 0.  1.
<mgrwt>
<rscale>  0 0.40593449E+04</rscale>
<asrwt>0</asrwt>
<pdfrwt beam="1">  1        2 0.49643792E+00 0.40593449E+04</pdfrwt>
<pdfrwt beam="2">  1       -2 0.19640849E+00 0.40593449E+04</pdfrwt>
<totfact> 0.13718319E-01</totfact>
</mgrwt>
</event>
<event>
 6    1  0.1603085E-006  0.9026112E+03  0.7818608E-02  0.9422323E-01
          1   -1    0    0  501    0  0.00000000000E+00  0.00000000000E+00  0.13109754831E+04  0.13109754831E+04  0.00000000000E+00 0. -1.
         -1   -1    0    0    0  501 -0.00000000000E+00 -0.00000000000E+00 -0.15536273557E+03  0.15536273557E+03  0.00000000000E+00 0.  1.
         23    2    1    2    0    0  0.34558764218E+03  0.14353999655E+03  0.18725647588E+03  0.42819159228E+03  0.90821269013E+02 0.  0.
         13    1    3    3    0    0  0.20840145098E+03  0.56783910513E+02  0.66902113584E+02  0.22612268808E+03  0.00000000000E+00 0. -1.
        -13    1    3    3    0    0  0.13718619120E+03  0.86756086037E+02  0.12035436230E+03  0.20206890420E+03  0.00000000000E+00 0.  1.
         22    1    1    2    0    0 -0.34558764218E+03 -0.14353999655E+03  0.96835627161E+03  0.10381466264E+04  0.00000000000E+00 0. -1.
<mgrwt>
<rscale>  0 0.90261118E+03</rscale>
<asrwt>0</asrwt>
<pdfrwt beam="1">  1        1 0.20168853E+00 0.90261118E+03</pdfrwt>
<pdfrwt beam="2">  1       -1 0.23901960E-01 0.90261118E+03</pdfrwt>
<totfact> 0.13533844E+02</totfact>
</mgrwt>
</event>
<event>
 6    1  0.1603085E-006  0.3572184E+04  0.7818608E-02  0.8096893E-01
         -2   -1    0    0    0  501 -0.00000000000E+00  0.00000000000E+00  0.12435291150E+04  0.12435291150E+04  0.00000000000E+00 0.  1.
          2   -1    0    0  501    0  0.00000000000E+00 -0.00000000000E+00 -0.25653805890E+04  0.25653805890E+04  0.00000000000E+00 0. -1.
         23    2    1    2    0    0  0.43071729599E+03  0.39979615868E+03  0.11357737381E+04  0.12819993295E+04  0.90476179967E+02 0.  0.
         11    1    3    3    0    0  0.29757924297E+03  0.32900866060E+03  0.86137260056E+03  0.96889775600E+03  0.00000000000E+00 0. -1.
        -11    1    3    3    0    0  0.13313805303E+03  0.70787498081E+02  0.27440113752E+03  0.31310157349E+03  0.00000000000E+00 0.  1.
         22    1    1    2    0    0 -0.43071729599E+03 -0.39979615868E+03 -0.24576252121E+04  0.25269103745E+04  0.00000000000E+00 0. -1.
<mgrwt>
<rscale>  0 0.35721845E+04</rscale>
<asrwt>0</asrwt>
<pdfrwt beam="1">  1        2 0.39467394E+00 0.35721845E+04</pdfrwt>
<pdfrwt beam="2">  1       -2 0.19131217E+00 0.35721845E+04</pdfrwt>
<totfact> 0.39560924E-01</totfact>
</mgrwt>
</event>
<event>
 6    1  0.1603085E-006  0.1504407E+04  0.7818608E-02  0.8881528E-01
          1   -1    0    0  501    0  0.00000000000E+00  0.00000000000E+00  0.13579362486E+04  0.13579362486E+04  0.00000000000E+00 0. -1.
         -1   -1    0    0    0  501 -0.00000000000E+00 -0.00000000000E+00 -0.41666912805E+03  0.41666912805E+03  0.00000000000E+00 0.  1.
         23    2    1    2    0    0  0.42030510277E+03 -0.55611521317E+03  0.79700716611E+03  0.10627546590E+04  0.91140181483E+02 0.  0.
         13    1    3    3    0    0  0.10311543853E+03 -0.10363525250E+03  0.12200804207E+03  0.19041801794E+03  0.00000000000E+00 0.  1.
        -13    1    3    3    0    0  0.31718966424E+03 -0.45247996067E+03  0.67499912404E+03  0.87233664107E+03  0.00000000000E+00 0. -1.
         22    1    1    2    0    0 -0.42030510277E+03  0.55611521317E+03  0.14425995444E+03  0.71185071763E+03  0.00000000000E+00 0.  1.
<mgrwt>
<rscale>  0 0.15044070E+04</rscale>
<asrwt>0</asrwt>
<pdfrwt beam="1">  1        1 0.20891327E+00 0.15044070E+04</pdfrwt>
<pdfrwt beam="2">  1       -1 0.64102944E-01 0.15044070E+04</pdfrwt>
<totfact> 0.19630857E+01</totfact>
</mgrwt>
</event>
<event>
 6    1  0.1603085E-006  0.5291835E+04  0.7818608E-02  0.7785001E-01
         -2   -1    0    0    0  501 -0.00000000000E+00  0.00000000000E+00  0.24076403959E+04  0.24076403959E+04  0.00000000000E+00 0.  1.
          2   -1    0    0  501    0  0.00000000000E+00 -0.00000000000E+00 -0.29077764691E+04  0.29077764691E+04  0.00000000000E+00 0. -1.
         23    2    1    2    0    0  0.47087714932E+03  0.10717558392E+04 -0.26327004376E+04  0.28826783594E+04  0.91307509092E+02 0.  0.
         11    1    3    3    0    0  0.24386284058E+03  0.64825860153E+03 -0.14932636489E+04  0.16460694471E+04  0.00000000000E+00 0. -1.
        -11    1    3    3    0    0  0.22701430874E+03  0.42349723765E+03 -0.11394367886E+04  0.12366089123E+04  0.00000000000E+00 0.  1.
         22    1    1    2    0    0 -0.47087714932E+03 -0.10717558392E+04  0.21325643644E+04  0.24327385056E+04  0.00000000000E+00 0.  1.
<mgrwt>
<rscale>  0 0.52918353E+04</rscale>
<asrwt>0</asrwt>
<pdfrwt beam="1">  1        2 0.44735023E+00 0.52918353E+04</pdfrwt>
<pdfrwt beam="2">  1       -2 0.37040621E+00 0.52918353E+04</pdfrwt>
<totfact> 0.16313320E-02</totfact>
</mgrwt>
</event>
<event>
 6    1  0.1603085E-006  0.2596247E+04  0.7818608E-02  0.8369477E-01
          2   -1    0    0  501    0  0.00000000000E+00  0.00000000000E+00  0.14344817886E+04  0.14344817886E+04  0.00000000000E+00 0. -1.
         -2   -1    0    0    0  501 -0.00000000000E+00 -0.00000000000E+00 -0.11747270363E+04  0.11747270363E+04  0.00000000000E+00 0.  1.
         23    2    1    2    0    0 -0.67589755715E+03  0.55525339081E+03 -0.83181771614E+03  0.12103970830E+04  0.89423429604E+02 0.  0.
         11    1    3    3    0    0 -0.11505482331E+03  0.11686236615E+03 -0.11596132064E+03  0.20085181820E+03  0.00000000000E+00 0.  1.
        -11    1    3    3    0    0 -0.56084273384E+03  0.43839102466E+03 -0.71585639550E+03  0.10095452648E+04  0.00000000000E+00 0. -1.
         22    1    1    2    0    0  0.67589755715E+03 -0.55525339081E+03  0.10915724684E+04  0.13988117420E+04  0.00000000000E+00 0. -1.
<mgrwt>
<rscale>  0 0.25962469E+04</rscale>
<asrwt>0</asrwt>
<pdfrwt beam="1">  1        2 0.22068950E+00 0.25962469E+04</pdfrwt>
<pdfrwt beam="2">  1       -2 0.18072724E+00 0.25962469E+04</pdfrwt>
<totfact> 0.21934914E+00</totfact>
</mgrwt>
</event>
<event>
 6    1  0.1603085E-006  0.2723371E+04  0.7818608E-02  0.8327462E-01
         -1   -1    0    0    0  501 -0.00000000000E+00  0.00000000000E+00  0.19039614108E+04  0.19039614108E+04  0.00000000000E+00 0.  1.
          1   -1    0    0  501    0  0.00000000000E+00 -0.00000000000E+00 -0.97385752489E+03  0.97385752489E+03  0.00000000000E+00 0. -1.
         23    2    1    2    0    0 -0.78577746932E+03 -0.60337129652E+03 -0.51908586953E+03  0.11223548660E+04  0.93419229707E+02 0.  0.
         13    1    3    3    0    0 -0.57142157255E+03 -0.38527006878E+03 -0.36782780440E+03  0.78118687468E+03  0.00000000000E+00 0. -1.
        -13    1    3    3    0    0 -0.21435589677E+03 -0.21810122774E+03 -0.15125806513E+03  0.34116799130E+03  0.00000000000E+00 0.  1.
         22    1    1    2    0    0  0.78577746932E+03  0.60337129652E+03  0.14491897555E+04  0.17554640698E+04  0.00000000000E+00 0.  1.
<mgrwt>
<rscale>  0 0.27233708E+04</rscale>
<asrwt>0</asrwt>
<pdfrwt beam="1">  1        1 0.14982423E+00 0.27233708E+04</pdfrwt>
<pdfrwt beam="2">  1       -1 0.29291714E+00 0.27233708E+04</pdfrwt>
<totfact> 0.50746701E-01</totfact>
</mgrwt>
</event>
<event>
 6    1  0.1603085E-006  0.5177576E+04  0.7818608E-02  0.7801683E-01
          2   -1    0    0  501    0  0.00000000000E+00  0.00000000000E+00  0.36695740184E+04  0.36695740184E+04  0.00000000000E+00 0.  1.
         -2   -1    0    0    0  501 -0.00000000000E+00 -0.00000000000E+00 -0.18263218417E+04  0.18263218417E+04  0.00000000000E+00 0. -1.
         23    2    1    2    0    0  0.21620283593E+04 -0.67403824441E+03 -0.40773450706E+03  0.23028353797E+04  0.90050966454E+02 0.  0.
         11    1    3    3    0    0  0.13020550675E+04 -0.40933049512E+03 -0.29032229002E+03  0.13954160258E+04  0.00000000000E+00 0. -1.
        -11    1    3    3    0    0  0.85997329180E+03 -0.26470774929E+03 -0.11741221704E+03  0.90741935391E+03  0.00000000000E+00 0.  1.
         22    1    1    2    0    0 -0.21620283593E+04  0.67403824441E+03  0.22509866838E+04  0.31930604804E+04  0.00000000000E+00 0.  1.
<mgrwt>
<rscale>  0 0.51775760E+04</rscale>
<asrwt>0</asrwt>
<pdfrwt beam="1">  1        2 0.56454985E+00 0.51775760E+04</pdfrwt>
<pdfrwt beam="2">  1       -2 0.28097259E+00 0.51775760E+04</pdfrwt>
<totfact> 0.18276239E-02</totfact>
</mgrwt>
</event>
<event>
 6    1  0.1603085E-006  0.1520083E+04  0.7818608E-02  0.8871207E-01
          2   -1    0    0  501    0  0.00000000000E+00  0.00000000000E+00  0.17810658108E+04  0.17810658108E+04  0.00000000000E+00 0. -1.
         -2   -1    0    0    0  501 -0.00000000000E+00 -0.00000000000E+00 -0.32433549728E+03  0.32433549728E+03  0.00000000000E+00 0.  1.
         23    2    1    2    0    0  0.42472224899E+01  0.43025095654E+03 -0.13223634211E+03  0.45920904797E+03  0.90843684794E+02 0.  0.
         13    1    3    3    0    0 -0.33795670188E+02  0.31708169624E+03 -0.79194896340E+02  0.32856472881E+03  0.00000000000E+00 0. -1.
        -13    1    3    3    0    0  0.38042892678E+02  0.11316926029E+03 -0.53041445774E+02  0.13064431916E+03  0.00000000000E+00 0.  1.
         22    1    1    2    0    0 -0.42472224899E+01 -0.43025095654E+03  0.15889666556E+04  0.16461922601E+04  0.00000000000E+00 0. -1.
<mgrwt>
<rscale>  0 0.15200827E+04</rscale>
<asrwt>0</asrwt>
<pdfrwt beam="1">  1        2 0.27401012E+00 0.15200827E+04</pdfrwt>
<pdfrwt beam="2">  1       -2 0.49897770E-01 0.15200827E+04</pdfrwt>
<totfact> 0.32407339E+01</totfact>
</mgrwt>
</event>
<event>
 6    1  0.1603085E-006  0.9548441E+03  0.7818608E-02  0.9359506E-01
          1   -1    0    0  501    0  0.00000000000E+00  0.00000000000E+00  0.48904508096E+03  0.48904508096E+03  0.00000000000E+00 0. -1.
         -1   -1    0    0    0  501 -0.00000000000E+00 -0.00000000000E+00 -0.46607529356E+03  0.46607529356E+03  0.00000000000E+00 0.  1.
         23    2    1    2    0    0  0.25766946227E+03 -0.14261467635E+03  0.37847158177E+03  0.49347763007E+03  0.11639130327E+03 0.  0.
         11    1    3    3    0    0  0.41026602974E+02  0.16472926224E+02  0.30156926729E+02  0.53516162789E+02  0.00000000000E+00 0. -1.
        -11    1    3    3    0    0  0.21664285930E+03 -0.15908760258E+03  0.34831465504E+03  0.43996146729E+03  0.00000000000E+00 0.  1.
         22    1    1    2    0    0 -0.25766946227E+03  0.14261467635E+03 -0.35550179437E+03  0.46164274445E+03  0.00000000000E+00 0.  1.
<mgrwt>
<rscale>  0 0.95484413E+03</rscale>
<asrwt>0</asrwt>
<pdfrwt beam="1">  1        1 0.75237705E-01 0.95484413E+03</pdfrwt>
<pdfrwt beam="2">  1       -1 0.71703891E-01 0.95484413E+03</pdfrwt>
<totfact> 0.90227841E+01</totfact>
</mgrwt>
</event>
<event>
 6    1  0.1603085E-006  0.2115626E+04  0.7818608E-02  0.8554391E-01
         -2   -1    0    0    0  501 -0.00000000000E+00  0.00000000000E+00  0.93265676752E+03  0.93265676752E+03  0.00000000000E+00 0.  1.
          2   -1    0    0  501    0  0.00000000000E+00 -0.00000000000E+00 -0.11997641843E+04  0.11997641843E+04  0.00000000000E+00 0. -1.
         23    2    1    2    0    0  0.26424632091E+03 -0.14423030093E+03 -0.11538310478E+04  0.11959876676E+04  0.91825466918E+02 0.  0.
         13    1    3    3    0    0  0.21952942108E+03 -0.92003145594E+02 -0.76672552110E+03  0.80282362336E+03  0.00000000000E+00 0.  1.
        -13    1    3    3    0    0  0.44716899831E+02 -0.52227155339E+02 -0.38710552671E+03  0.39316404426E+03  0.00000000000E+00 0. -1.
         22    1    1    2    0    0 -0.26424632091E+03  0.14423030093E+03  0.88672363106E+03  0.93643328417E+03  0.00000000000E+00 0.  1.
<mgrwt>
<rscale>  0 0.21156259E+04</rscale>
<asrwt>0</asrwt>
<pdfrwt beam="1">  1        2 0.18457911E+00 0.21156259E+04</pdfrwt>
<pdfrwt beam="2">  1       -2 0.14348566E+00 0.21156259E+04</pdfrwt>
<totfact> 0.58743204E+00</totfact>
</mgrwt>
</event>
<event>
 6    1  0.1603085E-006  0.1765064E+04  0.7818608E-02  0.8725102E-01
         -2   -1    0    0    0  501 -0.00000000000E+00  0.00000000000E+00  0.36483336815E+03  0.36483336815E+03  0.00000000000E+00 0.  1.
          2   -1    0    0  501    0  0.00000000000E+00 -0.00000000000E+00 -0.21348453024E+04  0.21348453024E+04  0.00000000000E+00 0. -1.
         23    2    1    2    0    0 -0.36188916925E+03 -0.76162062728E+03 -0.52996270535E+03  0.10000947813E+04  0.91100778725E+02 0.  0.
         11    1    3    3    0    0 -0.37837504268E+02 -0.11379492351E+03 -0.11042225352E+03  0.16301544534E+03  0.00000000000E+00 0. -1.
        -11    1    3    3    0    0 -0.32405166498E+03 -0.64782570377E+03 -0.41954045183E+03  0.83707933601E+03  0.00000000000E+00 0.  1.
         22    1    1    2    0    0  0.36188916925E+03  0.76162062728E+03 -0.12400492289E+04  0.14995838892E+04  0.00000000000E+00 0. -1.
<mgrwt>
<rscale>  0 0.17650641E+04</rscale>
<asrwt>0</asrwt>
<pdfrwt beam="1">  1        2 0.32843775E+00 0.17650641E+04</pdfrwt>
<pdfrwt beam="2">  1       -2 0.56128209E-01 0.17650641E+04</pdfrwt>
<totfact> 0.15852535E+01</totfact>
</mgrwt>
</event>
<event>
 6    1  0.1603085E-006  0.1411550E+04  0.7818608E-02  0.8945501E-01
         -1   -1    0    0    0  501 -0.00000000000E+00  0.00000000000E+00  0.24790198962E+03  0.24790198962E+03  0.00000000000E+00 0.  1.
          1   -1    0    0  501    0  0.00000000000E+00 -0.00000000000E+00 -0.20093347103E+04  0.20093347103E+04  0.00000000000E+00 0. -1.
         23    2    1    2    0    0  0.10874812034E+03 -0.56040593341E+03 -0.15401234186E+04  0.16449795880E+04  0.89981868744E+02 0.  0.
         11    1    3    3    0    0  0.21819292732E+02 -0.23571326060E+03 -0.74573654578E+03  0.78240642793E+03  0.00000000000E+00 0. -1.
        -11    1    3    3    0    0  0.86928827605E+02 -0.32469267281E+03 -0.79438687278E+03  0.86257316008E+03  0.00000000000E+00 0.  1.
         22    1    1    2    0    0 -0.10874812034E+03  0.56040593341E+03 -0.22130930212E+03  0.61225711191E+03  0.00000000000E+00 0.  1.
<mgrwt>
<rscale>  0 0.14115496E+04</rscale>
<asrwt>0</asrwt>
<pdfrwt beam="1">  1        1 0.30912840E+00 0.14115496E+04</pdfrwt>
<pdfrwt beam="2">  1       -1 0.38138769E-01 0.14115496E+04</pdfrwt>
<totfact> 0.19027355E+01</totfact>
</mgrwt>
</event>
<event>
 6    1  0.1603085E-006  0.1504664E+04  0.7818608E-02  0.8881357E-01
         -2   -1    0    0    0  501 -0.00000000000E+00  0.00000000000E+00  0.67452052641E+03  0.67452052641E+03  0.00000000000E+00 0.  1.
          2   -1    0    0  501    0  0.00000000000E+00 -0.00000000000E+00 -0.83911950759E+03  0.83911950759E+03  0.00000000000E+00 0. -1.
         23    2    1    2    0    0 -0.25543727540E+03  0.51972632433E+03  0.39626478295E+03  0.70745654633E+03  0.90029622134E+02 0.  0.
         11    1    3    3    0    0 -0.80395357209E+02  0.26547376890E+03  0.18689069296E+03  0.33446654025E+03  0.00000000000E+00 0. -1.
        -11    1    3    3    0    0 -0.17504191820E+03  0.25425255543E+03  0.20937409000E+03  0.37299000608E+03  0.00000000000E+00 0.  1.
         22    1    1    2    0    0  0.25543727540E+03 -0.51972632433E+03 -0.56086376414E+03  0.80618348767E+03  0.00000000000E+00 0. -1.
<mgrwt>
<rscale>  0 0.15046639E+04</rscale>
<asrwt>0</asrwt>
<pdfrwt beam="1">  1        2 0.12909531E+00 0.15046639E+04</pdfrwt>
<pdfrwt beam="2">  1       -2 0.10377239E+00 0.15046639E+04</pdfrwt>
<totfact> 0.23594177E+01</totfact>
</mgrwt>
</event>
<event>
 6    1  0.1603085E-006  0.3209944E+04  0.7818608E-02  0.8186196E-01
          2   -1    0    0  501    0  0.00000000000E+00  0.00000000000E+00  0.15520482101E+04  0.15520482101E+04  0.00000000000E+00 0.  1.
         -2   -1    0    0    0  501 -0.00000000000E+00 -0.00000000000E+00 -0.16597007768E+04  0.16597007768E+04  0.00000000000E+00 0. -1.
         23    2    1    2    0    0  0.22073536111E+03  0.14921456454E+04  0.49111359014E+03  0.15888677104E+04  0.89918384259E+02 0.  0.
         13    1    3    3    0    0  0.86436745332E+02  0.88647434772E+03  0.28840111869E+03  0.93620686035E+03  0.00000000000E+00 0. -1.
        -13    1    3    3    0    0  0.13429861578E+03  0.60567129773E+03  0.20271247145E+03  0.65266085004E+03  0.00000000000E+00 0.  1.
         22    1    1    2    0    0 -0.22073536111E+03 -0.14921456454E+04 -0.59876615690E+03  0.16228812765E+04  0.00000000000E+00 0. -1.
<mgrwt>
<rscale>  0 0.32099443E+04</rscale>
<asrwt>0</asrwt>
<pdfrwt beam="1">  1        2 0.23877665E+00 0.32099443E+04</pdfrwt>
<pdfrwt beam="2">  1       -2 0.25533858E+00 0.32099443E+04</pdfrwt>
<totfact> 0.59483185E-01</totfact>
</mgrwt>
</event>
<event>
 6    1  0.1603085E-006  0.1492675E+04  0.7818608E-02  0.8889338E-01
         -1   -1    0    0    0  501 -0.00000000000E+00  0.00000000000E+00  0.14808436713E+04  0.14808436713E+04  0.00000000000E+00 0.  1.
          1   -1    0    0  501    0  0.00000000000E+00 -0.00000000000E+00 -0.37615039632E+03  0.37615039632E+03  0.00000000000E+00 0. -1.
         23    2    1    2    0    0  0.35042404844E+03  0.86794484372E+02  0.13630557914E+04  0.14130554613E+04  0.92056233696E+02 0.  0.
         13    1    3    3    0    0  0.22659083023E+03  0.60668436766E+02  0.70681912290E+03  0.74472634978E+03  0.00000000000E+00 0.  1.
        -13    1    3    3    0    0  0.12383321821E+03  0.26126047606E+02  0.65623666847E+03  0.66832911155E+03  0.00000000000E+00 0. -1.
         22    1    1    2    0    0 -0.35042404844E+03 -0.86794484372E+02 -0.25836251641E+03  0.44393860626E+03  0.00000000000E+00 0. -1.
<mgrwt>
<rscale>  0 0.14926754E+04</rscale>
<asrwt>0</asrwt>
<pdfrwt beam="1">  1        1 0.57869292E-01 0.14926754E+04</pdfrwt>
<pdfrwt beam="2">  1       -1 0.22782210E+00 0.14926754E+04</pdfrwt>
<totfact> 0.61510775E+00</totfact>
</mgrwt>
</event>
<event>
 6    1  0.1603085E-006  0.1733613E+04  0.7818608E-02  0.8742422E-01
          2   -1    0    0  501    0  0.00000000000E+00  0.00000000000E+00  0.12734949646E+04  0.12734949646E+04  0.00000000000E+00 0. -1.
         -2   -1    0    0    0  501 -0.00000000000E+00 -0.00000000000E+00 -0.58999363225E+03  0.58999363225E+03  0.00000000000E+00 0.  1.
         23    2    1    2    0    0 -0.43432966416E+03  0.68027266560E+03  0.67494101045E+03  0.10563415001E+04  0.94333665424E+02 0.  0.
         11    1    3    3    0    0 -0.18333185142E+03  0.37345862062E+03  0.33506387136E+03  0.53418134276E+03  0.00000000000E+00 0.  1.
        -11    1    3    3    0    0 -0.25099781274E+03  0.30681404497E+03  0.33987713909E+03  0.52216015730E+03  0.00000000000E+00 0. -1.
         22    1    1    2    0    0  0.43432966416E+03 -0.68027266560E+03  0.85603218782E+01  0.80714709678E+03  0.00000000000E+00 0.  1.
<mgrwt>
<rscale>  0 0.17336135E+04</rscale>
<asrwt>0</asrwt>
<pdfrwt beam="1">  1        2 0.19592230E+00 0.17336135E+04</pdfrwt>
<pdfrwt beam="2">  1       -2 0.90768251E-01 0.17336135E+04</pdfrwt>
<totfact> 0.16851570E+01</totfact>
</mgrwt>
</event>
<event>
 6    1  0.1603085E-006  0.6973264E+03  0.7818608E-02  0.9721815E-01
          2   -1    0    0  501    0  0.00000000000E+00  0.00000000000E+00  0.94670808794E+03  0.94670808794E+03  0.00000000000E+00 0. -1.
         -2   -1    0    0    0  501 -0.00000000000E+00 -0.00000000000E+00 -0.12840920846E+03  0.12840920846E+03  0.00000000000E+00 0.  1.
         23    2    1    2    0    0  0.26660065627E+03  0.11128757691E+03  0.13098111562E+03  0.32955271622E+03  0.89376201660E+02 0.  0.
         11    1    3    3    0    0  0.10650599476E+03  0.97051561305E+01  0.78975660972E+02  0.13294687661E+03  0.00000000000E+00 0. -1.
        -11    1    3    3    0    0  0.16009466151E+03  0.10158242078E+03  0.52005454645E+02  0.19660583961E+03  0.00000000000E+00 0.  1.
         22    1    1    2    0    0 -0.26660065627E+03 -0.11128757691E+03  0.68731776386E+03  0.74556458018E+03  0.00000000000E+00 0. -1.
<mgrwt>
<rscale>  0 0.69732643E+03</rscale>
<asrwt>0</asrwt>
<pdfrwt beam="1">  1        2 0.14564739E+00 0.69732643E+03</pdfrwt>
<pdfrwt beam="2">  1       -2 0.19755263E-01 0.69732643E+03</pdfrwt>
<totfact> 0.59892430E+02</totfact>
</mgrwt>
</event>
<event>
 6    1  0.1603085E-006  0.1825147E+04  0.7818608E-02  0.8693040E-01
          2   -1    0    0  501    0  0.00000000000E+00  0.00000000000E+00  0.86772527179E+03  0.86772527179E+03  0.00000000000E+00 0. -1.
         -2   -1    0    0    0  501 -0.00000000000E+00 -0.00000000000E+00 -0.95973967307E+03  0.95973967307E+03  0.00000000000E+00 0.  1.
         23    2    1    2    0    0  0.65426103447E+00  0.86496073618E+03  0.23770500765E+03  0.90179092458E+03  0.92551055181E+02 0.  0.
         11    1    3    3    0    0 -0.34691755715E+02  0.28750801289E+03  0.10658334617E+03  0.30858448611E+03  0.00000000000E+00 0.  1.
        -11    1    3    3    0    0  0.35346016749E+02  0.57745272329E+03  0.13112166149E+03  0.59320643847E+03  0.00000000000E+00 0. -1.
         22    1    1    2    0    0 -0.65426103447E+00 -0.86496073618E+03 -0.32971940893E+03  0.92567402027E+03  0.00000000000E+00 0.  1.
<mgrwt>
<rscale>  0 0.18251470E+04</rscale>
<asrwt>0</asrwt>
<pdfrwt beam="1">  1        2 0.13349620E+00 0.18251470E+04</pdfrwt>
<pdfrwt beam="2">  1       -2 0.14765226E+00 0.18251470E+04</pdfrwt>
<totfact> 0.90781124E+00</totfact>
</mgrwt>
</event>
<event>
 6    1  0.1603085E-006  0.2215181E+04  0.7818608E-02  0.8512136E-01
          2   -1    0    0  501    0  0.00000000000E+00  0.00000000000E+00  0.73037884799E+03  0.73037884799E+03  0.00000000000E+00 0. -1.
         -2   -1    0    0    0  501 -0.00000000000E+00 -0.00000000000E+00 -0.16796172334E+04  0.16796172334E+04  0.00000000000E+00 0.  1.
         23    2    1    2    0    0 -0.95797259964E+02 -0.10116857796E+04 -0.94951129375E+03  0.13937848306E+04  0.91538109310E+02 0.  0.
         13    1    3    3    0    0  0.52400610240E+01 -0.35305098189E+03 -0.35692269801E+03  0.50206201450E+03  0.00000000000E+00 0. -1.
        -13    1    3    3    0    0 -0.10103732099E+03 -0.65863479773E+03 -0.59258859574E+03  0.89172281614E+03  0.00000000000E+00 0.  1.
         22    1    1    2    0    0  0.95797259964E+02  0.10116857796E+04  0.27290831476E+00  0.10162112508E+04  0.00000000000E+00 0. -1.
<mgrwt>
<rscale>  0 0.22151812E+04</rscale>
<asrwt>0</asrwt>
<pdfrwt beam="1">  1        2 0.11236598E+00 0.22151812E+04</pdfrwt>
<pdfrwt beam="2">  1       -2 0.25840265E+00 0.22151812E+04</pdfrwt>
<totfact> 0.20214218E+00</totfact>
</mgrwt>
</event>
<event>
 6    1  0.1603085E-006  0.1704960E+04  0.7818608E-02  0.8758541E-01
         -3   -1    0    0    0  501 -0.00000000000E+00  0.00000000000E+00  0.16087273049E+04  0.16087273049E+04  0.00000000000E+00 0.  1.
          3   -1    0    0  501    0  0.00000000000E+00 -0.00000000000E+00 -0.45173728474E+03  0.45173728474E+03  0.00000000000E+00 0. -1.
         23    2    1    2    0    0  0.17520748605E+03  0.21677489452E+03 -0.39042711228E+03  0.48814502929E+03  0.90350548195E+02 0.  0.
         11    1    3    3    0    0  0.12944187609E+03  0.21004305476E+03 -0.32656535298E+03  0.40928988982E+03  0.00000000000E+00 0. -1.
        -11    1    3    3    0    0  0.45765609957E+02  0.67318397634E+01 -0.63861759299E+02  0.78855139478E+02  0.00000000000E+00 0.  1.
         22    1    1    2    0    0 -0.17520748605E+03 -0.21677489452E+03  0.15474171325E+04  0.15723195604E+04  0.00000000000E+00 0.  1.
<mgrwt>
<rscale>  0 0.17049599E+04</rscale>
<asrwt>0</asrwt>
<pdfrwt beam="1">  1        3 0.69498044E-01 0.17049599E+04</pdfrwt>
<pdfrwt beam="2">  1       -3 0.24749651E+00 0.17049599E+04</pdfrwt>
<totfact> 0.37351437E-01</totfact>
</mgrwt>
</event>
<event>
 6    1  0.1603085E-006  0.1985615E+04  0.7818608E-02  0.8613376E-01
          2   -1    0    0  501    0  0.00000000000E+00  0.00000000000E+00  0.12667271991E+04  0.12667271991E+04  0.00000000000E+00 0. -1.
         -2   -1    0    0    0  501 -0.00000000000E+00 -0.00000000000E+00 -0.77812071591E+03  0.77812071591E+03  0.00000000000E+00 0.  1.
         23    2    1    2    0    0  0.41565087965E+03  0.44101025135E+03 -0.56228924928E+03  0.83173722919E+03  0.91443550965E+02 0.  0.
         13    1    3    3    0    0  0.21421750128E+03  0.19784057841E+03 -0.21454588006E+03  0.36202205316E+03  0.00000000000E+00 0.  1.
        -13    1    3    3    0    0  0.20143337837E+03  0.24316967295E+03 -0.34774336921E+03  0.46971517603E+03  0.00000000000E+00 0. -1.
         22    1    1    2    0    0 -0.41565087965E+03 -0.44101025135E+03  0.10508957324E+04  0.12131106858E+04  0.00000000000E+00 0. -1.
<mgrwt>
<rscale>  0 0.19856149E+04</rscale>
<asrwt>0</asrwt>
<pdfrwt beam="1">  1        2 0.19488111E+00 0.19856149E+04</pdfrwt>
<pdfrwt beam="2">  1       -2 0.11971088E+00 0.19856149E+04</pdfrwt>
<totfact> 0.85928425E+00</totfact>
</mgrwt>
</event>
<event>
 6    1  0.1603085E-006  0.9776804E+03  0.7818608E-02  0.9333369E-01
         -1   -1    0    0    0  501 -0.00000000000E+00  0.00000000000E+00  0.56144706094E+03  0.56144706094E+03  0.00000000000E+00 0.  1.
          1   -1    0    0  501    0  0.00000000000E+00 -0.00000000000E+00 -0.42562292244E+03  0.42562292244E+03  0.00000000000E+00 0. -1.
         23    2    1    2    0    0  0.13414532784E+03 -0.20696851601E+03  0.48968150419E+03  0.55573951743E+03  0.90705568143E+02 0.  0.
         13    1    3    3    0    0  0.26474080891E+02 -0.10031263444E+03  0.13680573059E+03  0.17169539746E+03  0.00000000000E+00 0. -1.
        -13    1    3    3    0    0  0.10767124695E+03 -0.10665588157E+03  0.35287577359E+03  0.38404411997E+03  0.00000000000E+00 0.  1.
         22    1    1    2    0    0 -0.13414532784E+03  0.20696851601E+03 -0.35385736568E+03  0.43133046594E+03  0.00000000000E+00 0. -1.
<mgrwt>
<rscale>  0 0.97768040E+03</rscale>
<asrwt>0</asrwt>
<pdfrwt beam="1">  1        1 0.65480450E-01 0.97768040E+03</pdfrwt>
<pdfrwt beam="2">  1       -1 0.86376471E-01 0.97768040E+03</pdfrwt>
<totfact> 0.73314780E+01</totfact>
</mgrwt>
</event>
<event>
 6    1  0.1603085E-006  0.1409783E+04  0.7818608E-02  0.8946767E-01
          2   -1    0    0  501    0  0.00000000000E+00  0.00000000000E+00  0.11232090866E+04  0.11232090866E+04  0.00000000000E+00 0. -1.
         -2   -1    0    0    0  501 -0.00000000000E+00 -0.00000000000E+00 -0.44236836161E+03  0.44236836161E+03  0.00000000000E+00 0.  1.
         23    2    1    2    0    0  0.70089989447E+03 -0.27166053120E+02  0.31179265441E+03  0.77298982851E+03  0.91104111506E+02 0.  0.
         13    1    3    3    0    0  0.40063600483E+03 -0.87595845552E+01  0.22646112980E+03  0.46029401691E+03  0.00000000000E+00 0. -1.
        -13    1    3    3    0    0  0.30026388963E+03 -0.18406468565E+02  0.85331524611E+02  0.31269581161E+03  0.00000000000E+00 0.  1.
         22    1    1    2    0    0 -0.70089989447E+03  0.27166053120E+02  0.36904807057E+03  0.79258761970E+03  0.00000000000E+00 0.  1.
<mgrwt>
<rscale>  0 0.14097832E+04</rscale>
<asrwt>0</asrwt>
<pdfrwt beam="1">  1        2 0.17280140E+00 0.14097832E+04</pdfrwt>
<pdfrwt beam="2">  1       -2 0.68056671E-01 0.14097832E+04</pdfrwt>
<totfact> 0.40533307E+01</totfact>
</mgrwt>
</event>
<event>
 6    1  0.1630806E-006  0.2386943E+04  0.7818608E-02  0.8444408E-01
          2   -1    0    0  501    0  0.00000000000E+00  0.00000000000E+00  0.99735846594E+03  0.99735846594E+03  0.00000000000E+00 0. -1.
         -2   -1    0    0    0  501 -0.00000000000E+00 -0.00000000000E+00 -0.14281468502E+04  0.14281468502E+04  0.00000000000E+00 0.  1.
         23    2    1    2    0    0  0.18069773690E+02  0.73692970584E+03  0.73570114294E+03  0.10456177392E+04  0.93104117149E+02 0.  0.
         11    1    3    3    0    0 -0.33698217802E+02  0.33201718206E+03  0.35901599663E+03  0.49016677254E+03  0.00000000000E+00 0.  1.
        -11    1    3    3    0    0  0.51767991491E+02  0.40491252378E+03  0.37668514631E+03  0.55545096661E+03  0.00000000000E+00 0. -1.
         22    1    1    2    0    0 -0.18069773690E+02 -0.73692970584E+03 -0.11664895272E+04  0.13798875770E+04  0.00000000000E+00 0.  1.
<mgrwt>
<rscale>  0 0.23869431E+04</rscale>
<asrwt>0</asrwt>
<pdfrwt beam="1">  1        2 0.15343976E+00 0.23869431E+04</pdfrwt>
<pdfrwt beam="2">  1       -2 0.21971490E+00 0.23869431E+04</pdfrwt>
<totfact> 0.22587564E+00</totfact>
</mgrwt>
</event>
<event>
 6    1  0.1603085E-006  0.1532508E+04  0.7818608E-02  0.8863119E-01
          2   -1    0    0  501    0  0.00000000000E+00  0.00000000000E+00  0.26141546598E+04  0.26141546598E+04  0.00000000000E+00 0. -1.
         -2   -1    0    0    0  501 -0.00000000000E+00 -0.00000000000E+00 -0.22460237503E+03  0.22460237503E+03  0.00000000000E+00 0.  1.
         23    2    1    2    0    0  0.44272781557E+03 -0.62152443680E+03  0.12506344742E+04  0.14678324113E+04  0.90248852161E+02 0.  0.
         11    1    3    3    0    0  0.83107659340E+02 -0.99468648184E+02  0.27965426183E+03  0.30823270620E+03  0.00000000000E+00 0.  1.
        -11    1    3    3    0    0  0.35962015623E+03 -0.52205578862E+03  0.97098021234E+03  0.11595997051E+04  0.00000000000E+00 0. -1.
         22    1    1    2    0    0 -0.44272781557E+03  0.62152443680E+03  0.11389178106E+04  0.13709246236E+04  0.00000000000E+00 0.  1.
<mgrwt>
<rscale>  0 0.15325082E+04</rscale>
<asrwt>0</asrwt>
<pdfrwt beam="1">  1        2 0.40217762E+00 0.15325082E+04</pdfrwt>
<pdfrwt beam="2">  1       -2 0.34554213E-01 0.15325082E+04</pdfrwt>
<totfact> 0.22667042E+01</totfact>
</mgrwt>
</event>
<event>
 6    1  0.1603085E-006  0.2528539E+04  0.7818608E-02  0.8392888E-01
         -2   -1    0    0    0  501 -0.00000000000E+00  0.00000000000E+00  0.83950948207E+03  0.83950948207E+03  0.00000000000E+00 0.  1.
          2   -1    0    0  501    0  0.00000000000E+00 -0.00000000000E+00 -0.19039426522E+04  0.19039426522E+04  0.00000000000E+00 0. -1.
         23    2    1    2    0    0  0.54457598890E+03  0.35415502614E+03 -0.17075305510E+04  0.18293607649E+04  0.94400399436E+02 0.  0.
         13    1    3    3    0    0  0.42483102903E+03  0.31628400806E+03 -0.14218938973E+04  0.15173329338E+04  0.00000000000E+00 0. -1.
        -13    1    3    3    0    0  0.11974495987E+03  0.37871018076E+02 -0.28563665377E+03  0.31202783114E+03  0.00000000000E+00 0.  1.
         22    1    1    2    0    0 -0.54457598890E+03 -0.35415502614E+03  0.64309738087E+03  0.91409136934E+03  0.00000000000E+00 0.  1.
<mgrwt>
<rscale>  0 0.25285394E+04</rscale>
<asrwt>0</asrwt>
<pdfrwt beam="1">  1        2 0.29291425E+00 0.25285394E+04</pdfrwt>
<pdfrwt beam="2">  1       -2 0.12915531E+00 0.25285394E+04</pdfrwt>
<totfact> 0.29684293E+00</totfact>
</mgrwt>
</event>
<event>
 6    1  0.1603085E-006  0.3397438E+04  0.7818608E-02  0.8138536E-01
          2   -1    0    0  501    0  0.00000000000E+00  0.00000000000E+00  0.18783360231E+04  0.18783360231E+04  0.00000000000E+00 0. -1.
         -2   -1    0    0    0  501 -0.00000000000E+00 -0.00000000000E+00 -0.15362775787E+04  0.15362775787E+04  0.00000000000E+00 0.  1.
         23    2    1    2    0    0  0.90171337943E+03 -0.12684673456E+04  0.85234541582E+03  0.17767829577E+04  0.91479754332E+02 0.  0.
         13    1    3    3    0    0  0.45461893447E+03 -0.56827110457E+03  0.42019402007E+03  0.84034126304E+03  0.00000000000E+00 0.  1.
        -13    1    3    3    0    0  0.44709444496E+03 -0.70019624107E+03  0.43215139574E+03  0.93644169469E+03  0.00000000000E+00 0. -1.
         22    1    1    2    0    0 -0.90171337943E+03  0.12684673456E+04 -0.51028697135E+03  0.16378306441E+04  0.00000000000E+00 0.  1.
<mgrwt>
<rscale>  0 0.33974376E+04</rscale>
<asrwt>0</asrwt>
<pdfrwt beam="1">  1        2 0.28897477E+00 0.33974376E+04</pdfrwt>
<pdfrwt beam="2">  1       -2 0.23635040E+00 0.33974376E+04</pdfrwt>
<totfact> 0.50486342E-01</totfact>
</mgrwt>
</event>
<event>
 6    1  0.1603085E-006  0.3856349E+04  0.7818608E-02  0.8034169E-01
         -1   -1    0    0    0  501 -0.00000000000E+00  0.00000000000E+00  0.13040524555E+04  0.13040524555E+04  0.00000000000E+00 0.  1.
          1   -1    0    0  501    0  0.00000000000E+00 -0.00000000000E+00 -0.28510032575E+04  0.28510032575E+04  0.00000000000E+00 0. -1.
         23    2    1    2    0    0  0.16131399331E+04  0.22442688342E+03 -0.18837919156E+04  0.24919111596E+04  0.91440561110E+02 0.  0.
         13    1    3    3    0    0  0.73445701214E+03  0.56889639525E+02 -0.83908145972E+03  0.11165667153E+04  0.00000000000E+00 0. -1.
        -13    1    3    3    0    0  0.87868292096E+03  0.16753724389E+03 -0.10447104559E+04  0.13753444442E+04  0.00000000000E+00 0.  1.
         22    1    1    2    0    0 -0.16131399331E+04 -0.22442688342E+03  0.33684111367E+03  0.16631445534E+04  0.00000000000E+00 0.  1.
<mgrwt>
<rscale>  0 0.38563495E+04</rscale>
<asrwt>0</asrwt>
<pdfrwt beam="1">  1        1 0.43861588E+00 0.38563495E+04</pdfrwt>
<pdfrwt beam="2">  1       -1 0.20062346E+00 0.38563495E+04</pdfrwt>
<totfact> 0.90392937E-02</totfact>
</mgrwt>
</event>
<event>
 6    1  0.1603085E-006  0.6086441E+04  0.7818608E-02  0.7679776E-01
          2   -1    0    0  501    0  0.00000000000E+00  0.00000000000E+00  0.36183619416E+04  0.36183619416E+04  0.00000000000E+00 0. -1.
         -2   -1    0    0    0  501 -0.00000000000E+00 -0.00000000000E+00 -0.25594986443E+04  0.25594986443E+04  0.00000000000E+00 0.  1.
         23    2    1    2    0    0 -0.99704472566E+02 -0.29466959212E+04 -0.23283732696E+03  0.29589402177E+04  0.90311446953E+02 0.  0.
         13    1    3    3    0    0 -0.72848044606E+02 -0.11391920090E+04 -0.62483194197E+02  0.11432276328E+04  0.00000000000E+00 0.  1.
        -13    1    3    3    0    0 -0.26856427960E+02 -0.18075039122E+04 -0.17035413276E+03  0.18157125849E+04  0.00000000000E+00 0. -1.
         22    1    1    2    0    0  0.99704472566E+02  0.29466959212E+04  0.12917006242E+04  0.32189203681E+04  0.00000000000E+00 0. -1.
<mgrwt>
<rscale>  0 0.60864415E+04</rscale>
<asrwt>0</asrwt>
<pdfrwt beam="1">  1        2 0.55667107E+00 0.60864415E+04</pdfrwt>
<pdfrwt beam="2">  1       -2 0.39376902E+00 0.60864415E+04</pdfrwt>
<totfact> 0.36438423E-03</totfact>
</mgrwt>
</event>
<event>
 6    1  0.1603085E-006  0.2150879E+04  0.7818608E-02  0.8539156E-01
         -1   -1    0    0    0  501 -0.00000000000E+00  0.00000000000E+00  0.15944548415E+04  0.15944548415E+04  0.00000000000E+00 0.  1.
          1   -1    0    0  501    0  0.00000000000E+00 -0.00000000000E+00 -0.72537008703E+03  0.72537008703E+03  0.00000000000E+00 0. -1.
         23    2    1    2    0    0 -0.32102027785E+03  0.93617684819E+03  0.88337894526E+03  0.13300343276E+04  0.95665258900E+02 0.  0.
         13    1    3    3    0    0 -0.12625903836E+03  0.50399661713E+03  0.43712764162E+03  0.67899522083E+03  0.00000000000E+00 0. -1.
        -13    1    3    3    0    0 -0.19476123949E+03  0.43218023107E+03  0.44625130365E+03  0.65103910676E+03  0.00000000000E+00 0.  1.
         22    1    1    2    0    0  0.32102027785E+03 -0.93617684819E+03 -0.14294190753E+02  0.98979060097E+03  0.00000000000E+00 0. -1.
<mgrwt>
<rscale>  0 0.21508787E+04</rscale>
<asrwt>0</asrwt>
<pdfrwt beam="1">  1        1 0.11159540E+00 0.21508787E+04</pdfrwt>
<pdfrwt beam="2">  1       -1 0.24530074E+00 0.21508787E+04</pdfrwt>
<totfact> 0.17674937E+00</totfact>
</mgrwt>
</event>
<event>
 6    1  0.1603085E-006  0.8473229E+03  0.7818608E-02  0.9493937E-01
          1   -1    0    0  501    0  0.00000000000E+00  0.00000000000E+00  0.19048885409E+04  0.19048885409E+04  0.00000000000E+00 0. -1.
         -1   -1    0    0    0  501 -0.00000000000E+00 -0.00000000000E+00 -0.94225466433E+02  0.94225466433E+02  0.00000000000E+00 0.  1.
         23    2    1    2    0    0  0.21883993879E+03  0.23814994117E+03  0.28751613742E+03  0.44200678395E+03  0.89989746560E+02 0.  0.
         13    1    3    3    0    0  0.48279126056E+01  0.51103724152E+02  0.48865810761E+02  0.70871481032E+02  0.00000000000E+00 0.  1.
        -13    1    3    3    0    0  0.21401202619E+03  0.18704621702E+03  0.23865032666E+03  0.37113530291E+03  0.00000000000E+00 0. -1.
         22    1    1    2    0    0 -0.21883993879E+03 -0.23814994117E+03  0.15231469371E+04  0.15571072234E+04  0.00000000000E+00 0. -1.
<mgrwt>
<rscale>  0 0.84732287E+03</rscale>
<asrwt>0</asrwt>
<pdfrwt beam="1">  1        1 0.29305975E+00 0.84732287E+03</pdfrwt>
<pdfrwt beam="2">  1       -1 0.14496227E-01 0.84732287E+03</pdfrwt>
<totfact> 0.12252650E+02</totfact>
</mgrwt>
</event>
<event>
 6    1  0.1603085E-006  0.1362608E+04  0.7818608E-02  0.8981339E-01
         -2   -1    0    0    0  501 -0.00000000000E+00  0.00000000000E+00  0.41150219722E+03  0.41150219722E+03  0.00000000000E+00 0.  1.
          2   -1    0    0  501    0  0.00000000000E+00 -0.00000000000E+00 -0.11280009809E+04  0.11280009809E+04  0.00000000000E+00 0. -1.
         23    2    1    2    0    0 -0.10089871275E+03  0.54376073864E+02 -0.11150129502E+04  0.11248336126E+04  0.94124754006E+02 0.  0.
         11    1    3    3    0    0 -0.56826729212E+02 -0.20981778478E+02 -0.49980994452E+03  0.50346746948E+03  0.00000000000E+00 0. -1.
        -11    1    3    3    0    0 -0.44071983535E+02  0.75357852343E+02 -0.61520300568E+03  0.62136614314E+03  0.00000000000E+00 0.  1.
         22    1    1    2    0    0  0.10089871275E+03 -0.54376073864E+02  0.39851416652E+03  0.41466956551E+03  0.00000000000E+00 0.  1.
<mgrwt>
<rscale>  0 0.13626076E+04</rscale>
<asrwt>0</asrwt>
<pdfrwt beam="1">  1        2 0.17353861E+00 0.13626076E+04</pdfrwt>
<pdfrwt beam="2">  1       -2 0.63308031E-01 0.13626076E+04</pdfrwt>
<totfact> 0.47214454E+01</totfact>
</mgrwt>
</event>
<event>
 6    1  0.1603085E-006  0.7382317E+03  0.7818608E-02  0.9653996E-01
          1   -1    0    0  501    0  0.00000000000E+00  0.00000000000E+00  0.78823817283E+03  0.78823817283E+03  0.00000000000E+00 0. -1.
         -1   -1    0    0    0  501 -0.00000000000E+00 -0.00000000000E+00 -0.17284940330E+03  0.17284940330E+03  0.00000000000E+00 0.  1.
         23    2    1    2    0    0  0.20910610217E+03  0.16077257762E+03 -0.14067913784E+02  0.27860028698E+03  0.88583463619E+02 0.  0.
         13    1    3    3    0    0  0.77544794675E+02  0.82395418333E+02 -0.46048293489E+02  0.12215828043E+03  0.00000000000E+00 0. -1.
        -13    1    3    3    0    0  0.13156130750E+03  0.78377159285E+02  0.31980379705E+02  0.15644200655E+03  0.00000000000E+00 0.  1.
         22    1    1    2    0    0 -0.20910610217E+03 -0.16077257762E+03  0.62945668332E+03  0.68248728915E+03  0.00000000000E+00 0. -1.
<mgrwt>
<rscale>  0 0.73823167E+03</rscale>
<asrwt>0</asrwt>
<pdfrwt beam="1">  1        1 0.12126741E+00 0.73823167E+03</pdfrwt>
<pdfrwt beam="2">  1       -1 0.26592216E-01 0.73823167E+03</pdfrwt>
<totfact> 0.28817887E+02</totfact>
</mgrwt>
</event>
<event>
 6    1  0.1603085E-006  0.1403405E+04  0.7818608E-02  0.8951358E-01
          1   -1    0    0  501    0  0.00000000000E+00  0.00000000000E+00  0.53818582108E+03  0.53818582108E+03  0.00000000000E+00 0. -1.
         -1   -1    0    0    0  501 -0.00000000000E+00 -0.00000000000E+00 -0.91489990039E+03  0.91489990039E+03  0.00000000000E+00 0.  1.
         23    2    1    2    0    0 -0.67180707186E+02 -0.30975754054E+03  0.45550005163E+03  0.56255591227E+03  0.92335670523E+02 0.  0.
         13    1    3    3    0    0 -0.39908939862E+02 -0.40627405348E+02  0.54360226975E+02  0.78729561303E+02  0.00000000000E+00 0. -1.
        -13    1    3    3    0    0 -0.27271767324E+02 -0.26913013519E+03  0.40113982466E+03  0.48382635096E+03  0.00000000000E+00 0.  1.
         22    1    1    2    0    0  0.67180707186E+02  0.30975754054E+03 -0.83221413094E+03  0.89052980921E+03  0.00000000000E+00 0.  1.
<mgrwt>
<rscale>  0 0.14034047E+04</rscale>
<asrwt>0</asrwt>
<pdfrwt beam="1">  1        1 0.82797818E-01 0.14034047E+04</pdfrwt>
<pdfrwt beam="2">  1       -1 0.14075383E+00 0.14034047E+04</pdfrwt>
<totfact> 0.16117220E+01</totfact>
</mgrwt>
</event>
<event>
 6    1  0.1603085E-006  0.2630546E+04  0.7818608E-02  0.8357899E-01
          1   -1    0    0  501    0  0.00000000000E+00  0.00000000000E+00  0.12472642396E+04  0.12472642396E+04  0.00000000000E+00 0. -1.
         -1   -1    0    0    0  501 -0.00000000000E+00 -0.00000000000E+00 -0.13869898106E+04  0.13869898106E+04  0.00000000000E+00 0.  1.
         23    2    1    2    0    0  0.10027089956E+04  0.80403172190E+03 -0.34473219351E+03  0.13327472101E+04  0.74043913408E+02 0.  0.
         13    1    3    3    0    0  0.81957722974E+03  0.68046148635E+03 -0.26332870651E+03  0.10973042776E+04  0.00000000000E+00 0. -1.
        -13    1    3    3    0    0  0.18313176582E+03  0.12357023555E+03 -0.81403487000E+02  0.23544293249E+03  0.00000000000E+00 0.  1.
         22    1    1    2    0    0 -0.10027089956E+04 -0.80403172190E+03  0.20500662260E+03  0.13015068401E+04  0.00000000000E+00 0.  1.
<mgrwt>
<rscale>  0 0.26305458E+04</rscale>
<asrwt>0</asrwt>
<pdfrwt beam="1">  1        1 0.19188681E+00 0.26305458E+04</pdfrwt>
<pdfrwt beam="2">  1       -1 0.21338305E+00 0.26305458E+04</pdfrwt>
<totfact> 0.10574448E+00</totfact>
</mgrwt>
</event>
<event>
 6    1  0.1603085E-006  0.1989726E+04  0.7818608E-02  0.8611439E-01
         -2   -1    0    0    0  501 -0.00000000000E+00  0.00000000000E+00  0.79056236290E+03  0.79056236290E+03  0.00000000000E+00 0.  1.
          2   -1    0    0  501    0  0.00000000000E+00 -0.00000000000E+00 -0.12519598026E+04  0.12519598026E+04  0.00000000000E+00 0. -1.
         23    2    1    2    0    0  0.90899795427E+03  0.17724636336E+03 -0.59837286689E+03  0.11063299727E+04  0.90677265548E+02 0.  0.
         13    1    3    3    0    0  0.58770083576E+03  0.15851705559E+03 -0.39146574415E+03  0.72371635197E+03  0.00000000000E+00 0. -1.
        -13    1    3    3    0    0  0.32129711851E+03  0.18729307769E+02 -0.20690712274E+03  0.38261362074E+03  0.00000000000E+00 0.  1.
         22    1    1    2    0    0 -0.90899795427E+03 -0.17724636336E+03  0.13697542719E+03  0.93619219279E+03  0.00000000000E+00 0.  1.
<mgrwt>
<rscale>  0 0.19897259E+04</rscale>
<asrwt>0</asrwt>
<pdfrwt beam="1">  1        2 0.19260920E+00 0.19897259E+04</pdfrwt>
<pdfrwt beam="2">  1       -2 0.12162498E+00 0.19897259E+04</pdfrwt>
<totfact> 0.84242468E+00</totfact>
</mgrwt>
</event>
<event>
 6    1  0.1603085E-006  0.1485421E+04  0.7818608E-02  0.8894206E-01
          2   -1    0    0  501    0  0.00000000000E+00  0.00000000000E+00  0.48731178145E+03  0.48731178145E+03  0.00000000000E+00 0. -1.
         -2   -1    0    0    0  501 -0.00000000000E+00 -0.00000000000E+00 -0.11319622750E+04  0.11319622750E+04  0.00000000000E+00 0.  1.
         23    2    1    2    0    0  0.75110999636E+02  0.49000783657E+03 -0.92219778744E+03  0.10511351276E+04  0.93203836900E+02 0.  0.
         11    1    3    3    0    0  0.71978226378E+02  0.32706920746E+03 -0.69560053562E+03  0.77202023076E+03  0.00000000000E+00 0. -1.
        -11    1    3    3    0    0  0.31327732587E+01  0.16293862911E+03 -0.22659725181E+03  0.27911489687E+03  0.00000000000E+00 0.  1.
         22    1    1    2    0    0 -0.75110999636E+02 -0.49000783657E+03  0.27754729385E+03  0.56813892887E+03  0.00000000000E+00 0. -1.
<mgrwt>
<rscale>  0 0.14854206E+04</rscale>
<asrwt>0</asrwt>
<pdfrwt beam="1">  1        2 0.74971043E-01 0.14854206E+04</pdfrwt>
<pdfrwt beam="2">  1       -2 0.17414804E+00 0.14854206E+04</pdfrwt>
<totfact> 0.12211837E+01</totfact>
</mgrwt>
</event>
<event>
 6    1  0.1603085E-006  0.1137046E+04  0.7818608E-02  0.9169818E-01
          1   -1    0    0  501    0  0.00000000000E+00  0.00000000000E+00  0.11805596125E+04  0.11805596125E+04  0.00000000000E+00 0. -1.
         -1   -1    0    0    0  501 -0.00000000000E+00 -0.00000000000E+00 -0.27378381842E+03  0.27378381842E+03  0.00000000000E+00 0.  1.
         23    2    1    2    0    0 -0.28818840710E+03 -0.52030825597E+02  0.10741377918E+04  0.11170456350E+04  0.90880086375E+02 0.  0.
         13    1    3    3    0    0 -0.70271561744E+02 -0.34230885079E+02  0.42351193387E+03  0.43066483954E+03  0.00000000000E+00 0.  1.
        -13    1    3    3    0    0 -0.21791684536E+03 -0.17799940518E+02  0.65062585794E+03  0.68638079548E+03  0.00000000000E+00 0. -1.
         22    1    1    2    0    0  0.28818840710E+03  0.52030825597E+02 -0.16736199776E+03  0.33729779587E+03  0.00000000000E+00 0.  1.
<mgrwt>
<rscale>  0 0.11370455E+04</rscale>
<asrwt>0</asrwt>
<pdfrwt beam="1">  1        1 0.18162455E+00 0.11370455E+04</pdfrwt>
<pdfrwt beam="2">  1       -1 0.42120588E-01 0.11370455E+04</pdfrwt>
<totfact> 0.60757831E+01</totfact>
</mgrwt>
</event>
<event>
 6    1  0.1603085E-006  0.2878514E+04  0.7818608E-02  0.8279299E-01
         -2   -1    0    0    0  501 -0.00000000000E+00  0.00000000000E+00  0.47064402597E+03  0.47064402597E+03  0.00000000000E+00 0.  1.
          2   -1    0    0  501    0  0.00000000000E+00 -0.00000000000E+00 -0.44013307238E+04  0.44013307238E+04  0.00000000000E+00 0. -1.
         23    2    1    2    0    0 -0.56454441129E+03  0.50298445314E+03  0.10254956894E+03  0.76847642078E+03  0.91300836736E+02 0.  0.
         11    1    3    3    0    0 -0.78298059637E+02  0.97339997540E+02 -0.99907506517E+01  0.12532149202E+03  0.00000000000E+00 0. -1.
        -11    1    3    3    0    0 -0.48624635165E+03  0.40564445560E+03  0.11254031959E+03  0.64315492876E+03  0.00000000000E+00 0.  1.
         22    1    1    2    0    0  0.56454441129E+03 -0.50298445314E+03 -0.40332362668E+04  0.41034983290E+04  0.00000000000E+00 0. -1.
<mgrwt>
<rscale>  0 0.28785135E+04</rscale>
<asrwt>0</asrwt>
<pdfrwt beam="1">  1        2 0.67712779E+00 0.28785135E+04</pdfrwt>
<pdfrwt beam="2">  1       -2 0.72406775E-01 0.28785135E+04</pdfrwt>
<totfact> 0.22848334E-01</totfact>
</mgrwt>
</event>
<event>
 6    1  0.1603085E-006  0.1365139E+04  0.7818608E-02  0.8979447E-01
          1   -1    0    0  501    0  0.00000000000E+00  0.00000000000E+00  0.65789368918E+03  0.65789368918E+03  0.00000000000E+00 0. -1.
         -1   -1    0    0    0  501 -0.00000000000E+00 -0.00000000000E+00 -0.70817074871E+03  0.70817074871E+03  0.00000000000E+00 0.  1.
         23    2    1    2    0    0 -0.20004410172E+03 -0.27401230229E+03  0.56424146286E+03  0.66411472544E+03  0.87060643781E+02 0.  0.
         13    1    3    3    0    0 -0.17116284550E+02 -0.69044002662E+02  0.16286941051E+03  0.17772587426E+03  0.00000000000E+00 0. -1.
        -13    1    3    3    0    0 -0.18292781717E+03 -0.20496829963E+03  0.40137205235E+03  0.48638885118E+03  0.00000000000E+00 0.  1.
         22    1    1    2    0    0  0.20004410172E+03  0.27401230229E+03 -0.61451852239E+03  0.70194971244E+03  0.00000000000E+00 0.  1.
<mgrwt>
<rscale>  0 0.13651389E+04</rscale>
<asrwt>0</asrwt>
<pdfrwt beam="1">  1        1 0.10121441E+00 0.13651389E+04</pdfrwt>
<pdfrwt beam="2">  1       -1 0.10894935E+00 0.13651389E+04</pdfrwt>
<totfact> 0.22843256E+01</totfact>
</mgrwt>
</event>
<event>
 6    1  0.1603085E-006  0.6328836E+04  0.7818608E-02  0.7650915E-01
          1   -1    0    0  501    0  0.00000000000E+00  0.00000000000E+00  0.22113142166E+04  0.22113142166E+04  0.00000000000E+00 0. -1.
         -1   -1    0    0    0  501 -0.00000000000E+00 -0.00000000000E+00 -0.45283216842E+04  0.45283216842E+04  0.00000000000E+00 0.  1.
         23    2    1    2    0    0  0.11666138035E+04  0.29848884629E+03 -0.42741687824E+04  0.44416881708E+04  0.99958329302E+02 0.  0.
         11    1    3    3    0    0  0.91491127386E+03  0.20984401184E+03 -0.34483604999E+04  0.35738336959E+04  0.00000000000E+00 0. -1.
        -11    1    3    3    0    0  0.25170252965E+03  0.88644834455E+02 -0.82580828253E+03  0.86785447490E+03  0.00000000000E+00 0.  1.
         22    1    1    2    0    0 -0.11666138035E+04 -0.29848884629E+03  0.19571613148E+04  0.22979477301E+04  0.00000000000E+00 0. -1.
<mgrwt>
<rscale>  0 0.63288363E+04</rscale>
<asrwt>0</asrwt>
<pdfrwt beam="1">  1        1 0.34020219E+00 0.63288363E+04</pdfrwt>
<pdfrwt beam="2">  1       -1 0.69666487E+00 0.63288363E+04</pdfrwt>
<totfact> 0.29274988E-04</totfact>
</mgrwt>
</event>
<event>
 6    1  0.1603085E-006  0.2779850E+04  0.7818608E-02  0.8309551E-01
          2   -1    0    0  501    0  0.00000000000E+00  0.00000000000E+00  0.34934388916E+04  0.34934388916E+04  0.00000000000E+00 0. -1.
         -2   -1    0    0    0  501 -0.00000000000E+00 -0.00000000000E+00 -0.55300579601E+03  0.55300579601E+03  0.00000000000E+00 0.  1.
         23    2    1    2    0    0  0.11117802948E+04  0.70140544631E+03  0.82124968338E+03  0.15526597413E+04  0.90973654734E+02 0.  0.
         13    1    3    3    0    0  0.88493329579E+02  0.52049600166E+02  0.94440252540E+02  0.13949620625E+03  0.00000000000E+00 0.  1.
        -13    1    3    3    0    0  0.10232869652E+04  0.64935584615E+03  0.72680943084E+03  0.14131635350E+04  0.00000000000E+00 0. -1.
         22    1    1    2    0    0 -0.11117802948E+04 -0.70140544631E+03  0.21191834122E+04  0.24937849463E+04  0.00000000000E+00 0. -1.
<mgrwt>
<rscale>  0 0.27798503E+04</rscale>
<asrwt>0</asrwt>
<pdfrwt beam="1">  1        2 0.53745213E+00 0.27798503E+04</pdfrwt>
<pdfrwt beam="2">  1       -2 0.85077817E-01 0.27798503E+04</pdfrwt>
<totfact> 0.86097182E-01</totfact>
</mgrwt>
</event>
<event>
 6    1  0.1603085E-006  0.4184455E+04  0.7818608E-02  0.7968336E-01
          2   -1    0    0  501    0  0.00000000000E+00  0.00000000000E+00  0.47036164025E+04  0.47036164025E+04  0.00000000000E+00 0. -1.
         -2   -1    0    0    0  501 -0.00000000000E+00 -0.00000000000E+00 -0.93064915714E+03  0.93064915714E+03  0.00000000000E+00 0.  1.
         23    2    1    2    0    0 -0.20065946806E+04 -0.14624780849E+03  0.11193465337E+04  0.23041734415E+04  0.92021478379E+02 0.  0.
         11    1    3    3    0    0 -0.10590177703E+04 -0.10473801050E+03  0.63391407264E+03  0.12386830669E+04  0.00000000000E+00 0.  1.
        -11    1    3    3    0    0 -0.94757691030E+03 -0.41509797992E+02  0.48543246104E+03  0.10654903747E+04  0.00000000000E+00 0. -1.
         22    1    1    2    0    0  0.20065946806E+04  0.14624780849E+03  0.26536207117E+04  0.33300921182E+04  0.00000000000E+00 0.  1.
<mgrwt>
<rscale>  0 0.41844553E+04</rscale>
<asrwt>0</asrwt>
<pdfrwt beam="1">  1        2 0.72363328E+00 0.41844553E+04</pdfrwt>
<pdfrwt beam="2">  1       -2 0.14317680E+00 0.41844553E+04</pdfrwt>
<totfact> 0.19829876E-02</totfact>
</mgrwt>
</event>
<event>
 6    1  0.1603085E-006  0.1322556E+04  0.7818608E-02  0.9011866E-01
          1   -1    0    0  501    0  0.00000000000E+00  0.00000000000E+00  0.58762875144E+03  0.58762875144E+03  0.00000000000E+00 0. -1.
         -1   -1    0    0    0  501 -0.00000000000E+00 -0.00000000000E+00 -0.74415844948E+03  0.74415844948E+03  0.00000000000E+00 0.  1.
         23    2    1    2    0    0 -0.42309533435E+03 -0.16844643389E+02  0.42872163301E+03  0.60942127947E+03  0.91096944531E+02 0.  0.
         13    1    3    3    0    0 -0.15817043692E+03 -0.22071680759E+02  0.22133803145E+03  0.27293876671E+03  0.00000000000E+00 0.  1.
        -13    1    3    3    0    0 -0.26492489744E+03  0.52270373704E+01  0.20738360156E+03  0.33648251277E+03  0.00000000000E+00 0. -1.
         22    1    1    2    0    0  0.42309533435E+03  0.16844643389E+02 -0.58525133106E+03  0.72236592144E+03  0.00000000000E+00 0.  1.
<mgrwt>
<rscale>  0 0.13225565E+04</rscale>
<asrwt>0</asrwt>
<pdfrwt beam="1">  1        1 0.90404423E-01 0.13225565E+04</pdfrwt>
<pdfrwt beam="2">  1       -1 0.11448592E+00 0.13225565E+04</pdfrwt>
<totfact> 0.24030173E+01</totfact>
</mgrwt>
</event>
<event>
 6    1  0.1603085E-006  0.1611138E+04  0.7818608E-02  0.8813734E-01
          1   -1    0    0  501    0  0.00000000000E+00  0.00000000000E+00  0.15470482917E+04  0.15470482917E+04  0.00000000000E+00 0. -1.
         -1   -1    0    0    0  501 -0.00000000000E+00 -0.00000000000E+00 -0.41947084669E+03  0.41947084669E+03  0.00000000000E+00 0.  1.
         23    2    1    2    0    0  0.15701009795E+03  0.33876165344E+02  0.15259083802E+04  0.15370225733E+04  0.90786786374E+02 0.  0.
         13    1    3    3    0    0  0.55543292879E+02  0.32473921957E+02  0.95507094308E+03  0.95723566550E+03  0.00000000000E+00 0.  1.
        -13    1    3    3    0    0  0.10146680507E+03  0.14022433869E+01  0.57083743714E+03  0.57978690780E+03  0.00000000000E+00 0. -1.
         22    1    1    2    0    0 -0.15701009795E+03 -0.33876165344E+02 -0.39833093523E+03  0.42949656506E+03  0.00000000000E+00 0.  1.
<mgrwt>
<rscale>  0 0.16111383E+04</rscale>
<asrwt>0</asrwt>
<pdfrwt beam="1">  1        1 0.23800743E+00 0.16111383E+04</pdfrwt>
<pdfrwt beam="2">  1       -1 0.64533977E-01 0.16111383E+04</pdfrwt>
<totfact> 0.14165285E+01</totfact>
</mgrwt>
</event>
<event>
 6    1  0.1603085E-006  0.1398915E+04  0.7818608E-02  0.8954604E-01
         -1   -1    0    0    0  501 -0.00000000000E+00  0.00000000000E+00  0.28608314274E+03  0.28608314274E+03  0.00000000000E+00 0.  1.
          1   -1    0    0  501    0  0.00000000000E+00 -0.00000000000E+00 -0.17101357524E+04  0.17101357524E+04  0.00000000000E+00 0. -1.
         23    2    1    2    0    0  0.43241468919E+03  0.39857163961E+03 -0.18240567191E+03  0.62234519885E+03  0.90553310567E+02 0.  0.
         13    1    3    3    0    0  0.11831701567E+03  0.59200415938E+02 -0.32475488829E+02  0.13622871511E+03  0.00000000000E+00 0. -1.
        -13    1    3    3    0    0  0.31409767352E+03  0.33937122367E+03 -0.14993018308E+03  0.48611648374E+03  0.00000000000E+00 0.  1.
         22    1    1    2    0    0 -0.43241468919E+03 -0.39857163961E+03 -0.12416469377E+04  0.13738736963E+04  0.00000000000E+00 0. -1.
<mgrwt>
<rscale>  0 0.13989153E+04</rscale>
<asrwt>0</asrwt>
<pdfrwt beam="1">  1        1 0.26309780E+00 0.13989153E+04</pdfrwt>
<pdfrwt beam="2">  1       -1 0.44012792E-01 0.13989153E+04</pdfrwt>
<totfact> 0.23351814E+01</totfact>
</mgrwt>
</event>
<event>
 6    1  0.1603085E-006  0.3982678E+04  0.7818608E-02  0.8008050E-01
         -2   -1    0    0    0  501 -0.00000000000E+00  0.00000000000E+00  0.13744617011E+04  0.13744617011E+04  0.00000000000E+00 0.  1.
          2   -1    0    0  501    0  0.00000000000E+00 -0.00000000000E+00 -0.28850787640E+04  0.28850787640E+04  0.00000000000E+00 0. -1.
         23    2    1    2    0    0 -0.14990700521E+04  0.10093218275E+04  0.13612169446E+03  0.18146089512E+04  0.91295988382E+02 0.  0.
         11    1    3    3    0    0 -0.45580374332E+03  0.33113359090E+03  0.79783074847E+02  0.56900953110E+03  0.00000000000E+00 0. -1.
        -11    1    3    3    0    0 -0.10432663088E+04  0.67818823663E+03  0.56338619610E+02  0.12455994201E+04  0.00000000000E+00 0.  1.
         22    1    1    2    0    0  0.14990700521E+04 -0.10093218275E+04 -0.16467387574E+04  0.24449315139E+04  0.00000000000E+00 0.  1.
<mgrwt>
<rscale>  0 0.39826776E+04</rscale>
<asrwt>0</asrwt>
<pdfrwt beam="1">  1        2 0.44385827E+00 0.39826776E+04</pdfrwt>
<pdfrwt beam="2">  1       -2 0.21145565E+00 0.39826776E+04</pdfrwt>
<totfact> 0.18158652E-01</totfact>
</mgrwt>
</event>
<event>
 6    1  0.1603085E-006  0.3892391E+04  0.7818608E-02  0.8026614E-01
          2   -1    0    0  501    0  0.00000000000E+00  0.00000000000E+00  0.44342649757E+04  0.44342649757E+04  0.00000000000E+00 0.  1.
         -2   -1    0    0    0  501 -0.00000000000E+00 -0.00000000000E+00 -0.85418388176E+03  0.85418388176E+03  0.00000000000E+00 0. -1.
         23    2    1    2    0    0  0.11737127285E+04  0.97159532961E+03  0.34337926685E+04  0.37577629468E+04  0.90836230221E+02 0.  0.
         11    1    3    3    0    0  0.14927037450E+03  0.88876765611E+02  0.41798936390E+03  0.45265420853E+03  0.00000000000E+00 0. -1.
        -11    1    3    3    0    0  0.10244423540E+04  0.88271856400E+03  0.30158033046E+04  0.33051087383E+04  0.00000000000E+00 0.  1.
         22    1    1    2    0    0 -0.11737127285E+04 -0.97159532961E+03  0.14628842547E+03  0.15306859107E+04  0.00000000000E+00 0.  1.
<mgrwt>
<rscale>  0 0.38923914E+04</rscale>
<asrwt>0</asrwt>
<pdfrwt beam="1">  1        2 0.68219460E+00 0.38923914E+04</pdfrwt>
<pdfrwt beam="2">  1       -2 0.13141291E+00 0.38923914E+04</pdfrwt>
<totfact> 0.47598946E-02</totfact>
</mgrwt>
</event>
<event>
 6    1  0.1603085E-006  0.2889226E+04  0.7818608E-02  0.8276090E-01
         -2   -1    0    0    0  501 -0.00000000000E+00  0.00000000000E+00  0.80802563805E+03  0.80802563805E+03  0.00000000000E+00 0.  1.
          2   -1    0    0  501    0  0.00000000000E+00 -0.00000000000E+00 -0.25827234263E+04  0.25827234263E+04  0.00000000000E+00 0. -1.
         23    2    1    2    0    0 -0.73175636786E+03 -0.42183528885E+02  0.57133394752E+03  0.93288174953E+03  0.81234518662E+02 0.  0.
         13    1    3    3    0    0 -0.21527436183E+03 -0.49633308302E+02  0.17033274055E+03  0.27896193048E+03  0.00000000000E+00 0. -1.
        -13    1    3    3    0    0 -0.51648200603E+03  0.74497794177E+01  0.40100120697E+03  0.65391981906E+03  0.00000000000E+00 0.  1.
         22    1    1    2    0    0  0.73175636786E+03  0.42183528885E+02 -0.23460317358E+04  0.24578673149E+04  0.00000000000E+00 0. -1.
<mgrwt>
<rscale>  0 0.28892260E+04</rscale>
<asrwt>0</asrwt>
<pdfrwt beam="1">  1        2 0.39734206E+00 0.28892260E+04</pdfrwt>
<pdfrwt beam="2">  1       -2 0.12431164E+00 0.28892260E+04</pdfrwt>
<totfact> 0.13078980E+00</totfact>
</mgrwt>
</event>
<event>
 6    1  0.1603085E-006  0.1830982E+04  0.7818608E-02  0.8689995E-01
          3   -1    0    0  501    0  0.00000000000E+00  0.00000000000E+00  0.87839795107E+03  0.87839795107E+03  0.00000000000E+00 0. -1.
         -3   -1    0    0    0  501 -0.00000000000E+00 -0.00000000000E+00 -0.95415076455E+03  0.95415076455E+03  0.00000000000E+00 0.  1.
         23    2    1    2    0    0 -0.27556894799E+03  0.85845745991E+03  0.11257546863E+03  0.91148682985E+03  0.72439970141E+02 0.  0.
         13    1    3    3    0    0 -0.70885145674E+02  0.33188371491E+03  0.33379521360E+02  0.34100688636E+03  0.00000000000E+00 0. -1.
        -13    1    3    3    0    0 -0.20468380232E+03  0.52657374500E+03  0.79195947271E+02  0.57047994348E+03  0.00000000000E+00 0.  1.
         22    1    1    2    0    0  0.27556894799E+03 -0.85845745991E+03 -0.18832828212E+03  0.92106188577E+03  0.00000000000E+00 0.  1.
<mgrwt>
<rscale>  0 0.18309823E+04</rscale>
<asrwt>0</asrwt>
<pdfrwt beam="1">  1        3 0.13513815E+00 0.18309823E+04</pdfrwt>
<pdfrwt beam="2">  1       -3 0.14679243E+00 0.18309823E+04</pdfrwt>
<totfact> 0.35475273E-01</totfact>
</mgrwt>
</event>
<event>
 6    1  0.1603085E-006  0.1657011E+04  0.7818608E-02  0.8786269E-01
         -2   -1    0    0    0  501 -0.00000000000E+00  0.00000000000E+00  0.97456476455E+03  0.97456476455E+03  0.00000000000E+00 0.  1.
          2   -1    0    0  501    0  0.00000000000E+00 -0.00000000000E+00 -0.70433671672E+03  0.70433671672E+03  0.00000000000E+00 0. -1.
         23    2    1    2    0    0  0.33837671841E+03  0.75052873424E+03  0.68052178716E+02  0.83115902832E+03  0.91662679655E+02 0.  0.
         13    1    3    3    0    0  0.22632805755E+03  0.40304479491E+03  0.17519397559E+02  0.46257585932E+03  0.00000000000E+00 0. -1.
        -13    1    3    3    0    0  0.11204866086E+03  0.34748393934E+03  0.50532781157E+02  0.36858316900E+03  0.00000000000E+00 0.  1.
         22    1    1    2    0    0 -0.33837671841E+03 -0.75052873424E+03  0.20217586912E+03  0.84774245296E+03  0.00000000000E+00 0. -1.
<mgrwt>
<rscale>  0 0.16570115E+04</rscale>
<asrwt>0</asrwt>
<pdfrwt beam="1">  1        2 0.10835950E+00 0.16570115E+04</pdfrwt>
<pdfrwt beam="2">  1       -2 0.14993304E+00 0.16570115E+04</pdfrwt>
<totfact> 0.11636412E+01</totfact>
</mgrwt>
</event>
<event>
 6    1  0.1603085E-006  0.2469653E+04  0.7818608E-02  0.8413877E-01
         -2   -1    0    0    0  501 -0.00000000000E+00  0.00000000000E+00  0.56559067931E+03  0.56559067931E+03  0.00000000000E+00 0.  1.
          2   -1    0    0  501    0  0.00000000000E+00 -0.00000000000E+00 -0.26959355333E+04  0.26959355333E+04  0.00000000000E+00 0. -1.
         23    2    1    2    0    0 -0.11467904442E+03 -0.66164139245E+03 -0.24326028562E+04  0.25251292305E+04  0.88319643185E+02 0.  0.
         13    1    3    3    0    0 -0.54050006346E+02 -0.30840458592E+03 -0.12999069676E+04  0.13370837357E+04  0.00000000000E+00 0. -1.
        -13    1    3    3    0    0 -0.60629038075E+02 -0.35323680653E+03 -0.11326958886E+04  0.11880454948E+04  0.00000000000E+00 0.  1.
         22    1    1    2    0    0  0.11467904442E+03  0.66164139245E+03  0.30225800217E+03  0.73639698215E+03  0.00000000000E+00 0.  1.
<mgrwt>
<rscale>  0 0.24696526E+04</rscale>
<asrwt>0</asrwt>
<pdfrwt beam="1">  1        2 0.41475932E+00 0.24696526E+04</pdfrwt>
<pdfrwt beam="2">  1       -2 0.87013950E-01 0.24696526E+04</pdfrwt>
<totfact> 0.27266890E+00</totfact>
</mgrwt>
</event>
<event>
 6    1  0.1603085E-006  0.3076368E+04  0.7818608E-02  0.8222254E-01
         -1   -1    0    0    0  501 -0.00000000000E+00  0.00000000000E+00  0.80107676889E+03  0.80107676889E+03  0.00000000000E+00 0.  1.
          1   -1    0    0  501    0  0.00000000000E+00 -0.00000000000E+00 -0.29535373865E+04  0.29535373865E+04  0.00000000000E+00 0. -1.
         23    2    1    2    0    0  0.31865241281E+03  0.65824916088E+03  0.57253625272E+03  0.93318911451E+03  0.90624746963E+02 0.  0.
         13    1    3    3    0    0  0.30967043763E+02  0.10216123718E+03  0.12036479110E+03  0.16088368195E+03  0.00000000000E+00 0. -1.
        -13    1    3    3    0    0  0.28768536905E+03  0.55608792370E+03  0.45217146163E+03  0.77230543256E+03  0.00000000000E+00 0.  1.
         22    1    1    2    0    0 -0.31865241281E+03 -0.65824916088E+03 -0.27249968703E+04  0.28214250409E+04  0.00000000000E+00 0. -1.
<mgrwt>
<rscale>  0 0.30763681E+04</rscale>
<asrwt>0</asrwt>
<pdfrwt beam="1">  1        1 0.45439037E+00 0.30763681E+04</pdfrwt>
<pdfrwt beam="2">  1       -1 0.12324258E+00 0.30763681E+04</pdfrwt>
<totfact> 0.31647065E-01</totfact>
</mgrwt>
</event>
<event>
 6    1  0.1603085E-006  0.4346308E+04  0.7818608E-02  0.7938110E-01
          1   -1    0    0  501    0  0.00000000000E+00  0.00000000000E+00  0.44111261888E+04  0.44111261888E+04  0.00000000000E+00 0. -1.
         -1   -1    0    0    0  501 -0.00000000000E+00 -0.00000000000E+00 -0.10706106353E+04  0.10706106353E+04  0.00000000000E+00 0.  1.
         23    2    1    2    0    0 -0.71182635339E+03 -0.14484861672E+04  0.35046833827E+04  0.38594668065E+04  0.88710111968E+02 0.  0.
         13    1    3    3    0    0 -0.53886442852E+03 -0.10220844019E+04  0.24510571833E+04  0.27097440309E+04  0.00000000000E+00 0. -1.
        -13    1    3    3    0    0 -0.17296192487E+03 -0.42640176530E+03  0.10536261994E+04  0.11497227757E+04  0.00000000000E+00 0.  1.
         22    1    1    2    0    0  0.71182635339E+03  0.14484861672E+04 -0.16416782913E+03  0.16222700176E+04  0.00000000000E+00 0.  1.
<mgrwt>
<rscale>  0 0.43463081E+04</rscale>
<asrwt>0</asrwt>
<pdfrwt beam="1">  1        1 0.67863479E+00 0.43463081E+04</pdfrwt>
<pdfrwt beam="2">  1       -1 0.16470933E+00 0.43463081E+04</pdfrwt>
<totfact> 0.80706271E-03</totfact>
</mgrwt>
</event>
<event>
 6    1  0.1603085E-006  0.2684049E+04  0.7818608E-02  0.8340199E-01
          2   -1    0    0  501    0  0.00000000000E+00  0.00000000000E+00  0.21248397679E+04  0.21248397679E+04  0.00000000000E+00 0. -1.
         -2   -1    0    0    0  501 -0.00000000000E+00 -0.00000000000E+00 -0.84760726860E+03  0.84760726860E+03  0.00000000000E+00 0.  1.
         23    2    1    2    0    0 -0.10645358451E+04  0.58871581553E+03  0.15718823307E+02  0.12199517778E+04  0.90622192712E+02 0.  0.
         13    1    3    3    0    0 -0.16471040594E+03  0.90596429592E+02  0.35297209911E+02  0.19126715324E+03  0.00000000000E+00 0. -1.
        -13    1    3    3    0    0 -0.89982543917E+03  0.49811938594E+03 -0.19578386604E+02  0.10286846246E+04  0.00000000000E+00 0.  1.
         22    1    1    2    0    0  0.10645358451E+04 -0.58871581553E+03  0.12615136760E+04  0.17524952587E+04  0.00000000000E+00 0. -1.
<mgrwt>
<rscale>  0 0.26840489E+04</rscale>
<asrwt>0</asrwt>
<pdfrwt beam="1">  1        2 0.32689843E+00 0.26840489E+04</pdfrwt>
<pdfrwt beam="2">  1       -2 0.13040112E+00 0.26840489E+04</pdfrwt>
<totfact> 0.21541165E+00</totfact>
</mgrwt>
</event>
<event>
 6    1  0.1603085E-006  0.5651293E+04  0.7818608E-02  0.7735208E-01
         -2   -1    0    0    0  501 -0.00000000000E+00  0.00000000000E+00  0.44318860101E+04  0.44318860101E+04  0.00000000000E+00 0.  1.
          2   -1    0    0  501    0  0.00000000000E+00 -0.00000000000E+00 -0.18015529072E+04  0.18015529072E+04  0.00000000000E+00 0. -1.
         23    2    1    2    0    0  0.20887719009E+04  0.18940711122E+04  0.11288953189E+04  0.30389453971E+04  0.10154335704E+03 0.  0.
         11    1    3    3    0    0  0.59080010530E+03  0.58398806210E+03  0.36424583257E+03  0.90706220715E+03  0.00000000000E+00 0. -1.
        -11    1    3    3    0    0  0.14979717956E+04  0.13100830501E+04  0.76464948636E+03  0.21318831899E+04  0.00000000000E+00 0.  1.
         22    1    1    2    0    0 -0.20887719009E+04 -0.18940711122E+04  0.15014377839E+04  0.31944935203E+04  0.00000000000E+00 0.  1.
<mgrwt>
<rscale>  0 0.56512926E+04</rscale>
<asrwt>0</asrwt>
<pdfrwt beam="1">  1        2 0.27716199E+00 0.56512926E+04</pdfrwt>
<pdfrwt beam="2">  1       -2 0.68182861E+00 0.56512926E+04</pdfrwt>
<totfact> 0.15917171E-03</totfact>
</mgrwt>
</event>
<event>
 6    1  0.1603085E-006  0.1621493E+04  0.7818608E-02  0.8807452E-01
          2   -1    0    0  501    0  0.00000000000E+00  0.00000000000E+00  0.35957941164E+03  0.35957941164E+03  0.00000000000E+00 0. -1.
         -2   -1    0    0    0  501 -0.00000000000E+00 -0.00000000000E+00 -0.18279964074E+04  0.18279964074E+04  0.00000000000E+00 0.  1.
         23    2    1    2    0    0 -0.21066878512E+03 -0.66176243538E+03 -0.12939629403E+04  0.14715136183E+04  0.93281187630E+02 0.  0.
         13    1    3    3    0    0 -0.12264181232E+03 -0.50974176439E+03 -0.93864896704E+03  0.10751462988E+04  0.00000000000E+00 0.  1.
        -13    1    3    3    0    0 -0.88026972797E+02 -0.15202067099E+03 -0.35531397325E+03  0.39636731946E+03  0.00000000000E+00 0. -1.
         22    1    1    2    0    0  0.21066878512E+03  0.66176243538E+03 -0.17445405545E+03  0.71606220077E+03  0.00000000000E+00 0. -1.
<mgrwt>
<rscale>  0 0.16214930E+04</rscale>
<asrwt>0</asrwt>
<pdfrwt beam="1">  1        2 0.55319910E-01 0.16214930E+04</pdfrwt>
<pdfrwt beam="2">  1       -2 0.28123021E+00 0.16214930E+04</pdfrwt>
<totfact> 0.35586108E+00</totfact>
</mgrwt>
</event>
<event>
 6    1  0.1603085E-006  0.3686836E+04  0.7818608E-02  0.8070885E-01
         -2   -1    0    0    0  501 -0.00000000000E+00  0.00000000000E+00  0.20435605746E+04  0.20435605746E+04  0.00000000000E+00 0.  1.
          2   -1    0    0  501    0  0.00000000000E+00 -0.00000000000E+00 -0.16628766605E+04  0.16628766605E+04  0.00000000000E+00 0. -1.
         23    2    1    2    0    0 -0.70725534603E+03  0.20153805279E+03  0.18886200588E+04  0.20287307270E+04  0.89637742223E+02 0.  0.
         13    1    3    3    0    0 -0.58343749124E+03  0.19638632134E+03  0.15245380673E+04  0.16441360078E+04  0.00000000000E+00 0.  1.
        -13    1    3    3    0    0 -0.12381785479E+03  0.51517314549E+01  0.36408199150E+03  0.38459471920E+03  0.00000000000E+00 0. -1.
         22    1    1    2    0    0  0.70725534603E+03 -0.20153805279E+03 -0.15079361446E+04  0.16777065081E+04  0.00000000000E+00 0. -1.
<mgrwt>
<rscale>  0 0.36868356E+04</rscale>
<asrwt>0</asrwt>
<pdfrwt beam="1">  1        2 0.25582718E+00 0.36868356E+04</pdfrwt>
<pdfrwt beam="2">  1       -2 0.31439393E+00 0.36868356E+04</pdfrwt>
<totfact> 0.21579438E-01</totfact>
</mgrwt>
</event>
<event>
 6    1  0.1603085E-006  0.2687172E+04  0.7818608E-02  0.8339179E-01
         -2   -1    0    0    0  501 -0.00000000000E+00  0.00000000000E+00  0.10054122157E+04  0.10054122157E+04  0.00000000000E+00 0.  1.
          2   -1    0    0  501    0  0.00000000000E+00 -0.00000000000E+00 -0.17955060580E+04  0.17955060580E+04  0.00000000000E+00 0. -1.
         23    2    1    2    0    0 -0.35822916963E+03  0.46831289963E+03  0.86111424172E+03  0.10475976394E+04  0.91093176450E+02 0.  0.
         11    1    3    3    0    0 -0.38706709493E+02  0.70153957429E+02  0.17425858755E+03  0.19179635669E+03  0.00000000000E+00 0.  1.
        -11    1    3    3    0    0 -0.31952246014E+03  0.39815894220E+03  0.68685565417E+03  0.85580128269E+03  0.00000000000E+00 0. -1.
         22    1    1    2    0    0  0.35822916963E+03 -0.46831289963E+03 -0.16512080840E+04  0.17533206343E+04  0.00000000000E+00 0. -1.
<mgrwt>
<rscale>  0 0.26871723E+04</rscale>
<asrwt>0</asrwt>
<pdfrwt beam="1">  1        2 0.27623170E+00 0.26871723E+04</pdfrwt>
<pdfrwt beam="2">  1       -2 0.15467880E+00 0.26871723E+04</pdfrwt>
<totfact> 0.21042951E+00</totfact>
</mgrwt>
</event>
<event>
 6    1  0.1603085E-006  0.1875162E+04  0.7818608E-02  0.8667319E-01
          3   -1    0    0  501    0  0.00000000000E+00  0.00000000000E+00  0.17275978299E+04  0.17275978299E+04  0.00000000000E+00 0. -1.
         -3   -1    0    0    0  501 -0.00000000000E+00 -0.00000000000E+00 -0.50883270262E+03  0.50883270262E+03  0.00000000000E+00 0.  1.
         23    2    1    2    0    0  0.78155200054E+03  0.19908564551E+03  0.11758458438E+04  0.14287791915E+04  0.91312134692E+02 0.  0.
         13    1    3    3    0    0  0.37398230938E+03  0.55192726468E+02  0.50681537497E+03  0.63227433056E+03  0.00000000000E+00 0.  1.
        -13    1    3    3    0    0  0.40756969115E+03  0.14389291904E+03  0.66903046883E+03  0.79650486095E+03  0.00000000000E+00 0. -1.
         22    1    1    2    0    0 -0.78155200054E+03 -0.19908564551E+03  0.42919283524E+02  0.80765134104E+03  0.00000000000E+00 0.  1.
<mgrwt>
<rscale>  0 0.18751622E+04</rscale>
<asrwt>0</asrwt>
<pdfrwt beam="1">  1        3 0.26578428E+00 0.18751622E+04</pdfrwt>
<pdfrwt beam="2">  1       -3 0.78281955E-01 0.18751622E+04</pdfrwt>
<totfact> 0.22509445E-01</totfact>
</mgrwt>
</event>
<event>
 6    1  0.1603085E-006  0.7510891E+03  0.7818608E-02  0.9633643E-01
         -1   -1    0    0    0  501 -0.00000000000E+00  0.00000000000E+00  0.60282456739E+02  0.60282456739E+02  0.00000000000E+00 0.  1.
          1   -1    0    0  501    0  0.00000000000E+00 -0.00000000000E+00 -0.23395479573E+04  0.23395479573E+04  0.00000000000E+00 0. -1.
         23    2    1    2    0    0  0.36283469688E+03  0.57992367078E+02 -0.12972128340E+04  0.13512887736E+04  0.90598460154E+02 0.  0.
         13    1    3    3    0    0  0.31566158889E+03  0.42381117569E+02 -0.98681381514E+03  0.10369377530E+04  0.00000000000E+00 0.  1.
        -13    1    3    3    0    0  0.47173107985E+02  0.15611249509E+02 -0.31039901889E+03  0.31435102061E+03  0.00000000000E+00 0. -1.
         22    1    1    2    0    0 -0.36283469688E+03 -0.57992367078E+02 -0.98205266651E+03  0.10485416404E+04  0.00000000000E+00 0.  1.
<mgrwt>
<rscale>  0 0.75108907E+03</rscale>
<asrwt>0</asrwt>
<pdfrwt beam="1">  1        1 0.35993045E+00 0.75108907E+03</pdfrwt>
<pdfrwt beam="2">  1       -1 0.92742243E-02 0.75108907E+03</pdfrwt>
<totfact> 0.12900640E+02</totfact>
</mgrwt>
</event>
<event>
 6    1  0.1603085E-006  0.3364632E+04  0.7818608E-02  0.8146642E-01
          1   -1    0    0  501    0  0.00000000000E+00  0.00000000000E+00  0.17509034930E+04  0.17509034930E+04  0.00000000000E+00 0. -1.
         -1   -1    0    0    0  501 -0.00000000000E+00 -0.00000000000E+00 -0.16164153534E+04  0.16164153534E+04  0.00000000000E+00 0.  1.
         23    2    1    2    0    0  0.15624601659E+04  0.37095705488E+03  0.56417507091E+03  0.17049344848E+04  0.98067224207E+02 0.  0.
         13    1    3    3    0    0  0.79513514299E+03  0.13919244478E+03  0.29235285324E+03  0.85853632603E+03  0.00000000000E+00 0.  1.
        -13    1    3    3    0    0  0.76732502289E+03  0.23176461009E+03  0.27182221767E+03  0.84639815882E+03  0.00000000000E+00 0. -1.
         22    1    1    2    0    0 -0.15624601659E+04 -0.37095705488E+03 -0.42968693135E+03  0.16623843615E+04  0.00000000000E+00 0.  1.
<mgrwt>
<rscale>  0 0.33646321E+04</rscale>
<asrwt>0</asrwt>
<pdfrwt beam="1">  1        1 0.26936977E+00 0.33646321E+04</pdfrwt>
<pdfrwt beam="2">  1       -1 0.24867929E+00 0.33646321E+04</pdfrwt>
<totfact> 0.25820895E-01</totfact>
</mgrwt>
</event>
<event>
 6    1  0.1603085E-006  0.9286681E+03  0.7818608E-02  0.9390438E-01
         -2   -1    0    0    0  501 -0.00000000000E+00  0.00000000000E+00  0.17358692088E+03  0.17358692088E+03  0.00000000000E+00 0. -1.
          2   -1    0    0  501    0  0.00000000000E+00 -0.00000000000E+00 -0.12420641902E+04  0.12420641902E+04  0.00000000000E+00 0.  1.
         23    2    1    2    0    0  0.26813658998E+03 -0.80091663688E+02 -0.10956739786E+04  0.11344900070E+04  0.90852645384E+02 0.  0.
         13    1    3    3    0    0  0.12747131595E+03 -0.75169345202E+02 -0.67004463872E+03  0.68619179879E+03  0.00000000000E+00 0.  1.
        -13    1    3    3    0    0  0.14066527404E+03 -0.49223184855E+01 -0.42562933986E+03  0.44829820821E+03  0.00000000000E+00 0. -1.
         22    1    1    2    0    0 -0.26813658998E+03  0.80091663688E+02  0.27196709215E+02  0.28116110412E+03  0.00000000000E+00 0. -1.
<mgrwt>
<rscale>  0 0.92866807E+03</rscale>
<asrwt>0</asrwt>
<pdfrwt beam="1">  1        2 0.19108679E+00 0.92866807E+03</pdfrwt>
<pdfrwt beam="2">  1       -2 0.26705681E-01 0.92866807E+03</pdfrwt>
<totfact> 0.22741207E+02</totfact>
</mgrwt>
</event>
<event>
 6    1  0.1603085E-006  0.2391534E+04  0.7818608E-02  0.8442680E-01
          2   -1    0    0  501    0  0.00000000000E+00  0.00000000000E+00  0.24899763655E+04  0.24899763655E+04  0.00000000000E+00 0. -1.
         -2   -1    0    0    0  501 -0.00000000000E+00 -0.00000000000E+00 -0.57424599613E+03  0.57424599613E+03  0.00000000000E+00 0.  1.
         23    2    1    2    0    0  0.11229307770E+04  0.16225195482E+03  0.14365370811E+04  0.18325870932E+04  0.86240606827E+02 0.  0.
         11    1    3    3    0    0  0.39935489264E+03  0.63724577965E+02  0.57900257595E+03  0.70625005138E+03  0.00000000000E+00 0. -1.
        -11    1    3    3    0    0  0.72357588434E+03  0.98527376860E+02  0.85753450511E+03  0.11263370419E+04  0.00000000000E+00 0.  1.
         22    1    1    2    0    0 -0.11229307770E+04 -0.16225195482E+03  0.47919328827E+03  0.12316352684E+04  0.00000000000E+00 0.  1.
<mgrwt>
<rscale>  0 0.23915342E+04</rscale>
<asrwt>0</asrwt>
<pdfrwt beam="1">  1        2 0.38307328E+00 0.23915342E+04</pdfrwt>
<pdfrwt beam="2">  1       -2 0.88345540E-01 0.23915342E+04</pdfrwt>
<totfact> 0.35012481E+00</totfact>
</mgrwt>
</event>
<event>
 6    1  0.1603085E-006  0.1534194E+04  0.7818608E-02  0.8862028E-01
         -1   -1    0    0    0  501 -0.00000000000E+00  0.00000000000E+00  0.91582516173E+03  0.91582516173E+03  0.00000000000E+00 0.  1.
          1   -1    0    0  501    0  0.00000000000E+00 -0.00000000000E+00 -0.64252172645E+03  0.64252172645E+03  0.00000000000E+00 0. -1.
         23    2    1    2    0    0 -0.33866360433E+03  0.97097947653E+02 -0.55195099185E+03  0.66103650830E+03  0.90544572247E+02 0.  0.
         11    1    3    3    0    0 -0.27381826850E+03  0.11043444484E+03 -0.41978557122E+03  0.51321743596E+03  0.00000000000E+00 0.  1.
        -11    1    3    3    0    0 -0.64845335835E+02 -0.13336497187E+02 -0.13216542063E+03  0.14781907234E+03  0.00000000000E+00 0. -1.
         22    1    1    2    0    0  0.33866360433E+03 -0.97097947653E+02  0.82525442713E+03  0.89731037988E+03  0.00000000000E+00 0.  1.
<mgrwt>
<rscale>  0 0.15341937E+04</rscale>
<asrwt>0</asrwt>
<pdfrwt beam="1">  1        1 0.98849496E-01 0.15341937E+04</pdfrwt>
<pdfrwt beam="2">  1       -1 0.14089618E+00 0.15341937E+04</pdfrwt>
<totfact> 0.12322146E+01</totfact>
</mgrwt>
</event>
<event>
 6    1  0.1603085E-006  0.1226287E+04  0.7818608E-02  0.9090154E-01
         -1   -1    0    0    0  501 -0.00000000000E+00  0.00000000000E+00  0.32808118523E+03  0.32808118523E+03  0.00000000000E+00 0.  1.
          1   -1    0    0  501    0  0.00000000000E+00 -0.00000000000E+00 -0.11458890765E+04  0.11458890765E+04  0.00000000000E+00 0. -1.
         23    2    1    2    0    0 -0.20635491298E+03  0.88098218643E+02  0.27023594172E+03  0.36303235674E+03  0.91768085962E+02 0.  0.
         11    1    3    3    0    0 -0.77630050246E+02  0.61277074351E+02  0.17380205690E+03  0.19997114673E+03  0.00000000000E+00 0. -1.
        -11    1    3    3    0    0 -0.12872486273E+03  0.26821144292E+02  0.96433884819E+02  0.16306121000E+03  0.00000000000E+00 0.  1.
         22    1    1    2    0    0  0.20635491298E+03 -0.88098218643E+02 -0.10880438330E+04  0.11109379050E+04  0.00000000000E+00 0. -1.
<mgrwt>
<rscale>  0 0.12262865E+04</rscale>
<asrwt>0</asrwt>
<pdfrwt beam="1">  1        1 0.17629063E+00 0.12262865E+04</pdfrwt>
<pdfrwt beam="2">  1       -1 0.50474028E-01 0.12262865E+04</pdfrwt>
<totfact> 0.45608472E+01</totfact>
</mgrwt>
</event>
<event>
 6    1  0.1603085E-006  0.2680705E+04  0.7818608E-02  0.8341293E-01
          1   -1    0    0  501    0  0.00000000000E+00  0.00000000000E+00  0.27483468686E+04  0.27483468686E+04  0.00000000000E+00 0. -1.
         -1   -1    0    0    0  501 -0.00000000000E+00 -0.00000000000E+00 -0.65368178590E+03  0.65368178590E+03  0.00000000000E+00 0.  1.
         23    2    1    2    0    0 -0.10526959216E+04  0.80218490042E+03  0.13044924545E+04  0.18605870888E+04  0.91730221414E+02 0.  0.
         11    1    3    3    0    0 -0.41067110623E+03  0.25949565237E+03  0.46090931037E+03  0.66964628236E+03  0.00000000000E+00 0. -1.
        -11    1    3    3    0    0 -0.64202481540E+03  0.54268924805E+03  0.84358314409E+03  0.11909408065E+04  0.00000000000E+00 0.  1.
         22    1    1    2    0    0  0.10526959216E+04 -0.80218490042E+03  0.79017262819E+03  0.15414415656E+04  0.00000000000E+00 0.  1.
<mgrwt>
<rscale>  0 0.26807046E+04</rscale>
<asrwt>0</asrwt>
<pdfrwt beam="1">  1        1 0.42282259E+00 0.26807046E+04</pdfrwt>
<pdfrwt beam="2">  1       -1 0.10056643E+00 0.26807046E+04</pdfrwt>
<totfact> 0.74596928E-01</totfact>
</mgrwt>
</event>
<event>
 6    1  0.1603085E-006  0.1311994E+04  0.7818608E-02  0.9020108E-01
         -1   -1    0    0    0  501 -0.00000000000E+00  0.00000000000E+00  0.20697165993E+03  0.20697165993E+03  0.00000000000E+00 0.  1.
          1   -1    0    0  501    0  0.00000000000E+00 -0.00000000000E+00 -0.20791824986E+04  0.20791824986E+04  0.00000000000E+00 0. -1.
         23    2    1    2    0    0 -0.14400868931E+03 -0.63379285372E+03 -0.10473363781E+04  0.12359876194E+04  0.91214158010E+02 0.  0.
         13    1    3    3    0    0 -0.68732712228E+02 -0.16041970528E+03 -0.23393407207E+03  0.29186266915E+03  0.00000000000E+00 0.  1.
        -13    1    3    3    0    0 -0.75275977082E+02 -0.47337314844E+03 -0.81340230598E+03  0.94412495030E+03  0.00000000000E+00 0. -1.
         22    1    1    2    0    0  0.14400868931E+03  0.63379285372E+03 -0.82487446058E+03  0.10501665390E+04  0.00000000000E+00 0.  1.
<mgrwt>
<rscale>  0 0.13119937E+04</rscale>
<asrwt>0</asrwt>
<pdfrwt beam="1">  1        1 0.31987424E+00 0.13119937E+04</pdfrwt>
<pdfrwt beam="2">  1       -1 0.31841793E-01 0.13119937E+04</pdfrwt>
<totfact> 0.23778763E+01</totfact>
</mgrwt>
</event>
<event>
 6    1  0.1603085E-006  0.1784123E+04  0.7818608E-02  0.8714789E-01
         -1   -1    0    0    0  501 -0.00000000000E+00  0.00000000000E+00  0.36735530202E+03  0.36735530202E+03  0.00000000000E+00 0. -1.
          1   -1    0    0  501    0  0.00000000000E+00 -0.00000000000E+00 -0.21662224812E+04  0.21662224812E+04  0.00000000000E+00 0.  1.
         23    2    1    2    0    0 -0.42065974468E+02  0.46297893387E+03  0.17561136425E+03  0.50510925798E+03  0.90426610187E+02 0.  0.
         13    1    3    3    0    0  0.50455411812E+01  0.36341293518E+03  0.13533443589E+03  0.38782706002E+03  0.00000000000E+00 0. -1.
        -13    1    3    3    0    0 -0.47111515649E+02  0.99565998689E+02  0.40276928354E+02  0.11728219796E+03  0.00000000000E+00 0.  1.
         22    1    1    2    0    0  0.42065974468E+02 -0.46297893387E+03 -0.19744785435E+04  0.20284685253E+04  0.00000000000E+00 0.  1.
<mgrwt>
<rscale>  0 0.17841225E+04</rscale>
<asrwt>0</asrwt>
<pdfrwt beam="1">  1        1 0.33326501E+00 0.17841225E+04</pdfrwt>
<pdfrwt beam="2">  1       -1 0.56516199E-01 0.17841225E+04</pdfrwt>
<totfact> 0.68802712E+00</totfact>
</mgrwt>
</event>
<event>
 6    1  0.1603085E-006  0.1476387E+04  0.7818608E-02  0.8900309E-01
         -1   -1    0    0    0  501 -0.00000000000E+00  0.00000000000E+00  0.25803941365E+03  0.25803941365E+03  0.00000000000E+00 0.  1.
          1   -1    0    0  501    0  0.00000000000E+00 -0.00000000000E+00 -0.21118068355E+04  0.21118068355E+04  0.00000000000E+00 0. -1.
         23    2    1    2    0    0 -0.32832449241E+03 -0.26001284475E+02 -0.19856455446E+04  0.20150718442E+04  0.96193915724E+02 0.  0.
         11    1    3    3    0    0 -0.23186469076E+03 -0.19829621223E+02 -0.16299037966E+04  0.16464327605E+04  0.00000000000E+00 0. -1.
        -11    1    3    3    0    0 -0.96459801656E+02 -0.61716632527E+01 -0.35574174798E+03  0.36863908368E+03  0.00000000000E+00 0.  1.
         22    1    1    2    0    0  0.32832449241E+03  0.26001284475E+02  0.13187812279E+03  0.35477440491E+03  0.00000000000E+00 0.  1.
<mgrwt>
<rscale>  0 0.14763867E+04</rscale>
<asrwt>0</asrwt>
<pdfrwt beam="1">  1        1 0.32489335E+00 0.14763867E+04</pdfrwt>
<pdfrwt beam="2">  1       -1 0.39698372E-01 0.14763867E+04</pdfrwt>
<totfact> 0.14990495E+01</totfact>
</mgrwt>
</event>
<event>
 6    1  0.1603085E-006  0.4222748E+04  0.7818608E-02  0.7961059E-01
         -1   -1    0    0    0  501 -0.00000000000E+00  0.00000000000E+00  0.52408304350E+04  0.52408304350E+04  0.00000000000E+00 0.  1.
          1   -1    0    0  501    0  0.00000000000E+00 -0.00000000000E+00 -0.85060953272E+03  0.85060953272E+03  0.00000000000E+00 0. -1.
         23    2    1    2    0    0 -0.13207092429E+04  0.15660440728E+04  0.29273479470E+04  0.35741469324E+04  0.91615224043E+02 0.  0.
         13    1    3    3    0    0 -0.51041431273E+03  0.59174781745E+03  0.10412246540E+04  0.13018590670E+04  0.00000000000E+00 0. -1.
        -13    1    3    3    0    0 -0.81029493019E+03  0.97429625537E+03  0.18861232929E+04  0.22722878654E+04  0.00000000000E+00 0.  1.
         22    1    1    2    0    0  0.13207092429E+04 -0.15660440728E+04  0.14628729553E+04  0.25172930353E+04  0.00000000000E+00 0. -1.
<mgrwt>
<rscale>  0 0.42227481E+04</rscale>
<asrwt>0</asrwt>
<pdfrwt beam="1">  1        1 0.13086301E+00 0.42227481E+04</pdfrwt>
<pdfrwt beam="2">  1       -1 0.80628158E+00 0.42227481E+04</pdfrwt>
<totfact> 0.98290658E-04</totfact>
</mgrwt>
</event>
<event>
 6    1  0.1603085E-006  0.2340143E+04  0.7818608E-02  0.8462259E-01
         -1   -1    0    0    0  501 -0.00000000000E+00  0.00000000000E+00  0.10744492395E+04  0.10744492395E+04  0.00000000000E+00 0.  1.
          1   -1    0    0  501    0  0.00000000000E+00 -0.00000000000E+00 -0.12742042785E+04  0.12742042785E+04  0.00000000000E+00 0. -1.
         23    2    1    2    0    0 -0.27655751932E+03  0.25682629334E+03 -0.12096775610E+04  0.12705128467E+04  0.91865585149E+02 0.  0.
         13    1    3    3    0    0 -0.48560853924E+02  0.99404989839E+02 -0.31073668895E+03  0.32984359688E+03  0.00000000000E+00 0. -1.
        -13    1    3    3    0    0 -0.22799666540E+03  0.15742130350E+03 -0.89894087204E+03  0.94066924987E+03  0.00000000000E+00 0.  1.
         22    1    1    2    0    0  0.27655751932E+03 -0.25682629334E+03  0.10099225220E+04  0.10781406712E+04  0.00000000000E+00 0.  1.
<mgrwt>
<rscale>  0 0.23401434E+04</rscale>
<asrwt>0</asrwt>
<pdfrwt beam="1">  1        1 0.19603143E+00 0.23401434E+04</pdfrwt>
<pdfrwt beam="2">  1       -1 0.16529988E+00 0.23401434E+04</pdfrwt>
<totfact> 0.22670695E+00</totfact>
</mgrwt>
</event>
<event>
 6    1  0.1603085E-006  0.1000617E+04  0.7818608E-02  0.9307868E-01
          1   -1    0    0  501    0  0.00000000000E+00  0.00000000000E+00  0.60125481745E+03  0.60125481745E+03  0.00000000000E+00 0. -1.
         -1   -1    0    0    0  501 -0.00000000000E+00 -0.00000000000E+00 -0.41631026983E+03  0.41631026983E+03  0.00000000000E+00 0.  1.
         23    2    1    2    0    0  0.38614312555E+03  0.28919520451E+02 -0.22224719231E+03  0.45565053405E+03  0.90998585790E+02 0.  0.
         13    1    3    3    0    0  0.22119269334E+03  0.48314230512E+02 -0.16431683440E+03  0.27975077216E+03  0.00000000000E+00 0.  1.
        -13    1    3    3    0    0  0.16495043221E+03 -0.19394710061E+02 -0.57930357909E+02  0.17589976188E+03  0.00000000000E+00 0. -1.
         22    1    1    2    0    0 -0.38614312555E+03 -0.28919520451E+02  0.40719173994E+03  0.56191455324E+03  0.00000000000E+00 0. -1.
<mgrwt>
<rscale>  0 0.10006169E+04</rscale>
<asrwt>0</asrwt>
<pdfrwt beam="1">  1        1 0.92500741E-01 0.10006169E+04</pdfrwt>
<pdfrwt beam="2">  1       -1 0.64047734E-01 0.10006169E+04</pdfrwt>
<totfact> 0.84655254E+01</totfact>
</mgrwt>
</event>
<event>
 6    1  0.1603085E-006  0.2816182E+04  0.7818608E-02  0.8298262E-01
         -1   -1    0    0    0  501 -0.00000000000E+00  0.00000000000E+00  0.27469543269E+04  0.27469543269E+04  0.00000000000E+00 0.  1.
          1   -1    0    0  501    0  0.00000000000E+00 -0.00000000000E+00 -0.72178874465E+03  0.72178874465E+03  0.00000000000E+00 0. -1.
         23    2    1    2    0    0 -0.74003191819E+03  0.34313358759E+03  0.24248576080E+04  0.25603700125E+04  0.10085773804E+03 0.  0.
         13    1    3    3    0    0 -0.65334931619E+03  0.32743733669E+03  0.20886259883E+04  0.22127898810E+04  0.00000000000E+00 0. -1.
        -13    1    3    3    0    0 -0.86682601992E+02  0.15696250906E+02  0.33623161966E+03  0.34758013154E+03  0.00000000000E+00 0.  1.
         22    1    1    2    0    0  0.74003191819E+03 -0.34313358759E+03 -0.39969202573E+03  0.90837305899E+03  0.00000000000E+00 0. -1.
<mgrwt>
<rscale>  0 0.28161823E+04</rscale>
<asrwt>0</asrwt>
<pdfrwt beam="1">  1        1 0.11104442E+00 0.28161823E+04</pdfrwt>
<pdfrwt beam="2">  1       -1 0.42260835E+00 0.28161823E+04</pdfrwt>
<totfact> 0.11233053E-01</totfact>
</mgrwt>
</event>
<event>
 6    1  0.1603085E-006  0.1491254E+04  0.7818608E-02  0.8890290E-01
          2   -1    0    0  501    0  0.00000000000E+00  0.00000000000E+00  0.96937515650E+03  0.96937515650E+03  0.00000000000E+00 0. -1.
         -2   -1    0    0    0  501 -0.00000000000E+00 -0.00000000000E+00 -0.57352346076E+03  0.57352346076E+03  0.00000000000E+00 0.  1.
         23    2    1    2    0    0 -0.50075126271E+03  0.48932665080E+03  0.45551540327E+03  0.84022361679E+03  0.91044194230E+02 0.  0.
         11    1    3    3    0    0 -0.31050529144E+03  0.32136858163E+03  0.23975490711E+03  0.50712297991E+03  0.00000000000E+00 0. -1.
        -11    1    3    3    0    0 -0.19024597127E+03  0.16795806917E+03  0.21576049617E+03  0.33310063688E+03  0.00000000000E+00 0.  1.
         22    1    1    2    0    0  0.50075126271E+03 -0.48932665080E+03 -0.59663707534E+02  0.70267500047E+03  0.00000000000E+00 0.  1.
<mgrwt>
<rscale>  0 0.14912537E+04</rscale>
<asrwt>0</asrwt>
<pdfrwt beam="1">  1        2 0.14913464E+00 0.14912537E+04</pdfrwt>
<pdfrwt beam="2">  1       -2 0.88234379E-01 0.14912537E+04</pdfrwt>
<totfact> 0.28205793E+01</totfact>
</mgrwt>
</event>
<event>
 6    1  0.1603085E-006  0.6434011E+03  0.7818608E-02  0.9819241E-01
          2   -1    0    0  501    0  0.00000000000E+00  0.00000000000E+00  0.13182137477E+04  0.13182137477E+04  0.00000000000E+00 0. -1.
         -2   -1    0    0    0  501 -0.00000000000E+00 -0.00000000000E+00 -0.78508694326E+02  0.78508694326E+02  0.00000000000E+00 0.  1.
         23    2    1    2    0    0  0.29173309649E+03  0.11191777485E+03  0.72517382652E+03  0.79474555599E+03  0.90053496246E+02 0.  0.
         13    1    3    3    0    0  0.19291656401E+03  0.70663563386E+02  0.57261348421E+03  0.60835544064E+03  0.00000000000E+00 0.  1.
        -13    1    3    3    0    0  0.98816532478E+02  0.41254211464E+02  0.15256034231E+03  0.18639011535E+03  0.00000000000E+00 0. -1.
         22    1    1    2    0    0 -0.29173309649E+03 -0.11191777485E+03  0.51453122686E+03  0.60197688604E+03  0.00000000000E+00 0.  1.
<mgrwt>
<rscale>  0 0.64340109E+03</rscale>
<asrwt>0</asrwt>
<pdfrwt beam="1">  1        2 0.20280210E+00 0.64340109E+03</pdfrwt>
<pdfrwt beam="2">  1       -2 0.12078262E-01 0.64340109E+03</pdfrwt>
<totfact> 0.82304519E+02</totfact>
</mgrwt>
</event>
<event>
 6    1  0.1603085E-006  0.2615021E+04  0.7818608E-02  0.8363117E-01
          2   -1    0    0  501    0  0.00000000000E+00  0.00000000000E+00  0.36723450936E+04  0.36723450936E+04  0.00000000000E+00 0. -1.
         -2   -1    0    0    0  501 -0.00000000000E+00 -0.00000000000E+00 -0.46552903460E+03  0.46552903460E+03  0.00000000000E+00 0.  1.
         23    2    1    2    0    0  0.11117958881E+04  0.30279804857E+03  0.25777846489E+04  0.28250690132E+04  0.90909176120E+02 0.  0.
         13    1    3    3    0    0  0.59035101067E+03  0.11561873312E+03  0.13731660875E+04  0.14991554660E+04  0.00000000000E+00 0.  1.
        -13    1    3    3    0    0  0.52144487744E+03  0.18717931545E+03  0.12046185614E+04  0.13259135472E+04  0.00000000000E+00 0. -1.
         22    1    1    2    0    0 -0.11117958881E+04 -0.30279804857E+03  0.62903141010E+03  0.13128051150E+04  0.00000000000E+00 0.  1.
<mgrwt>
<rscale>  0 0.26150207E+04</rscale>
<asrwt>0</asrwt>
<pdfrwt beam="1">  1        2 0.56497615E+00 0.26150207E+04</pdfrwt>
<pdfrwt beam="2">  1       -2 0.71619854E-01 0.26150207E+04</pdfrwt>
<totfact> 0.95653206E-01</totfact>
</mgrwt>
</event>
<event>
 6    1  0.1603085E-006  0.3635564E+03  0.7818608E-02  0.1057185E+00
          1   -1    0    0  501    0  0.00000000000E+00  0.00000000000E+00  0.22356897854E+04  0.22356897854E+04  0.00000000000E+00 0. -1.
         -1   -1    0    0    0  501 -0.00000000000E+00 -0.00000000000E+00 -0.14779916731E+02  0.14779916731E+02  0.00000000000E+00 0.  1.
         23    2    1    2    0    0 -0.12283291038E+03  0.20033785665E+01  0.19133360011E+04  0.19192694283E+04  0.87455976052E+02 0.  0.
         11    1    3    3    0    0 -0.44113727777E+02 -0.32655727247E+02  0.11068234194E+04  0.11081834231E+04  0.00000000000E+00 0. -1.
        -11    1    3    3    0    0 -0.78719182607E+02  0.34659105813E+02  0.80651258173E+03  0.81108600519E+03  0.00000000000E+00 0.  1.
         22    1    1    2    0    0  0.12283291038E+03 -0.20033785665E+01  0.30757386752E+03  0.33120027382E+03  0.00000000000E+00 0.  1.
<mgrwt>
<rscale>  0 0.36355637E+03</rscale>
<asrwt>0</asrwt>
<pdfrwt beam="1">  1        1 0.34395201E+00 0.36355637E+03</pdfrwt>
<pdfrwt beam="2">  1       -1 0.22738351E-02 0.36355637E+03</pdfrwt>
<totfact> 0.13354678E+03</totfact>
</mgrwt>
</event>
<event>
 6    1  0.1603085E-006  0.8407950E+03  0.7818608E-02  0.9502776E-01
          1   -1    0    0  501    0  0.00000000000E+00  0.00000000000E+00  0.87682185973E+03  0.87682185973E+03  0.00000000000E+00 0. -1.
         -1   -1    0    0    0  501 -0.00000000000E+00 -0.00000000000E+00 -0.20156211775E+03  0.20156211775E+03  0.00000000000E+00 0.  1.
         23    2    1    2    0    0  0.46463411501E+02 -0.24735753741E+03  0.76554553188E+03  0.81099638657E+03  0.91162370056E+02 0.  0.
         11    1    3    3    0    0  0.72696368092E+02 -0.20440989602E+03  0.63817466275E+03  0.67404381734E+03  0.00000000000E+00 0. -1.
        -11    1    3    3    0    0 -0.26232956591E+02 -0.42947641386E+02  0.12737086914E+03  0.13695256922E+03  0.00000000000E+00 0.  1.
         22    1    1    2    0    0 -0.46463411501E+02  0.24735753741E+03 -0.90285789903E+02  0.26738759092E+03  0.00000000000E+00 0.  1.
<mgrwt>
<rscale>  0 0.84079503E+03</rscale>
<asrwt>0</asrwt>
<pdfrwt beam="1">  1        1 0.13489567E+00 0.84079503E+03</pdfrwt>
<pdfrwt beam="2">  1       -1 0.31009557E-01 0.84079503E+03</pdfrwt>
<totfact> 0.18460859E+02</totfact>
</mgrwt>
</event>
<event>
 6    1  0.1603085E-006  0.3369797E+04  0.7818608E-02  0.8145359E-01
         -1   -1    0    0    0  501 -0.00000000000E+00  0.00000000000E+00  0.12301010277E+04  0.12301010277E+04  0.00000000000E+00 0.  1.
          1   -1    0    0  501    0  0.00000000000E+00 -0.00000000000E+00 -0.23078455333E+04  0.23078455333E+04  0.00000000000E+00 0. -1.
         23    2    1    2    0    0 -0.46355637067E+03  0.15401653498E+04 -0.10618527488E+04  0.19294546084E+04  0.90939607994E+02 0.  0.
         13    1    3    3    0    0 -0.20013772697E+03  0.56967956407E+03 -0.43986331487E+03  0.74704059545E+03  0.00000000000E+00 0.  1.
        -13    1    3    3    0    0 -0.26341864370E+03  0.97048578575E+03 -0.62198943390E+03  0.11824140130E+04  0.00000000000E+00 0. -1.
         22    1    1    2    0    0  0.46355637067E+03 -0.15401653498E+04 -0.15891756740E+02  0.16084919526E+04  0.00000000000E+00 0.  1.
<mgrwt>
<rscale>  0 0.33697971E+04</rscale>
<asrwt>0</asrwt>
<pdfrwt beam="1">  1        1 0.35505316E+00 0.33697971E+04</pdfrwt>
<pdfrwt beam="2">  1       -1 0.18924631E+00 0.33697971E+04</pdfrwt>
<totfact> 0.27117293E-01</totfact>
</mgrwt>
</event>
<event>
 6    1  0.1603085E-006  0.8873529E+03  0.7818608E-02  0.9441530E-01
          2   -1    0    0  501    0  0.00000000000E+00  0.00000000000E+00  0.42648995358E+03  0.42648995358E+03  0.00000000000E+00 0. -1.
         -2   -1    0    0    0  501 -0.00000000000E+00 -0.00000000000E+00 -0.46155550983E+03  0.46155550983E+03  0.00000000000E+00 0.  1.
         23    2    1    2    0    0  0.89456198414E+02  0.35043485638E+03 -0.26672729254E+03  0.45854091155E+03  0.91155465997E+02 0.  0.
         13    1    3    3    0    0  0.39259994306E+02  0.17766566296E+03 -0.78510902445E+02  0.19816759763E+03  0.00000000000E+00 0.  1.
        -13    1    3    3    0    0  0.50196204108E+02  0.17276919342E+03 -0.18821639010E+03  0.26037331392E+03  0.00000000000E+00 0. -1.
         22    1    1    2    0    0 -0.89456198414E+02 -0.35043485638E+03  0.23166173629E+03  0.42950455185E+03  0.00000000000E+00 0. -1.
<mgrwt>
<rscale>  0 0.88735289E+03</rscale>
<asrwt>0</asrwt>
<pdfrwt beam="1">  1        2 0.65613839E-01 0.88735289E+03</pdfrwt>
<pdfrwt beam="2">  1       -2 0.71008540E-01 0.88735289E+03</pdfrwt>
<totfact> 0.13382444E+02</totfact>
</mgrwt>
</event>
<event>
 6    1  0.1603085E-006  0.4088379E+04  0.7818608E-02  0.7986951E-01
         -2   -1    0    0    0  501 -0.00000000000E+00  0.00000000000E+00  0.29180497172E+04  0.29180497172E+04  0.00000000000E+00 0.  1.
          2   -1    0    0  501    0  0.00000000000E+00 -0.00000000000E+00 -0.14320217413E+04  0.14320217413E+04  0.00000000000E+00 0. -1.
         23    2    1    2    0    0  0.15349062844E+04  0.37506530930E+03 -0.63489792617E+03  0.17052769542E+04  0.90900086547E+02 0.  0.
         11    1    3    3    0    0  0.10617405334E+04  0.22204598412E+03 -0.41209575126E+03  0.11603535183E+04  0.00000000000E+00 0.  1.
        -11    1    3    3    0    0  0.47316575098E+03  0.15301932518E+03 -0.22280217491E+03  0.54492343583E+03  0.00000000000E+00 0. -1.
         22    1    1    2    0    0 -0.15349062844E+04 -0.37506530930E+03  0.21209259021E+04  0.26447945043E+04  0.00000000000E+00 0.  1.
<mgrwt>
<rscale>  0 0.40883790E+04</rscale>
<asrwt>0</asrwt>
<pdfrwt beam="1">  1        2 0.22031104E+00 0.40883790E+04</pdfrwt>
<pdfrwt beam="2">  1       -2 0.44893073E+00 0.40883790E+04</pdfrwt>
<totfact> 0.38343577E-02</totfact>
</mgrwt>
</event>
<event>
 6    1  0.1603085E-006  0.8612935E+03  0.7818608E-02  0.9475303E-01
         -1   -1    0    0    0  501 -0.00000000000E+00  0.00000000000E+00  0.18713336757E+03  0.18713336757E+03  0.00000000000E+00 0.  1.
          1   -1    0    0  501    0  0.00000000000E+00 -0.00000000000E+00 -0.99103973964E+03  0.99103973964E+03  0.00000000000E+00 0. -1.
         23    2    1    2    0    0  0.42245376284E+03  0.48316578182E+02 -0.39819589530E+03  0.59046343022E+03  0.96360873462E+02 0.  0.
         11    1    3    3    0    0  0.10465724595E+03 -0.21734939618E+02 -0.13323732589E+03  0.17081490491E+03  0.00000000000E+00 0.  1.
        -11    1    3    3    0    0  0.31779651688E+03  0.70051517800E+02 -0.26495856941E+03  0.41964852531E+03  0.00000000000E+00 0. -1.
         22    1    1    2    0    0 -0.42245376284E+03 -0.48316578182E+02 -0.40571047677E+03  0.58770967699E+03  0.00000000000E+00 0. -1.
<mgrwt>
<rscale>  0 0.86129345E+03</rscale>
<asrwt>0</asrwt>
<pdfrwt beam="1">  1        1 0.15246765E+00 0.86129345E+03</pdfrwt>
<pdfrwt beam="2">  1       -1 0.28789749E-01 0.86129345E+03</pdfrwt>
<totfact> 0.16996432E+02</totfact>
</mgrwt>
</event>
<event>
 6    1  0.1603085E-006  0.1578957E+04  0.7818608E-02  0.8833581E-01
          1   -1    0    0  501    0  0.00000000000E+00  0.00000000000E+00  0.19503048002E+04  0.19503048002E+04  0.00000000000E+00 0. -1.
         -1   -1    0    0    0  501 -0.00000000000E+00 -0.00000000000E+00 -0.31957903700E+03  0.31957903700E+03  0.00000000000E+00 0.  1.
         23    2    1    2    0    0 -0.69520169826E+03 -0.31272780242E+03  0.10988848095E+04  0.13403899535E+04  0.89405388161E+02 0.  0.
         11    1    3    3    0    0 -0.19821140261E+03 -0.13444254492E+03  0.34752525628E+03  0.42206203544E+03  0.00000000000E+00 0. -1.
        -11    1    3    3    0    0 -0.49699029565E+03 -0.17828525750E+03  0.75135955317E+03  0.91832791810E+03  0.00000000000E+00 0.  1.
         22    1    1    2    0    0  0.69520169826E+03  0.31272780242E+03  0.53184095376E+03  0.92949388366E+03  0.00000000000E+00 0.  1.
<mgrwt>
<rscale>  0 0.15789573E+04</rscale>
<asrwt>0</asrwt>
<pdfrwt beam="1">  1        1 0.30004689E+00 0.15789573E+04</pdfrwt>
<pdfrwt beam="2">  1       -1 0.49166007E-01 0.15789573E+04</pdfrwt>
<totfact> 0.12834653E+01</totfact>
</mgrwt>
</event>
<event>
 6    1  0.1603085E-006  0.1318205E+04  0.7818608E-02  0.9015252E-01
         -1   -1    0    0    0  501 -0.00000000000E+00  0.00000000000E+00  0.47960985371E+03  0.47960985371E+03  0.00000000000E+00 0.  1.
          1   -1    0    0  501    0  0.00000000000E+00 -0.00000000000E+00 -0.90577011631E+03  0.90577011631E+03  0.00000000000E+00 0. -1.
         23    2    1    2    0    0  0.39370806613E+03 -0.45151139891E+03  0.66617546264E+02  0.60968766401E+03  0.91720038667E+02 0.  0.
         11    1    3    3    0    0  0.17365282663E+03 -0.13962025559E+03  0.45346282122E+02  0.22738822588E+03  0.00000000000E+00 0. -1.
        -11    1    3    3    0    0  0.22005523950E+03 -0.31189114332E+03  0.21271264141E+02  0.38229943813E+03  0.00000000000E+00 0.  1.
         22    1    1    2    0    0 -0.39370806613E+03  0.45151139891E+03 -0.49277780887E+03  0.77569230601E+03  0.00000000000E+00 0. -1.
<mgrwt>
<rscale>  0 0.13182053E+04</rscale>
<asrwt>0</asrwt>
<pdfrwt beam="1">  1        1 0.13934925E+00 0.13182053E+04</pdfrwt>
<pdfrwt beam="2">  1       -1 0.73786132E-01 0.13182053E+04</pdfrwt>
<totfact> 0.32680424E+01</totfact>
</mgrwt>
</event>
<event>
 6    1  0.1603085E-006  0.3076657E+04  0.7818608E-02  0.8222173E-01
          2   -1    0    0  501    0  0.00000000000E+00  0.00000000000E+00  0.17919632233E+04  0.17919632233E+04  0.00000000000E+00 0.  1.
         -2   -1    0    0    0  501 -0.00000000000E+00 -0.00000000000E+00 -0.13205934095E+04  0.13205934095E+04  0.00000000000E+00 0. -1.
         23    2    1    2    0    0 -0.39256528159E+03 -0.53180886026E+03  0.16397559908E+04  0.17701504264E+04  0.87776184142E+02 0.  0.
         13    1    3    3    0    0 -0.33504707640E+03 -0.48240654592E+03  0.13861221158E+04  0.15054258995E+04  0.00000000000E+00 0.  1.
        -13    1    3    3    0    0 -0.57518205187E+02 -0.49402314346E+02  0.25363387504E+03  0.26472452693E+03  0.00000000000E+00 0. -1.
         22    1    1    2    0    0  0.39256528159E+03  0.53180886026E+03 -0.11683861771E+04  0.13424062064E+04  0.00000000000E+00 0. -1.
<mgrwt>
<rscale>  0 0.30766572E+04</rscale>
<asrwt>0</asrwt>
<pdfrwt beam="1">  1        2 0.27568665E+00 0.30766572E+04</pdfrwt>
<pdfrwt beam="2">  1       -2 0.20316822E+00 0.30766572E+04</pdfrwt>
<totfact> 0.94039714E-01</totfact>
</mgrwt>
</event>
<event>
 6    1  0.1603085E-006  0.2415168E+04  0.7818608E-02  0.8433847E-01
         -2   -1    0    0    0  501 -0.00000000000E+00  0.00000000000E+00  0.12964013832E+04  0.12964013832E+04  0.00000000000E+00 0.  1.
          2   -1    0    0  501    0  0.00000000000E+00 -0.00000000000E+00 -0.11248516808E+04  0.11248516808E+04  0.00000000000E+00 0. -1.
         23    2    1    2    0    0 -0.97085958488E+03 -0.30039016219E+03 -0.56480593014E+03  0.11662541792E+04  0.91326275903E+02 0.  0.
         11    1    3    3    0    0 -0.19535636956E+03 -0.32156353357E+02 -0.82984870659E+02  0.21467331215E+03  0.00000000000E+00 0. -1.
        -11    1    3    3    0    0 -0.77550321532E+03 -0.26823380883E+03 -0.48182105948E+03  0.95158086705E+03  0.00000000000E+00 0.  1.
         22    1    1    2    0    0  0.97085958488E+03  0.30039016219E+03  0.73635563257E+03  0.12549988847E+04  0.00000000000E+00 0.  1.
<mgrwt>
<rscale>  0 0.24151681E+04</rscale>
<asrwt>0</asrwt>
<pdfrwt beam="1">  1        2 0.17305411E+00 0.24151681E+04</pdfrwt>
<pdfrwt beam="2">  1       -2 0.19944636E+00 0.24151681E+04</pdfrwt>
<totfact> 0.25332176E+00</totfact>
</mgrwt>
</event>
<event>
 6    1  0.1603085E-006  0.1224418E+04  0.7818608E-02  0.9091748E-01
         -1   -1    0    0    0  501 -0.00000000000E+00  0.00000000000E+00  0.40043026771E+04  0.40043026771E+04  0.00000000000E+00 0. -1.
          1   -1    0    0  501    0  0.00000000000E+00 -0.00000000000E+00 -0.93599241641E+02  0.93599241641E+02  0.00000000000E+00 0.  1.
         23    2    1    2    0    0 -0.14358309497E+03  0.12729037821E+03  0.38999045230E+04  0.39057156496E+04  0.92414832300E+02 0.  0.
         11    1    3    3    0    0 -0.11336792562E+03  0.39426646609E+02  0.21627605220E+04  0.21660885998E+04  0.00000000000E+00 0.  1.
        -11    1    3    3    0    0 -0.30215169353E+02  0.87863731598E+02  0.17371440010E+04  0.17396270497E+04  0.00000000000E+00 0. -1.
         22    1    1    2    0    0  0.14358309497E+03 -0.12729037821E+03  0.10798912455E+02  0.19218626917E+03  0.00000000000E+00 0.  1.
<mgrwt>
<rscale>  0 0.12244177E+04</rscale>
<asrwt>0</asrwt>
<pdfrwt beam="1">  1        1 0.14399886E-01 0.12244177E+04</pdfrwt>
<pdfrwt beam="2">  1       -1 0.61604643E+00 0.12244177E+04</pdfrwt>
<totfact> 0.15142099E-01</totfact>
</mgrwt>
</event>
<event>
 6    1  0.1603085E-006  0.2558880E+04  0.7818608E-02  0.8382305E-01
          2   -1    0    0  501    0  0.00000000000E+00  0.00000000000E+00  0.11079499228E+04  0.11079499228E+04  0.00000000000E+00 0. -1.
         -2   -1    0    0    0  501 -0.00000000000E+00 -0.00000000000E+00 -0.14774731213E+04  0.14774731213E+04  0.00000000000E+00 0.  1.
         23    2    1    2    0    0 -0.10529810115E+04 -0.24336948596E+03  0.50339286350E+03  0.11961857826E+04  0.97253966678E+02 0.  0.
         13    1    3    3    0    0 -0.83695771425E+03 -0.22685876072E+03  0.42578551562E+03  0.96605197483E+03  0.00000000000E+00 0. -1.
        -13    1    3    3    0    0 -0.21602329728E+03 -0.16510725239E+02  0.77607347884E+02  0.23013380773E+03  0.00000000000E+00 0.  1.
         22    1    1    2    0    0  0.10529810115E+04  0.24336948596E+03 -0.87291606199E+03  0.13892372615E+04  0.00000000000E+00 0.  1.
<mgrwt>
<rscale>  0 0.25588796E+04</rscale>
<asrwt>0</asrwt>
<pdfrwt beam="1">  1        2 0.17045383E+00 0.25588796E+04</pdfrwt>
<pdfrwt beam="2">  1       -2 0.22730356E+00 0.25588796E+04</pdfrwt>
<totfact> 0.16994075E+00</totfact>
</mgrwt>
</event>
<event>
 6    1  0.1603085E-006  0.1102627E+04  0.7818608E-02  0.9202635E-01
         -1   -1    0    0    0  501 -0.00000000000E+00  0.00000000000E+00  0.66144300467E+03  0.66144300467E+03  0.00000000000E+00 0.  1.
          1   -1    0    0  501    0  0.00000000000E+00 -0.00000000000E+00 -0.45952077211E+03  0.45952077211E+03  0.00000000000E+00 0. -1.
         23    2    1    2    0    0 -0.19945081512E+03  0.44827166450E+03 -0.14383587537E+03  0.52073316939E+03  0.98722650931E+02 0.  0.
         13    1    3    3    0    0 -0.12505787827E+03  0.26369154487E+03 -0.13493101246E+03  0.32152617604E+03  0.00000000000E+00 0. -1.
        -13    1    3    3    0    0 -0.74392936851E+02  0.18458011963E+03 -0.89048629181E+01  0.19920699335E+03  0.00000000000E+00 0.  1.
         22    1    1    2    0    0  0.19945081512E+03 -0.44827166450E+03  0.34575810794E+03  0.60023060739E+03  0.00000000000E+00 0.  1.
<mgrwt>
<rscale>  0 0.11026274E+04</rscale>
<asrwt>0</asrwt>
<pdfrwt beam="1">  1        1 0.70695504E-01 0.11026274E+04</pdfrwt>
<pdfrwt beam="2">  1       -1 0.10176046E+00 0.11026274E+04</pdfrwt>
<totfact> 0.45423982E+01</totfact>
</mgrwt>
</event>
<event>
 6    1  0.1603085E-006  0.1319351E+04  0.7818608E-02  0.9014359E-01
          2   -1    0    0  501    0  0.00000000000E+00  0.00000000000E+00  0.37344626603E+03  0.37344626603E+03  0.00000000000E+00 0. -1.
         -2   -1    0    0    0  501 -0.00000000000E+00 -0.00000000000E+00 -0.11652861260E+04  0.11652861260E+04  0.00000000000E+00 0.  1.
         23    2    1    2    0    0 -0.35206711062E+02  0.42319873621E+03  0.18469156559E+03  0.47386136325E+03  0.10048350284E+03 0.  0.
         13    1    3    3    0    0  0.26522874888E+02  0.10864341718E+03  0.76682184746E+02  0.13559871846E+03  0.00000000000E+00 0.  1.
        -13    1    3    3    0    0 -0.61729585950E+02  0.31455531903E+03  0.10800938084E+03  0.33826264479E+03  0.00000000000E+00 0. -1.
         22    1    1    2    0    0  0.35206711062E+02 -0.42319873621E+03 -0.97653142558E+03  0.10648710288E+04  0.00000000000E+00 0.  1.
<mgrwt>
<rscale>  0 0.13193510E+04</rscale>
<asrwt>0</asrwt>
<pdfrwt beam="1">  1        2 0.57453271E-01 0.13193510E+04</pdfrwt>
<pdfrwt beam="2">  1       -2 0.17927479E+00 0.13193510E+04</pdfrwt>
<totfact> 0.15409371E+01</totfact>
</mgrwt>
</event>
<event>
 6    1  0.1603085E-006  0.1537037E+04  0.7818608E-02  0.8860190E-01
          1   -1    0    0  501    0  0.00000000000E+00  0.00000000000E+00  0.23053453132E+04  0.23053453132E+04  0.00000000000E+00 0.  1.
         -1   -1    0    0    0  501 -0.00000000000E+00 -0.00000000000E+00 -0.25619622166E+03  0.25619622166E+03  0.00000000000E+00 0. -1.
         23    2    1    2    0    0  0.68857814501E+03 -0.30032060966E+03  0.77902814634E+03  0.10858926790E+04  0.89138808186E+02 0.  0.
         11    1    3    3    0    0  0.41962732642E+03 -0.20872335036E+03  0.43206836282E+03  0.63744458600E+03  0.00000000000E+00 0.  1.
        -11    1    3    3    0    0  0.26895081859E+03 -0.91597259295E+02  0.34695978352E+03  0.44844809300E+03  0.00000000000E+00 0. -1.
         22    1    1    2    0    0 -0.68857814501E+03  0.30032060966E+03  0.12701209452E+04  0.14756488559E+04  0.00000000000E+00 0. -1.
<mgrwt>
<rscale>  0 0.15370371E+04</rscale>
<asrwt>0</asrwt>
<pdfrwt beam="1">  1        1 0.35466850E+00 0.15370371E+04</pdfrwt>
<pdfrwt beam="2">  1       -1 0.39414805E-01 0.15370371E+04</pdfrwt>
<totfact> 0.11154706E+01</totfact>
</mgrwt>
</event>
<event>
 6    1  0.1603085E-006  0.3644654E+04  0.7818608E-02  0.8080339E-01
         -1   -1    0    0    0  501 -0.00000000000E+00  0.00000000000E+00  0.95908942425E+03  0.95908942425E+03  0.00000000000E+00 0.  1.
          1   -1    0    0  501    0  0.00000000000E+00 -0.00000000000E+00 -0.34625293394E+04  0.34625293394E+04  0.00000000000E+00 0. -1.
         23    2    1    2    0    0  0.17330366371E+04 -0.23894550227E+03 -0.18666270330E+04  0.25598879600E+04  0.90658417694E+02 0.  0.
         13    1    3    3    0    0  0.66585827425E+03 -0.13623323018E+03 -0.72976881104E+03  0.99724081944E+03  0.00000000000E+00 0.  1.
        -13    1    3    3    0    0  0.10671783629E+04 -0.10271227209E+03 -0.11368582220E+04  0.15626471405E+04  0.00000000000E+00 0. -1.
         22    1    1    2    0    0 -0.17330366371E+04  0.23894550227E+03 -0.63681288219E+03  0.18617308037E+04  0.00000000000E+00 0.  1.
<mgrwt>
<rscale>  0 0.36446538E+04</rscale>
<asrwt>0</asrwt>
<pdfrwt beam="1">  1        1 0.53269682E+00 0.36446538E+04</pdfrwt>
<pdfrwt beam="2">  1       -1 0.14755222E+00 0.36446538E+04</pdfrwt>
<totfact> 0.78496000E-02</totfact>
</mgrwt>
</event>
<event>
 6    1  0.1603085E-006  0.3124270E+04  0.7818608E-02  0.8209109E-01
         -2   -1    0    0    0  501 -0.00000000000E+00  0.00000000000E+00  0.15567543563E+04  0.15567543563E+04  0.00000000000E+00 0.  1.
          2   -1    0    0  501    0  0.00000000000E+00 -0.00000000000E+00 -0.15675342044E+04  0.15675342044E+04  0.00000000000E+00 0. -1.
         23    2    1    2    0    0  0.14906544424E+04 -0.29656319877E+02  0.45561722026E+03  0.15620925456E+04  0.98060724017E+02 0.  0.
         13    1    3    3    0    0  0.12383849288E+04 -0.40051559807E+02  0.41290668796E+03  0.13060219341E+04  0.00000000000E+00 0.  1.
        -13    1    3    3    0    0  0.25226951366E+03  0.10395239930E+02  0.42710532303E+02  0.25607061156E+03  0.00000000000E+00 0. -1.
         22    1    1    2    0    0 -0.14906544424E+04  0.29656319877E+02 -0.46639706834E+03  0.15621960150E+04  0.00000000000E+00 0. -1.
<mgrwt>
<rscale>  0 0.31242700E+04</rscale>
<asrwt>0</asrwt>
<pdfrwt beam="1">  1        2 0.24115911E+00 0.31242700E+04</pdfrwt>
<pdfrwt beam="2">  1       -2 0.23950067E+00 0.31242700E+04</pdfrwt>
<totfact> 0.73517754E-01</totfact>
</mgrwt>
</event>
<event>
 6    1  0.1603085E-006  0.4350276E+04  0.7818608E-02  0.7937387E-01
         -2   -1    0    0    0  501 -0.00000000000E+00  0.00000000000E+00  0.16188226744E+04  0.16188226744E+04  0.00000000000E+00 0.  1.
          2   -1    0    0  501    0  0.00000000000E+00 -0.00000000000E+00 -0.29226328826E+04  0.29226328826E+04  0.00000000000E+00 0. -1.
         23    2    1    2    0    0  0.15930875967E+04 -0.60898315275E+03  0.75553875197E+03  0.18675620080E+04  0.90335358051E+02 0.  0.
         13    1    3    3    0    0  0.53183902795E+03 -0.24687439650E+03  0.27425035460E+03  0.64731211660E+03  0.00000000000E+00 0.  1.
        -13    1    3    3    0    0  0.10612485688E+04 -0.36210875626E+03  0.48128839736E+03  0.12202498914E+04  0.00000000000E+00 0. -1.
         22    1    1    2    0    0 -0.15930875967E+04  0.60898315275E+03 -0.20593489602E+04  0.26738935490E+04  0.00000000000E+00 0. -1.
<mgrwt>
<rscale>  0 0.43502756E+04</rscale>
<asrwt>0</asrwt>
<pdfrwt beam="1">  1        2 0.44963583E+00 0.43502756E+04</pdfrwt>
<pdfrwt beam="2">  1       -2 0.24904964E+00 0.43502756E+04</pdfrwt>
<totfact> 0.97139713E-02</totfact>
</mgrwt>
</event>
<event>
 6    1  0.1603085E-006  0.3712238E+04  0.7818608E-02  0.8065255E-01
          1   -1    0    0  501    0  0.00000000000E+00  0.00000000000E+00  0.32483317486E+04  0.32483317486E+04  0.00000000000E+00 0. -1.
         -1   -1    0    0    0  501 -0.00000000000E+00 -0.00000000000E+00 -0.10605993507E+04  0.10605993507E+04  0.00000000000E+00 0.  1.
         23    2    1    2    0    0  0.13057371344E+04 -0.13047258929E+04  0.13060258398E+04  0.22632855839E+04  0.97462917506E+02 0.  0.
         11    1    3    3    0    0  0.77263136054E+03 -0.73959374507E+03  0.80807467669E+03  0.13405009549E+04  0.00000000000E+00 0. -1.
        -11    1    3    3    0    0  0.53310577389E+03 -0.56513214779E+03  0.49795116314E+03  0.92278462898E+03  0.00000000000E+00 0.  1.
         22    1    1    2    0    0 -0.13057371344E+04  0.13047258929E+04  0.88170655807E+03  0.20456455153E+04  0.00000000000E+00 0.  1.
<mgrwt>
<rscale>  0 0.37122384E+04</rscale>
<asrwt>0</asrwt>
<pdfrwt beam="1">  1        1 0.49974334E+00 0.37122384E+04</pdfrwt>
<pdfrwt beam="2">  1       -1 0.16316913E+00 0.37122384E+04</pdfrwt>
<totfact> 0.86558770E-02</totfact>
</mgrwt>
</event>
<event>
 6    1  0.1603085E-006  0.2249119E+04  0.7818608E-02  0.8498257E-01
         -2   -1    0    0    0  501 -0.00000000000E+00  0.00000000000E+00  0.54431506634E+03  0.54431506634E+03  0.00000000000E+00 0.  1.
          2   -1    0    0  501    0  0.00000000000E+00 -0.00000000000E+00 -0.23233490353E+04  0.23233490353E+04  0.00000000000E+00 0. -1.
         23    2    1    2    0    0 -0.70740742634E+03 -0.59833818756E+03 -0.16992272619E+04  0.19377162730E+04  0.94536836522E+02 0.  0.
         13    1    3    3    0    0 -0.11533837000E+03 -0.12673971615E+03 -0.37785615285E+03  0.41489898468E+03  0.00000000000E+00 0. -1.
        -13    1    3    3    0    0 -0.59206905634E+03 -0.47159847141E+03 -0.13213711091E+04  0.15228172883E+04  0.00000000000E+00 0.  1.
         22    1    1    2    0    0  0.70740742634E+03  0.59833818756E+03 -0.79806707038E+02  0.92994782865E+03  0.00000000000E+00 0.  1.
<mgrwt>
<rscale>  0 0.22491188E+04</rscale>
<asrwt>0</asrwt>
<pdfrwt beam="1">  1        2 0.35743831E+00 0.22491188E+04</pdfrwt>
<pdfrwt beam="2">  1       -2 0.83740779E-01 0.22491188E+04</pdfrwt>
<totfact> 0.49894967E+00</totfact>
</mgrwt>
</event>
<event>
 6    1  0.1603085E-006  0.2864793E+04  0.7818608E-02  0.8283430E-01
         -2   -1    0    0    0  501 -0.00000000000E+00  0.00000000000E+00  0.81215758793E+03  0.81215758793E+03  0.00000000000E+00 0. -1.
          2   -1    0    0  501    0  0.00000000000E+00 -0.00000000000E+00 -0.25263078000E+04  0.25263078000E+04  0.00000000000E+00 0.  1.
         23    2    1    2    0    0 -0.10199693857E+04 -0.60453354350E+03  0.76382875525E+02  0.11909535508E+04  0.82083270939E+02 0.  0.
         11    1    3    3    0    0 -0.45763173151E+03 -0.31693636396E+03  0.24261998435E+02  0.55719305905E+03  0.00000000000E+00 0. -1.
        -11    1    3    3    0    0 -0.56233765421E+03 -0.28759717954E+03  0.52120877089E+02  0.63376049171E+03  0.00000000000E+00 0.  1.
         22    1    1    2    0    0  0.10199693857E+04  0.60453354350E+03 -0.17905330876E+04  0.21475118371E+04  0.00000000000E+00 0.  1.
<mgrwt>
<rscale>  0 0.28647932E+04</rscale>
<asrwt>0</asrwt>
<pdfrwt beam="1">  1        2 0.38866273E+00 0.28647932E+04</pdfrwt>
<pdfrwt beam="2">  1       -2 0.12494732E+00 0.28647932E+04</pdfrwt>
<totfact> 0.13958955E+00</totfact>
</mgrwt>
</event>
<event>
 6    1  0.1603085E-006  0.1417530E+04  0.7818608E-02  0.8941226E-01
          1   -1    0    0  501    0  0.00000000000E+00  0.00000000000E+00  0.11166895589E+04  0.11166895589E+04  0.00000000000E+00 0. -1.
         -1   -1    0    0    0  501 -0.00000000000E+00 -0.00000000000E+00 -0.44985460903E+03  0.44985460903E+03  0.00000000000E+00 0.  1.
         23    2    1    2    0    0  0.97887037784E+02 -0.66101463504E+03  0.83677536998E+02  0.67964237626E+03  0.91594811601E+02 0.  0.
         13    1    3    3    0    0  0.94438447667E+02 -0.36714707022E+03  0.69472377478E+02  0.38541147207E+03  0.00000000000E+00 0. -1.
        -13    1    3    3    0    0  0.34485901167E+01 -0.29386756482E+03  0.14205159520E+02  0.29423090419E+03  0.00000000000E+00 0.  1.
         22    1    1    2    0    0 -0.97887037784E+02  0.66101463504E+03  0.58315741289E+03  0.88690179169E+03  0.00000000000E+00 0.  1.
<mgrwt>
<rscale>  0 0.14175302E+04</rscale>
<asrwt>0</asrwt>
<pdfrwt beam="1">  1        1 0.17179839E+00 0.14175302E+04</pdfrwt>
<pdfrwt beam="2">  1       -1 0.69208402E-01 0.14175302E+04</pdfrwt>
<totfact> 0.25333455E+01</totfact>
</mgrwt>
</event>
<event>
 6    1  0.1603085E-006  0.2191184E+04  0.7818608E-02  0.8522106E-01
          2   -1    0    0  501    0  0.00000000000E+00  0.00000000000E+00  0.39730283820E+04  0.39730283820E+04  0.00000000000E+00 0. -1.
         -2   -1    0    0    0  501 -0.00000000000E+00 -0.00000000000E+00 -0.30211763737E+03  0.30211763737E+03  0.00000000000E+00 0.  1.
         23    2    1    2    0    0  0.73593257884E+03  0.54095366591E+02  0.34136887577E+04  0.34936818680E+04  0.89548820012E+02 0.  0.
         11    1    3    3    0    0  0.48068954025E+03  0.38190841840E+02  0.20230996336E+04  0.20797723678E+04  0.00000000000E+00 0.  1.
        -11    1    3    3    0    0  0.25524303860E+03  0.15904524751E+02  0.13905891241E+04  0.14139095002E+04  0.00000000000E+00 0. -1.
         22    1    1    2    0    0 -0.73593257884E+03 -0.54095366591E+02  0.25722198693E+03  0.78146415135E+03  0.00000000000E+00 0.  1.
<mgrwt>
<rscale>  0 0.21911841E+04</rscale>
<asrwt>0</asrwt>
<pdfrwt beam="1">  1        2 0.61123510E+00 0.21911841E+04</pdfrwt>
<pdfrwt beam="2">  1       -2 0.46479639E-01 0.21911841E+04</pdfrwt>
<totfact> 0.14541545E+00</totfact>
</mgrwt>
</event>
<event>
 6    1  0.1603085E-006  0.4417736E+04  0.7818608E-02  0.7925199E-01
         -2   -1    0    0    0  501 -0.00000000000E+00  0.00000000000E+00  0.17622252879E+04  0.17622252879E+04  0.00000000000E+00 0.  1.
          2   -1    0    0  501    0  0.00000000000E+00 -0.00000000000E+00 -0.27687135484E+04  0.27687135484E+04  0.00000000000E+00 0. -1.
         23    2    1    2    0    0 -0.18365515482E+04 -0.10076780111E+04 -0.12188634392E+04  0.24253653326E+04  0.91827827265E+02 0.  0.
         13    1    3    3    0    0 -0.78906859181E+03 -0.48443376680E+03 -0.53076335737E+03  0.10672464844E+04  0.00000000000E+00 0. -1.
        -13    1    3    3    0    0 -0.10474829564E+04 -0.52324424430E+03 -0.68810008179E+03  0.13581188481E+04  0.00000000000E+00 0.  1.
         22    1    1    2    0    0  0.18365515482E+04  0.10076780111E+04  0.21237517875E+03  0.21055735038E+04  0.00000000000E+00 0.  1.
<mgrwt>
<rscale>  0 0.44177356E+04</rscale>
<asrwt>0</asrwt>
<pdfrwt beam="1">  1        2 0.42595593E+00 0.44177356E+04</pdfrwt>
<pdfrwt beam="2">  1       -2 0.27111158E+00 0.44177356E+04</pdfrwt>
<totfact> 0.87886773E-02</totfact>
</mgrwt>
</event>
<event>
 6    1  0.1603085E-006  0.3933157E+04  0.7818608E-02  0.8018168E-01
          1   -1    0    0  501    0  0.00000000000E+00  0.00000000000E+00  0.20681517867E+04  0.20681517867E+04  0.00000000000E+00 0. -1.
         -1   -1    0    0    0  501 -0.00000000000E+00 -0.00000000000E+00 -0.18699939533E+04  0.18699939533E+04  0.00000000000E+00 0.  1.
         23    2    1    2    0    0  0.10248039756E+04 -0.53147753419E+03 -0.14935952979E+04  0.18900441274E+04  0.93532518383E+02 0.  0.
         13    1    3    3    0    0  0.84780421354E+03 -0.46746008025E+03 -0.12094413589E+04  0.15492060263E+04  0.00000000000E+00 0.  1.
        -13    1    3    3    0    0  0.17699976207E+03 -0.64017453936E+02 -0.28415393898E+03  0.34083810118E+03  0.00000000000E+00 0. -1.
         22    1    1    2    0    0 -0.10248039756E+04  0.53147753419E+03  0.16917531313E+04  0.20481016125E+04  0.00000000000E+00 0. -1.
<mgrwt>
<rscale>  0 0.39331572E+04</rscale>
<asrwt>0</asrwt>
<pdfrwt beam="1">  1        1 0.31817720E+00 0.39331572E+04</pdfrwt>
<pdfrwt beam="2">  1       -1 0.28769138E+00 0.39331572E+04</pdfrwt>
<totfact> 0.83654763E-02</totfact>
</mgrwt>
</event>
<event>
 6    1  0.1603085E-006  0.1862780E+04  0.7818608E-02  0.8673608E-01
         -2   -1    0    0    0  501 -0.00000000000E+00  0.00000000000E+00  0.80991840235E+03  0.80991840235E+03  0.00000000000E+00 0.  1.
          2   -1    0    0  501    0  0.00000000000E+00 -0.00000000000E+00 -0.10710796737E+04  0.10710796737E+04  0.00000000000E+00 0. -1.
         23    2    1    2    0    0 -0.15116671463E+03 -0.58318348544E+03  0.58357904254E+03  0.84343335459E+03  0.88662119539E+02 0.  0.
         13    1    3    3    0    0 -0.14304091436E+03 -0.43099901843E+03  0.40309734237E+03  0.60721357404E+03  0.00000000000E+00 0. -1.
        -13    1    3    3    0    0 -0.81258002772E+01 -0.15218446701E+03  0.18048170017E+03  0.23621978055E+03  0.00000000000E+00 0.  1.
         22    1    1    2    0    0  0.15116671463E+03  0.58318348544E+03 -0.84474031389E+03  0.10375647215E+04  0.00000000000E+00 0. -1.
<mgrwt>
<rscale>  0 0.18627798E+04</rscale>
<asrwt>0</asrwt>
<pdfrwt beam="1">  1        2 0.16478149E+00 0.18627798E+04</pdfrwt>
<pdfrwt beam="2">  1       -2 0.12460283E+00 0.18627798E+04</pdfrwt>
<totfact> 0.10309966E+01</totfact>
</mgrwt>
</event>
<event>
 6    1  0.1603085E-006  0.3522810E+04  0.7818608E-02  0.8108405E-01
          2   -1    0    0  501    0  0.00000000000E+00  0.00000000000E+00  0.27565979615E+04  0.27565979615E+04  0.00000000000E+00 0. -1.
         -2   -1    0    0    0  501 -0.00000000000E+00 -0.00000000000E+00 -0.11254989359E+04  0.11254989359E+04  0.00000000000E+00 0.  1.
         23    2    1    2    0    0  0.23720097186E+03 -0.11979039276E+04  0.22131232544E+04  0.25293255479E+04  0.91296591097E+02 0.  0.
         11    1    3    3    0    0  0.12713177862E+03 -0.77698429213E+03  0.13520334886E+04  0.15645643590E+04  0.00000000000E+00 0. -1.
        -11    1    3    3    0    0  0.11006919324E+03 -0.42091963551E+03  0.86108976580E+03  0.96476118891E+03  0.00000000000E+00 0.  1.
         22    1    1    2    0    0 -0.23720097186E+03  0.11979039276E+04 -0.58202422883E+03  0.13527713494E+04  0.00000000000E+00 0.  1.
<mgrwt>
<rscale>  0 0.35228103E+04</rscale>
<asrwt>0</asrwt>
<pdfrwt beam="1">  1        2 0.42409199E+00 0.35228103E+04</pdfrwt>
<pdfrwt beam="2">  1       -2 0.17315368E+00 0.35228103E+04</pdfrwt>
<totfact> 0.40769144E-01</totfact>
</mgrwt>
</event>
<event>
 6    1  0.1603085E-006  0.1357322E+04  0.7818608E-02  0.8985304E-01
          1   -1    0    0  501    0  0.00000000000E+00  0.00000000000E+00  0.10412832480E+04  0.10412832480E+04  0.00000000000E+00 0. -1.
         -1   -1    0    0    0  501 -0.00000000000E+00 -0.00000000000E+00 -0.44232048855E+03  0.44232048855E+03  0.00000000000E+00 0.  1.
         23    2    1    2    0    0  0.57884100308E+03 -0.33868327950E+03  0.39054245862E+03  0.78132010978E+03  0.90412561702E+02 0.  0.
         11    1    3    3    0    0  0.38760652731E+03 -0.22219586727E+03  0.30807657516E+03  0.54269788981E+03  0.00000000000E+00 0.  1.
        -11    1    3    3    0    0  0.19123447577E+03 -0.11648741223E+03  0.82465883461E+02  0.23862221997E+03  0.00000000000E+00 0. -1.
         22    1    1    2    0    0 -0.57884100308E+03  0.33868327950E+03  0.20842030087E+03  0.70228362680E+03  0.00000000000E+00 0.  1.
<mgrwt>
<rscale>  0 0.13573222E+04</rscale>
<asrwt>0</asrwt>
<pdfrwt beam="1">  1        1 0.16019742E+00 0.13573222E+04</pdfrwt>
<pdfrwt beam="2">  1       -1 0.68049306E-01 0.13573222E+04</pdfrwt>
<totfact> 0.30063598E+01</totfact>
</mgrwt>
</event>
<event>
 6    1  0.1603085E-006  0.3648643E+04  0.7818608E-02  0.8079440E-01
          3   -1    0    0  501    0  0.00000000000E+00  0.00000000000E+00  0.24312064182E+04  0.24312064182E+04  0.00000000000E+00 0. -1.
         -3   -1    0    0    0  501 -0.00000000000E+00 -0.00000000000E+00 -0.13689286210E+04  0.13689286210E+04  0.00000000000E+00 0.  1.
         23    2    1    2    0    0  0.12918873303E+04 -0.70911916388E+03  0.16494254951E+04  0.22137664559E+04  0.91293999043E+02 0.  0.
         13    1    3    3    0    0  0.35390239802E+03 -0.16290639253E+03  0.48054192870E+03  0.61863231834E+03  0.00000000000E+00 0. -1.
        -13    1    3    3    0    0  0.93798493232E+03 -0.54621277135E+03  0.11688835664E+04  0.15951341375E+04  0.00000000000E+00 0.  1.
         22    1    1    2    0    0 -0.12918873303E+04  0.70911916388E+03 -0.58714769798E+03  0.15863685833E+04  0.00000000000E+00 0.  1.
<mgrwt>
<rscale>  0 0.36486425E+04</rscale>
<asrwt>0</asrwt>
<pdfrwt beam="1">  1        3 0.37403176E+00 0.36486425E+04</pdfrwt>
<pdfrwt beam="2">  1       -3 0.21060440E+00 0.36486425E+04</pdfrwt>
<totfact> 0.40326359E-03</totfact>
</mgrwt>
</event>
<event>
 6    1  0.1603085E-006  0.1132191E+04  0.7818608E-02  0.9174372E-01
          2   -1    0    0  501    0  0.00000000000E+00  0.00000000000E+00  0.29966319968E+04  0.29966319968E+04  0.00000000000E+00 0. -1.
         -2   -1    0    0    0  501 -0.00000000000E+00 -0.00000000000E+00 -0.10694143065E+03  0.10694143065E+03  0.00000000000E+00 0.  1.
         23    2    1    2    0    0  0.16817481192E+03  0.41923400195E+03  0.23734370026E+04  0.24176013744E+04  0.86909632844E+02 0.  0.
         11    1    3    3    0    0  0.10756767750E+03  0.29955026484E+03  0.18539301540E+04  0.18810524135E+04  0.00000000000E+00 0. -1.
        -11    1    3    3    0    0  0.60607134414E+02  0.11968373711E+03  0.51950684860E+03  0.53654896088E+03  0.00000000000E+00 0.  1.
         22    1    1    2    0    0 -0.16817481192E+03 -0.41923400195E+03  0.51625356361E+03  0.68597205314E+03  0.00000000000E+00 0.  1.
<mgrwt>
<rscale>  0 0.11321910E+04</rscale>
<asrwt>0</asrwt>
<pdfrwt beam="1">  1        2 0.46102024E+00 0.11321910E+04</pdfrwt>
<pdfrwt beam="2">  1       -2 0.16452530E-01 0.11321910E+04</pdfrwt>
<totfact> 0.52913679E+01</totfact>
</mgrwt>
</event>
<event>
 6    1  0.1603085E-006  0.6369624E+04  0.7818608E-02  0.7646189E-01
         -2   -1    0    0    0  501 -0.00000000000E+00  0.00000000000E+00  0.26599285461E+04  0.26599285461E+04  0.00000000000E+00 0.  1.
          2   -1    0    0  501    0  0.00000000000E+00 -0.00000000000E+00 -0.38132709381E+04  0.38132709381E+04  0.00000000000E+00 0. -1.
         23    2    1    2    0    0  0.30909773273E+04  0.32451322919E+03 -0.12803393601E+04  0.33626403859E+04  0.92907557912E+02 0.  0.
         11    1    3    3    0    0  0.21732302099E+04  0.19413282001E+03 -0.92629975575E+03  0.23703688182E+04  0.00000000000E+00 0. -1.
        -11    1    3    3    0    0  0.91774711742E+03  0.13038040918E+03 -0.35403960435E+03  0.99227156771E+03  0.00000000000E+00 0.  1.
         22    1    1    2    0    0 -0.30909773273E+04 -0.32451322919E+03  0.12699696814E+03  0.31105590983E+04  0.00000000000E+00 0.  1.
<mgrwt>
<rscale>  0 0.63696242E+04</rscale>
<asrwt>0</asrwt>
<pdfrwt beam="1">  1        2 0.58665707E+00 0.63696242E+04</pdfrwt>
<pdfrwt beam="2">  1       -2 0.40921978E+00 0.63696242E+04</pdfrwt>
<totfact> 0.20227768E-03</totfact>
</mgrwt>
</event>
<event>
 6    1  0.1603085E-006  0.1929542E+04  0.7818608E-02  0.8640289E-01
          1   -1    0    0  501    0  0.00000000000E+00  0.00000000000E+00  0.22842206473E+04  0.22842206473E+04  0.00000000000E+00 0.  1.
         -1   -1    0    0    0  501 -0.00000000000E+00 -0.00000000000E+00 -0.40748401440E+03  0.40748401440E+03  0.00000000000E+00 0. -1.
         23    2    1    2    0    0 -0.40157674289E+03  0.63088227724E+03  0.94930914761E+02  0.75932065604E+03  0.90992592799E+02 0.  0.
         13    1    3    3    0    0 -0.62368564972E+02  0.16997305927E+03  0.25856573327E+02  0.18289133702E+03  0.00000000000E+00 0.  1.
        -13    1    3    3    0    0 -0.33920817791E+03  0.46090921798E+03  0.69074341434E+02  0.57642931902E+03  0.00000000000E+00 0. -1.
         22    1    1    2    0    0  0.40157674289E+03 -0.63088227724E+03  0.17818057182E+04  0.19323840057E+04  0.00000000000E+00 0.  1.
<mgrwt>
<rscale>  0 0.19295423E+04</rscale>
<asrwt>0</asrwt>
<pdfrwt beam="1">  1        1 0.35141855E+00 0.19295423E+04</pdfrwt>
<pdfrwt beam="2">  1       -1 0.62689850E-01 0.19295423E+04</pdfrwt>
<totfact> 0.45970868E+00</totfact>
</mgrwt>
</event>
<event>
 6    1  0.1603085E-006  0.1782815E+04  0.7818608E-02  0.8715492E-01
          2   -1    0    0  501    0  0.00000000000E+00  0.00000000000E+00  0.14364084361E+04  0.14364084361E+04  0.00000000000E+00 0. -1.
         -2   -1    0    0    0  501 -0.00000000000E+00 -0.00000000000E+00 -0.55319011204E+03  0.55319011204E+03  0.00000000000E+00 0.  1.
         23    2    1    2    0    0 -0.35784993908E+03  0.66417924424E+03  0.96782467184E+03  0.12304220987E+04  0.89795869412E+02 0.  0.
         11    1    3    3    0    0 -0.14863351350E+03  0.24719953428E+03  0.43837202377E+03  0.52475666962E+03  0.00000000000E+00 0. -1.
        -11    1    3    3    0    0 -0.20921642557E+03  0.41697970996E+03  0.52945264807E+03  0.70566542908E+03  0.00000000000E+00 0.  1.
         22    1    1    2    0    0  0.35784993908E+03 -0.66417924424E+03 -0.84606347738E+02  0.75917644949E+03  0.00000000000E+00 0.  1.
<mgrwt>
<rscale>  0 0.17828146E+04</rscale>
<asrwt>0</asrwt>
<pdfrwt beam="1">  1        2 0.22098591E+00 0.17828146E+04</pdfrwt>
<pdfrwt beam="2">  1       -2 0.85106172E-01 0.17828146E+04</pdfrwt>
<totfact> 0.15668095E+01</totfact>
</mgrwt>
</event>
<event>
 6    1  0.1603085E-006  0.2558919E+04  0.7818608E-02  0.8382291E-01
         -1   -1    0    0    0  501 -0.00000000000E+00  0.00000000000E+00  0.50405988959E+03  0.50405988959E+03  0.00000000000E+00 0.  1.
          1   -1    0    0  501    0  0.00000000000E+00 -0.00000000000E+00 -0.32476640295E+04  0.32476640295E+04  0.00000000000E+00 0. -1.
         23    2    1    2    0    0  0.80418988007E+03  0.27764423109E+03  0.24262046114E+02  0.85605630936E+03  0.91848111802E+02 0.  0.
         11    1    3    3    0    0  0.32287288255E+03  0.84740827052E+02  0.46577533812E+02  0.33704209338E+03  0.00000000000E+00 0. -1.
        -11    1    3    3    0    0  0.48131699752E+03  0.19290340404E+03 -0.22315487698E+02  0.51901421597E+03  0.00000000000E+00 0.  1.
         22    1    1    2    0    0 -0.80418988007E+03 -0.27764423109E+03 -0.27678661860E+04  0.28956676097E+04  0.00000000000E+00 0. -1.
<mgrwt>
<rscale>  0 0.25589194E+04</rscale>
<asrwt>0</asrwt>
<pdfrwt beam="1">  1        1 0.49964062E+00 0.25589194E+04</pdfrwt>
<pdfrwt beam="2">  1       -1 0.77547675E-01 0.25589194E+04</pdfrwt>
<totfact> 0.57653349E-01</totfact>
</mgrwt>
</event>
<event>
 6    1  0.1603085E-006  0.9979072E+03  0.7818608E-02  0.9310843E-01
          2   -1    0    0  501    0  0.00000000000E+00  0.00000000000E+00  0.22642177184E+04  0.22642177184E+04  0.00000000000E+00 0. -1.
         -2   -1    0    0    0  501 -0.00000000000E+00 -0.00000000000E+00 -0.10995173751E+03  0.10995173751E+03  0.00000000000E+00 0.  1.
         23    2    1    2    0    0 -0.18910039093E+03  0.44350614330E+03  0.13517663271E+04  0.14379737759E+04  0.89664485820E+02 0.  0.
         13    1    3    3    0    0 -0.77007889316E+02  0.10613479224E+03  0.44813963382E+03  0.46693033799E+03  0.00000000000E+00 0. -1.
        -13    1    3    3    0    0 -0.11209250162E+03  0.33737135106E+03  0.90362669332E+03  0.97104343791E+03  0.00000000000E+00 0.  1.
         22    1    1    2    0    0  0.18910039093E+03 -0.44350614330E+03  0.80249965377E+03  0.93619568003E+03  0.00000000000E+00 0. -1.
<mgrwt>
<rscale>  0 0.99790715E+03</rscale>
<asrwt>0</asrwt>
<pdfrwt beam="1">  1        2 0.34834115E+00 0.99790715E+03</pdfrwt>
<pdfrwt beam="2">  1       -2 0.16915654E-01 0.99790715E+03</pdfrwt>
<totfact> 0.13673682E+02</totfact>
</mgrwt>
</event>
<event>
 6    1  0.1603085E-006  0.1556496E+04  0.7818608E-02  0.8847729E-01
          2   -1    0    0  501    0  0.00000000000E+00  0.00000000000E+00  0.18984116134E+04  0.18984116134E+04  0.00000000000E+00 0. -1.
         -2   -1    0    0    0  501 -0.00000000000E+00 -0.00000000000E+00 -0.31904048831E+03  0.31904048831E+03  0.00000000000E+00 0.  1.
         23    2    1    2    0    0  0.66157572724E+03 -0.32054358881E+03  0.44091267071E+03  0.86227008901E+03  0.93140152526E+02 0.  0.
         13    1    3    3    0    0  0.45425128501E+03 -0.25745443073E+03  0.28102558607E+03  0.59296070179E+03  0.00000000000E+00 0. -1.
        -13    1    3    3    0    0  0.20732444223E+03 -0.63089158072E+02  0.15988708464E+03  0.26930938723E+03  0.00000000000E+00 0.  1.
         22    1    1    2    0    0 -0.66157572724E+03  0.32054358881E+03  0.11384584544E+04  0.13551820127E+04  0.00000000000E+00 0. -1.
<mgrwt>
<rscale>  0 0.15564963E+04</rscale>
<asrwt>0</asrwt>
<pdfrwt beam="1">  1        2 0.29206332E+00 0.15564963E+04</pdfrwt>
<pdfrwt beam="2">  1       -2 0.49083153E-01 0.15564963E+04</pdfrwt>
<totfact> 0.28770759E+01</totfact>
</mgrwt>
</event>
<event>
 6    1  0.1603085E-006  0.2857171E+04  0.7818608E-02  0.8285736E-01
          2   -1    0    0  501    0  0.00000000000E+00  0.00000000000E+00  0.20266701984E+04  0.20266701984E+04  0.00000000000E+00 0. -1.
         -2   -1    0    0    0  501 -0.00000000000E+00 -0.00000000000E+00 -0.10069996236E+04  0.10069996236E+04  0.00000000000E+00 0.  1.
         23    2    1    2    0    0  0.12962311014E+04  0.60278481411E+02 -0.12043375886E+03  0.13063347489E+04  0.90319556734E+02 0.  0.
         13    1    3    3    0    0  0.45606893395E+03  0.55739045586E+02 -0.16527970871E+02  0.45975959754E+03  0.00000000000E+00 0. -1.
        -13    1    3    3    0    0  0.84016216742E+03  0.45394358249E+01 -0.10390578799E+03  0.84657515132E+03  0.00000000000E+00 0.  1.
         22    1    1    2    0    0 -0.12962311014E+04 -0.60278481411E+02  0.11401043336E+04  0.17273350732E+04  0.00000000000E+00 0. -1.
<mgrwt>
<rscale>  0 0.28571707E+04</rscale>
<asrwt>0</asrwt>
<pdfrwt beam="1">  1        2 0.31179541E+00 0.28571707E+04</pdfrwt>
<pdfrwt beam="2">  1       -2 0.15492302E+00 0.28571707E+04</pdfrwt>
<totfact> 0.15372918E+00</totfact>
</mgrwt>
</event>
<event>
 6    1  0.1603085E-006  0.3077360E+04  0.7818608E-02  0.8221979E-01
         -1   -1    0    0    0  501 -0.00000000000E+00  0.00000000000E+00  0.13335155485E+04  0.13335155485E+04  0.00000000000E+00 0.  1.
          1   -1    0    0  501    0  0.00000000000E+00 -0.00000000000E+00 -0.17754092422E+04  0.17754092422E+04  0.00000000000E+00 0. -1.
         23    2    1    2    0    0  0.93178683659E+03  0.87379510861E+03 -0.10852805265E+04  0.16786481680E+04  0.91001373611E+02 0.  0.
         11    1    3    3    0    0  0.46854382045E+03  0.48950478748E+03 -0.53936652705E+03  0.86606264159E+03  0.00000000000E+00 0.  1.
        -11    1    3    3    0    0  0.46324301613E+03  0.38429032113E+03 -0.54591399943E+03  0.81258552638E+03  0.00000000000E+00 0. -1.
         22    1    1    2    0    0 -0.93178683659E+03 -0.87379510861E+03  0.64338683279E+03  0.14302766226E+04  0.00000000000E+00 0. -1.
<mgrwt>
<rscale>  0 0.30773598E+04</rscale>
<asrwt>0</asrwt>
<pdfrwt beam="1">  1        1 0.27313988E+00 0.30773598E+04</pdfrwt>
<pdfrwt beam="2">  1       -1 0.20515624E+00 0.30773598E+04</pdfrwt>
<totfact> 0.49657109E-01</totfact>
</mgrwt>
</event>
<event>
 6    1  0.1603085E-006  0.3178094E+04  0.7818608E-02  0.8194627E-01
          4   -1    0    0  501    0  0.00000000000E+00  0.00000000000E+00  0.22862927352E+04  0.22862927352E+04  0.00000000000E+00 0. -1.
         -4   -1    0    0    0  501 -0.00000000000E+00 -0.00000000000E+00 -0.11044386919E+04  0.11044386919E+04  0.00000000000E+00 0.  1.
         23    2    1    2    0    0 -0.14579081270E+04 -0.24962727318E+03  0.12070883784E+04  0.19113914885E+04  0.92440179574E+02 0.  0.
         13    1    3    3    0    0 -0.85666321210E+03 -0.10124526646E+03  0.71365179353E+03  0.11195630154E+04  0.00000000000E+00 0. -1.
        -13    1    3    3    0    0 -0.60124491487E+03 -0.14838200672E+03  0.49343658490E+03  0.79182847315E+03  0.00000000000E+00 0.  1.
         22    1    1    2    0    0  0.14579081270E+04  0.24962727318E+03 -0.25234335169E+02  0.14793399386E+04  0.00000000000E+00 0. -1.
<mgrwt>
<rscale>  0 0.31780939E+04</rscale>
<asrwt>0</asrwt>
<pdfrwt beam="1">  1        4 0.35173734E+00 0.31780939E+04</pdfrwt>
<pdfrwt beam="2">  1       -4 0.16991365E+00 0.31780939E+04</pdfrwt>
<totfact> 0.51093226E-03</totfact>
</mgrwt>
</event>
<event>
 6    1  0.1603085E-006  0.2219255E+04  0.7818608E-02  0.8510456E-01
          2   -1    0    0  501    0  0.00000000000E+00  0.00000000000E+00  0.37817521867E+04  0.37817521867E+04  0.00000000000E+00 0.  1.
         -2   -1    0    0    0  501 -0.00000000000E+00 -0.00000000000E+00 -0.32558272563E+03  0.32558272563E+03  0.00000000000E+00 0. -1.
         23    2    1    2    0    0 -0.40372586291E+03 -0.53885655854E+03  0.33587069974E+04  0.34269968383E+04  0.10016822281E+03 0.  0.
         11    1    3    3    0    0 -0.21729611218E+03 -0.21863215990E+03  0.16549142877E+04  0.16833772368E+04  0.00000000000E+00 0.  1.
        -11    1    3    3    0    0 -0.18642975073E+03 -0.32022439863E+03  0.17037927097E+04  0.17436196016E+04  0.00000000000E+00 0. -1.
         22    1    1    2    0    0  0.40372586291E+03  0.53885655854E+03  0.97462463690E+02  0.68033807397E+03  0.00000000000E+00 0. -1.
<mgrwt>
<rscale>  0 0.22192550E+04</rscale>
<asrwt>0</asrwt>
<pdfrwt beam="1">  1        2 0.58180800E+00 0.22192550E+04</pdfrwt>
<pdfrwt beam="2">  1       -2 0.50089653E-01 0.22192550E+04</pdfrwt>
<totfact> 0.17536719E+00</totfact>
</mgrwt>
</event>
<event>
 6    1  0.2038870E-006  0.3072467E+04  0.7818608E-02  0.8223335E-01
         -2   -1    0    0    0  501 -0.00000000000E+00  0.00000000000E+00  0.98971614720E+03  0.98971614720E+03  0.00000000000E+00 0.  1.
          2   -1    0    0  501    0  0.00000000000E+00 -0.00000000000E+00 -0.23845361243E+04  0.23845361243E+04  0.00000000000E+00 0. -1.
         23    2    1    2    0    0  0.53212388283E+03  0.82410131557E+03 -0.19944327436E+04  0.22245417537E+04  0.92332229106E+02 0.  0.
         13    1    3    3    0    0  0.29113680798E+03  0.43771970217E+03 -0.96537903759E+03  0.10992342175E+04  0.00000000000E+00 0. -1.
        -13    1    3    3    0    0  0.24098707485E+03  0.38638161340E+03 -0.10290537060E+04  0.11253075363E+04  0.00000000000E+00 0.  1.
         22    1    1    2    0    0 -0.53212388283E+03 -0.82410131557E+03  0.59961276645E+03  0.11497105178E+04  0.00000000000E+00 0.  1.
<mgrwt>
<rscale>  0 0.30724674E+04</rscale>
<asrwt>0</asrwt>
<pdfrwt beam="1">  1        2 0.36685171E+00 0.30724674E+04</pdfrwt>
<pdfrwt beam="2">  1       -2 0.15226402E+00 0.30724674E+04</pdfrwt>
<totfact> 0.99393793E-01</totfact>
</mgrwt>
</event>
<event>
 6    1  0.1960335E-006  0.2723110E+04  0.7818608E-02  0.8327545E-01
         -1   -1    0    0    0  501 -0.00000000000E+00  0.00000000000E+00  0.11302578703E+04  0.11302578703E+04  0.00000000000E+00 0.  1.
          1   -1    0    0  501    0  0.00000000000E+00 -0.00000000000E+00 -0.16401852341E+04  0.16401852341E+04  0.00000000000E+00 0. -1.
         23    2    1    2    0    0  0.51329495016E+03 -0.31729955612E+03 -0.14952806907E+04  0.16149899928E+04  0.90430187361E+02 0.  0.
         11    1    3    3    0    0  0.18933713860E+03 -0.12967836931E+03 -0.68467786359E+03  0.72211412423E+03  0.00000000000E+00 0.  1.
        -11    1    3    3    0    0  0.32395781157E+03 -0.18762118680E+03 -0.81060282709E+03  0.89287586859E+03  0.00000000000E+00 0. -1.
         22    1    1    2    0    0 -0.51329495016E+03  0.31729955612E+03  0.98535332690E+03  0.11554531116E+04  0.00000000000E+00 0.  1.
<mgrwt>
<rscale>  0 0.27231102E+04</rscale>
<asrwt>0</asrwt>
<pdfrwt beam="1">  1        1 0.25233619E+00 0.27231102E+04</pdfrwt>
<pdfrwt beam="2">  1       -1 0.17388583E+00 0.27231102E+04</pdfrwt>
<totfact> 0.10517459E+00</totfact>
</mgrwt>
</event>
<event>
 6    1  0.1603085E-006  0.5135946E+04  0.7818608E-02  0.7807872E-01
         -2   -1    0    0    0  501 -0.00000000000E+00  0.00000000000E+00  0.25265561908E+04  0.25265561908E+04  0.00000000000E+00 0.  1.
          2   -1    0    0  501    0  0.00000000000E+00 -0.00000000000E+00 -0.26100688851E+04  0.26100688851E+04  0.00000000000E+00 0. -1.
         23    2    1    2    0    0 -0.15488161458E+04 -0.10819723222E+04 -0.17800536814E+04  0.25973836772E+04  0.91188257075E+02 0.  0.
         13    1    3    3    0    0 -0.12138947388E+04 -0.88308446451E+03 -0.14445346826E+04  0.20832808398E+04  0.00000000000E+00 0.  1.
        -13    1    3    3    0    0 -0.33492140703E+03 -0.19888785772E+03 -0.33551899882E+03  0.51410283738E+03  0.00000000000E+00 0. -1.
         22    1    1    2    0    0  0.15488161458E+04  0.10819723222E+04  0.16965409871E+04  0.25392413987E+04  0.00000000000E+00 0.  1.
<mgrwt>
<rscale>  0 0.51359461E+04</rscale>
<asrwt>0</asrwt>
<pdfrwt beam="1">  1        2 0.40154906E+00 0.51359461E+04</pdfrwt>
<pdfrwt beam="2">  1       -2 0.38870095E+00 0.51359461E+04</pdfrwt>
<totfact> 0.19024377E-02</totfact>
</mgrwt>
</event>
<event>
 6    1  0.1784962E-006  0.2806175E+04  0.7818608E-02  0.8301354E-01
         -1   -1    0    0    0  501 -0.00000000000E+00  0.00000000000E+00  0.72644664251E+03  0.72644664251E+03  0.00000000000E+00 0. -1.
          1   -1    0    0  501    0  0.00000000000E+00 -0.00000000000E+00 -0.27099779933E+04  0.27099779933E+04  0.00000000000E+00 0.  1.
         23    2    1    2    0    0  0.60483941926E+03 -0.86520437894E+03  0.13749126132E+03  0.10672166961E+04  0.75088541813E+02 0.  0.
         11    1    3    3    0    0  0.38417621131E+03 -0.49490295361E+03  0.61751620727E+02  0.62955028194E+03  0.00000000000E+00 0.  1.
        -11    1    3    3    0    0  0.22066320795E+03 -0.37030142533E+03  0.75739640596E+02  0.43766641418E+03  0.00000000000E+00 0. -1.
         22    1    1    2    0    0 -0.60483941926E+03  0.86520437894E+03 -0.21210226121E+04  0.23692079397E+04  0.00000000000E+00 0.  1.
<mgrwt>
<rscale>  0 0.28061749E+04</rscale>
<asrwt>0</asrwt>
<pdfrwt beam="1">  1        1 0.41691969E+00 0.28061749E+04</pdfrwt>
<pdfrwt beam="2">  1       -1 0.11176102E+00 0.28061749E+04</pdfrwt>
<totfact> 0.61369453E-01</totfact>
</mgrwt>
</event>
<event>
 6    1  0.1603085E-006  0.3082569E+04  0.7818608E-02  0.8220538E-01
         -2   -1    0    0    0  501 -0.00000000000E+00  0.00000000000E+00  0.79130830830E+03  0.79130830830E+03  0.00000000000E+00 0.  1.
          2   -1    0    0  501    0  0.00000000000E+00 -0.00000000000E+00 -0.30020642970E+04  0.30020642970E+04  0.00000000000E+00 0. -1.
         23    2    1    2    0    0  0.49602403072E+03 -0.14423209059E+04 -0.13680762461E+04  0.20508346334E+04  0.89222441092E+02 0.  0.
         11    1    3    3    0    0  0.34782885710E+03 -0.11250124615E+04 -0.10459938373E+04  0.15750368440E+04  0.00000000000E+00 0. -1.
        -11    1    3    3    0    0  0.14819517361E+03 -0.31730844440E+03 -0.32208240875E+03  0.47579778940E+03  0.00000000000E+00 0.  1.
         22    1    1    2    0    0 -0.49602403072E+03  0.14423209059E+04 -0.84267974262E+03  0.17425379718E+04  0.00000000000E+00 0.  1.
<mgrwt>
<rscale>  0 0.30825693E+04</rscale>
<asrwt>0</asrwt>
<pdfrwt beam="1">  1        2 0.46185605E+00 0.30825693E+04</pdfrwt>
<pdfrwt beam="2">  1       -2 0.12173974E+00 0.30825693E+04</pdfrwt>
<totfact> 0.75563565E-01</totfact>
</mgrwt>
</event>
<event>
 6    1  0.1603085E-006  0.1810951E+04  0.7818608E-02  0.8700497E-01
         -1   -1    0    0    0  501 -0.00000000000E+00  0.00000000000E+00  0.48656675759E+03  0.48656675759E+03  0.00000000000E+00 0.  1.
          1   -1    0    0  501    0  0.00000000000E+00 -0.00000000000E+00 -0.16850431221E+04  0.16850431221E+04  0.00000000000E+00 0. -1.
         23    2    1    2    0    0 -0.44658251648E+03 -0.44975326448E+03 -0.13722294590E+04  0.15144157830E+04  0.93421264283E+02 0.  0.
         13    1    3    3    0    0 -0.16608040487E+03 -0.22244982976E+03 -0.53761512080E+03  0.60505920847E+03  0.00000000000E+00 0.  1.
        -13    1    3    3    0    0 -0.28050211161E+03 -0.22730343472E+03 -0.83461433821E+03  0.90935657450E+03  0.00000000000E+00 0. -1.
         22    1    1    2    0    0  0.44658251648E+03  0.44975326448E+03  0.17375309449E+03  0.65719409673E+03  0.00000000000E+00 0.  1.
<mgrwt>
<rscale>  0 0.18109511E+04</rscale>
<asrwt>0</asrwt>
<pdfrwt beam="1">  1        1 0.25923741E+00 0.18109511E+04</pdfrwt>
<pdfrwt beam="2">  1       -1 0.74856424E-01 0.18109511E+04</pdfrwt>
<totfact> 0.82568116E+00</totfact>
</mgrwt>
</event>
<event>
 6    1  0.1603085E-006  0.1784992E+04  0.7818608E-02  0.8714322E-01
         -1   -1    0    0    0  501 -0.00000000000E+00  0.00000000000E+00  0.99144048452E+03  0.99144048452E+03  0.00000000000E+00 0.  1.
          1   -1    0    0  501    0  0.00000000000E+00 -0.00000000000E+00 -0.80342565393E+03  0.80342565393E+03  0.00000000000E+00 0. -1.
         23    2    1    2    0    0 -0.83797956608E+01  0.58210997127E+03 -0.58371459866E+03  0.82817665801E+03  0.78940512813E+02 0.  0.
         13    1    3    3    0    0  0.35096652248E+02  0.24601193133E+03 -0.25438480742E+03  0.35561956583E+03  0.00000000000E+00 0. -1.
        -13    1    3    3    0    0 -0.43476447909E+02  0.33609803994E+03 -0.32932979124E+03  0.47255709219E+03  0.00000000000E+00 0.  1.
         22    1    1    2    0    0  0.83797956608E+01 -0.58210997127E+03  0.77172942924E+03  0.96668948044E+03  0.00000000000E+00 0.  1.
<mgrwt>
<rscale>  0 0.17849916E+04</rscale>
<asrwt>0</asrwt>
<pdfrwt beam="1">  1        1 0.12360395E+00 0.17849916E+04</pdfrwt>
<pdfrwt beam="2">  1       -1 0.15252931E+00 0.17849916E+04</pdfrwt>
<totfact> 0.69180749E+00</totfact>
</mgrwt>
</event>
<event>
 6    1  0.1603085E-006  0.3599347E+04  0.7818608E-02  0.8090641E-01
          2   -1    0    0  501    0  0.00000000000E+00  0.00000000000E+00  0.18192372169E+04  0.18192372169E+04  0.00000000000E+00 0. -1.
         -2   -1    0    0    0  501 -0.00000000000E+00 -0.00000000000E+00 -0.17803198387E+04  0.17803198387E+04  0.00000000000E+00 0.  1.
         23    2    1    2    0    0  0.57786763833E+03  0.33913413998E+03 -0.16496468871E+04  0.17829139288E+04  0.92218508391E+02 0.  0.
         11    1    3    3    0    0  0.34078324553E+03  0.17423967487E+03 -0.10437475254E+04  0.11117111052E+04  0.00000000000E+00 0.  1.
        -11    1    3    3    0    0  0.23708439279E+03  0.16489446511E+03 -0.60589936167E+03  0.67120282359E+03  0.00000000000E+00 0. -1.
         22    1    1    2    0    0 -0.57786763833E+03 -0.33913413998E+03  0.16885642652E+04  0.18166431268E+04  0.00000000000E+00 0. -1.
<mgrwt>
<rscale>  0 0.35993467E+04</rscale>
<asrwt>0</asrwt>
<pdfrwt beam="1">  1        2 0.27988265E+00 0.35993467E+04</pdfrwt>
<pdfrwt beam="2">  1       -2 0.27389536E+00 0.35993467E+04</pdfrwt>
<totfact> 0.31487525E-01</totfact>
</mgrwt>
</event>
<event>
 6    1  0.1603085E-006  0.1502923E+04  0.7818608E-02  0.8882511E-01
         -1   -1    0    0    0  501 -0.00000000000E+00  0.00000000000E+00  0.34580380676E+03  0.34580380676E+03  0.00000000000E+00 0.  1.
          1   -1    0    0  501    0  0.00000000000E+00 -0.00000000000E+00 -0.16329908194E+04  0.16329908194E+04  0.00000000000E+00 0. -1.
         23    2    1    2    0    0 -0.30881306761E+03  0.34613787067E+03 -0.14198378233E+04  0.14963289032E+04  0.88790797042E+02 0.  0.
         11    1    3    3    0    0 -0.28194627441E+03  0.30050875292E+03 -0.11564431433E+04  0.12276644313E+04  0.00000000000E+00 0.  1.
        -11    1    3    3    0    0 -0.26866793192E+02  0.45629117749E+02 -0.26339468000E+03  0.26866447181E+03  0.00000000000E+00 0. -1.
         22    1    1    2    0    0  0.30881306761E+03 -0.34613787067E+03  0.13265081073E+03  0.48246572295E+03  0.00000000000E+00 0.  1.
<mgrwt>
<rscale>  0 0.15029231E+04</rscale>
<asrwt>0</asrwt>
<pdfrwt beam="1">  1        1 0.25122936E+00 0.15029231E+04</pdfrwt>
<pdfrwt beam="2">  1       -1 0.53200586E-01 0.15029231E+04</pdfrwt>
<totfact> 0.18253561E+01</totfact>
</mgrwt>
</event>
<event>
 6    1  0.1603085E-006  0.6717947E+03  0.7818608E-02  0.9766721E-01
          2   -1    0    0  501    0  0.00000000000E+00  0.00000000000E+00  0.34821528129E+04  0.34821528129E+04  0.00000000000E+00 0. -1.
         -2   -1    0    0    0  501 -0.00000000000E+00 -0.00000000000E+00 -0.32401519052E+02  0.32401519052E+02  0.00000000000E+00 0.  1.
         23    2    1    2    0    0 -0.29388690651E+03  0.19215801136E+02  0.25297256352E+04  0.25485388179E+04  0.93805949120E+02 0.  0.
         13    1    3    3    0    0 -0.27387615681E+03 -0.86552278340E+01  0.23000455461E+04  0.23163101210E+04  0.00000000000E+00 0. -1.
        -13    1    3    3    0    0 -0.20010749700E+02  0.27871028970E+02  0.22968008911E+03  0.23222869696E+03  0.00000000000E+00 0.  1.
         22    1    1    2    0    0  0.29388690651E+03 -0.19215801136E+02  0.92002565863E+03  0.96601551404E+03  0.00000000000E+00 0.  1.
<mgrwt>
<rscale>  0 0.67179473E+03</rscale>
<asrwt>0</asrwt>
<pdfrwt beam="1">  1        2 0.53571552E+00 0.67179473E+03</pdfrwt>
<pdfrwt beam="2">  1       -2 0.49848518E-02 0.67179473E+03</pdfrwt>
<totfact> 0.18863204E+02</totfact>
</mgrwt>
</event>
<event>
 6    1  0.1603085E-006  0.2181130E+04  0.7818608E-02  0.8526323E-01
          1   -1    0    0  501    0  0.00000000000E+00  0.00000000000E+00  0.19635830518E+04  0.19635830518E+04  0.00000000000E+00 0. -1.
         -1   -1    0    0    0  501 -0.00000000000E+00 -0.00000000000E+00 -0.60569498759E+03  0.60569498759E+03  0.00000000000E+00 0.  1.
         23    2    1    2    0    0 -0.31606900991E+03 -0.60765998425E+03  0.16768279624E+04  0.18137167022E+04  0.93091271594E+02 0.  0.
         13    1    3    3    0    0 -0.21319744905E+03 -0.39704793216E+03  0.12133367454E+04  0.12943285018E+04  0.00000000000E+00 0.  1.
        -13    1    3    3    0    0 -0.10287156086E+03 -0.21061205209E+03  0.46349121698E+03  0.51938820042E+03  0.00000000000E+00 0. -1.
         22    1    1    2    0    0  0.31606900991E+03  0.60765998425E+03 -0.31893989824E+03  0.75556133714E+03  0.00000000000E+00 0.  1.
<mgrwt>
<rscale>  0 0.21811304E+04</rscale>
<asrwt>0</asrwt>
<pdfrwt beam="1">  1        1 0.30208970E+00 0.21811304E+04</pdfrwt>
<pdfrwt beam="2">  1       -1 0.93183845E-01 0.21811304E+04</pdfrwt>
<totfact> 0.32205393E+00</totfact>
</mgrwt>
</event>
<event>
 6    1  0.1603085E-006  0.1906150E+04  0.7818608E-02  0.8651801E-01
         -2   -1    0    0    0  501 -0.00000000000E+00  0.00000000000E+00  0.14324834291E+04  0.14324834291E+04  0.00000000000E+00 0.  1.
          2   -1    0    0  501    0  0.00000000000E+00 -0.00000000000E+00 -0.63410968967E+03  0.63410968967E+03  0.00000000000E+00 0. -1.
         23    2    1    2    0    0  0.92219414007E+03 -0.18742558765E+03  0.25139183823E+03  0.97812649866E+03  0.89236809501E+02 0.  0.
         11    1    3    3    0    0  0.53318671379E+03 -0.63270983843E+02  0.14377220086E+03  0.55584326468E+03  0.00000000000E+00 0.  1.
        -11    1    3    3    0    0  0.38900742628E+03 -0.12415460381E+03  0.10761963737E+03  0.42228323398E+03  0.00000000000E+00 0. -1.
         22    1    1    2    0    0 -0.92219414007E+03  0.18742558765E+03  0.54698190124E+03  0.10884666201E+04  0.00000000000E+00 0.  1.
<mgrwt>
<rscale>  0 0.19061497E+04</rscale>
<asrwt>0</asrwt>
<pdfrwt beam="1">  1        2 0.97555337E-01 0.19061497E+04</pdfrwt>
<pdfrwt beam="2">  1       -2 0.22038207E+00 0.19061497E+04</pdfrwt>
<totfact> 0.42625901E+00</totfact>
</mgrwt>
</event>
<event>
 6    1  0.1603085E-006  0.3868187E+04  0.7818608E-02  0.8031678E-01
          2   -1    0    0  501    0  0.00000000000E+00  0.00000000000E+00  0.12414154713E+04  0.12414154713E+04  0.00000000000E+00 0. -1.
         -2   -1    0    0    0  501 -0.00000000000E+00 -0.00000000000E+00 -0.30132681908E+04  0.30132681908E+04  0.00000000000E+00 0.  1.
         23    2    1    2    0    0 -0.85310439171E+03 -0.11063841845E+04  0.58305687000E+03  0.15165324169E+04  0.89678263701E+02 0.  0.
         13    1    3    3    0    0 -0.72810823340E+03 -0.92830539911E+03  0.45786904049E+03  0.12655183017E+04  0.00000000000E+00 0.  1.
        -13    1    3    3    0    0 -0.12499615831E+03 -0.17807878538E+03  0.12518782951E+03  0.25101411524E+03  0.00000000000E+00 0. -1.
         22    1    1    2    0    0  0.85310439171E+03  0.11063841845E+04 -0.23549095895E+04  0.27381512452E+04  0.00000000000E+00 0.  1.
<mgrwt>
<rscale>  0 0.38681870E+04</rscale>
<asrwt>0</asrwt>
<pdfrwt beam="1">  1        2 0.19098700E+00 0.38681870E+04</pdfrwt>
<pdfrwt beam="2">  1       -2 0.46357972E+00 0.38681870E+04</pdfrwt>
<totfact> 0.40297213E-02</totfact>
</mgrwt>
</event>
<event>
 6    1  0.1603085E-006  0.3300590E+04  0.7818608E-02  0.8162745E-01
         -2   -1    0    0    0  501 -0.00000000000E+00  0.00000000000E+00  0.14647388880E+04  0.14647388880E+04  0.00000000000E+00 0.  1.
          2   -1    0    0  501    0  0.00000000000E+00 -0.00000000000E+00 -0.18593578706E+04  0.18593578706E+04  0.00000000000E+00 0. -1.
         23    2    1    2    0    0 -0.12318234029E+04  0.39856710089E+03  0.83115261349E+03  0.15411888429E+04  0.90574569971E+02 0.  0.
         11    1    3    3    0    0 -0.54898319690E+03  0.22396970874E+03  0.36838522840E+03  0.69803485401E+03  0.00000000000E+00 0. -1.
        -11    1    3    3    0    0 -0.68284020601E+03  0.17459739215E+03  0.46276738509E+03  0.84315398890E+03  0.00000000000E+00 0.  1.
         22    1    1    2    0    0  0.12318234029E+04 -0.39856710089E+03 -0.12257715962E+04  0.17829079157E+04  0.00000000000E+00 0. -1.
<mgrwt>
<rscale>  0 0.33005901E+04</rscale>
<asrwt>0</asrwt>
<pdfrwt beam="1">  1        2 0.28605506E+00 0.33005901E+04</pdfrwt>
<pdfrwt beam="2">  1       -2 0.22534444E+00 0.33005901E+04</pdfrwt>
<totfact> 0.61090702E-01</totfact>
</mgrwt>
</event>
<event>
 6    1  0.1603085E-006  0.1686292E+04  0.7818608E-02  0.8769221E-01
         -2   -1    0    0    0  501 -0.00000000000E+00  0.00000000000E+00  0.85964907333E+03  0.85964907333E+03  0.00000000000E+00 0.  1.
          2   -1    0    0  501    0  0.00000000000E+00 -0.00000000000E+00 -0.82695961302E+03  0.82695961302E+03  0.00000000000E+00 0. -1.
         23    2    1    2    0    0 -0.21883948051E+03  0.17775094851E+03  0.80807378600E+03  0.86155900879E+03  0.99068481727E+02 0.  0.
         13    1    3    3    0    0  0.22301548003E+01  0.36240628924E+02  0.93632766861E+02  0.10042635015E+03  0.00000000000E+00 0.  1.
        -13    1    3    3    0    0 -0.22106963531E+03  0.14151031958E+03  0.71444101914E+03  0.76113265863E+03  0.00000000000E+00 0. -1.
         22    1    1    2    0    0  0.21883948051E+03 -0.17775094851E+03 -0.77538432569E+03  0.82504967756E+03  0.00000000000E+00 0. -1.
<mgrwt>
<rscale>  0 0.16862919E+04</rscale>
<asrwt>0</asrwt>
<pdfrwt beam="1">  1        2 0.12722456E+00 0.16862919E+04</pdfrwt>
<pdfrwt beam="2">  1       -2 0.13225370E+00 0.16862919E+04</pdfrwt>
<totfact> 0.13045716E+01</totfact>
</mgrwt>
</event>
<event>
 6    1  0.1603085E-006  0.1987816E+04  0.7818608E-02  0.8612338E-01
         -1   -1    0    0    0  501 -0.00000000000E+00  0.00000000000E+00  0.11628145242E+04  0.11628145242E+04  0.00000000000E+00 0.  1.
          1   -1    0    0  501    0  0.00000000000E+00 -0.00000000000E+00 -0.84953623578E+03  0.84953623578E+03  0.00000000000E+00 0. -1.
         23    2    1    2    0    0 -0.75302196633E+03  0.71345801849E+02 -0.49228200903E+03  0.90733505961E+03  0.93717814531E+02 0.  0.
         11    1    3    3    0    0 -0.57841680094E+03  0.86206353532E+02 -0.40666253688E+03  0.71230046321E+03  0.00000000000E+00 0.  1.
        -11    1    3    3    0    0 -0.17460516540E+03 -0.14860551683E+02 -0.85619472150E+02  0.19503459639E+03  0.00000000000E+00 0. -1.
         22    1    1    2    0    0  0.75302196633E+03 -0.71345801849E+02  0.80556029741E+03  0.11050157003E+04  0.00000000000E+00 0.  1.
<mgrwt>
<rscale>  0 0.19878160E+04</rscale>
<asrwt>0</asrwt>
<pdfrwt beam="1">  1        1 0.13069788E+00 0.19878160E+04</pdfrwt>
<pdfrwt beam="2">  1       -1 0.17889454E+00 0.19878160E+04</pdfrwt>
<totfact> 0.39454814E+00</totfact>
</mgrwt>
</event>
<event>
 6    1  0.1603085E-006  0.3278895E+04  0.7818608E-02  0.8168286E-01
          2   -1    0    0  501    0  0.00000000000E+00  0.00000000000E+00  0.21506013823E+04  0.21506013823E+04  0.00000000000E+00 0. -1.
         -2   -1    0    0    0  501 -0.00000000000E+00 -0.00000000000E+00 -0.12497844083E+04  0.12497844083E+04  0.00000000000E+00 0.  1.
         23    2    1    2    0    0 -0.11858129243E+04 -0.65300215353E+03  0.14074379407E+04  0.19549692735E+04  0.91973906412E+02 0.  0.
         13    1    3    3    0    0 -0.42773949689E+03 -0.18951535768E+03  0.46128771020E+03  0.65701103459E+03  0.00000000000E+00 0.  1.
        -13    1    3    3    0    0 -0.75807342739E+03 -0.46348679585E+03  0.94615023052E+03  0.12979582389E+04  0.00000000000E+00 0. -1.
         22    1    1    2    0    0  0.11858129243E+04  0.65300215353E+03 -0.50662096668E+03  0.14454165171E+04  0.00000000000E+00 0.  1.
<mgrwt>
<rscale>  0 0.32788950E+04</rscale>
<asrwt>0</asrwt>
<pdfrwt beam="1">  1        2 0.33086175E+00 0.32788950E+04</pdfrwt>
<pdfrwt beam="2">  1       -2 0.19227452E+00 0.32788950E+04</pdfrwt>
<totfact> 0.68925491E-01</totfact>
</mgrwt>
</event>
<event>
 6    1  0.1603085E-006  0.2860349E+04  0.7818608E-02  0.8284774E-01
          1   -1    0    0  501    0  0.00000000000E+00  0.00000000000E+00  0.33887304303E+04  0.33887304303E+04  0.00000000000E+00 0. -1.
         -1   -1    0    0    0  501 -0.00000000000E+00 -0.00000000000E+00 -0.60358849432E+03  0.60358849432E+03  0.00000000000E+00 0.  1.
         23    2    1    2    0    0  0.12397131055E+04 -0.40562032523E+03  0.57966415134E+03  0.14299862588E+04  0.86219138272E+02 0.  0.
         13    1    3    3    0    0  0.75558516296E+03 -0.22398261641E+03  0.38912345461E+03  0.87891649994E+03  0.00000000000E+00 0. -1.
        -13    1    3    3    0    0  0.48412794249E+03 -0.18163770883E+03  0.19054069673E+03  0.55106975881E+03  0.00000000000E+00 0.  1.
         22    1    1    2    0    0 -0.12397131055E+04  0.40562032523E+03  0.22054777846E+04  0.25623326659E+04  0.00000000000E+00 0. -1.
<mgrwt>
<rscale>  0 0.28603487E+04</rscale>
<asrwt>0</asrwt>
<pdfrwt beam="1">  1        1 0.52134313E+00 0.28603487E+04</pdfrwt>
<pdfrwt beam="2">  1       -1 0.92859771E-01 0.28603487E+04</pdfrwt>
<totfact> 0.29610428E-01</totfact>
</mgrwt>
</event>
<event>
 6    1  0.1603085E-006  0.1741119E+04  0.7818608E-02  0.8738254E-01
          1   -1    0    0  501    0  0.00000000000E+00  0.00000000000E+00  0.18013593877E+04  0.18013593877E+04  0.00000000000E+00 0. -1.
         -1   -1    0    0    0  501 -0.00000000000E+00 -0.00000000000E+00 -0.42072306191E+03  0.42072306191E+03  0.00000000000E+00 0.  1.
         23    2    1    2    0    0  0.37846136253E+02  0.69701780279E+03  0.13508986781E+04  0.15234047878E+04  0.92567606059E+02 0.  0.
         11    1    3    3    0    0  0.65741585129E+02  0.47941436899E+03  0.96395668084E+03  0.10785975041E+04  0.00000000000E+00 0. -1.
        -11    1    3    3    0    0 -0.27895448875E+02  0.21760343379E+03  0.38694199723E+03  0.44480728376E+03  0.00000000000E+00 0.  1.
         22    1    1    2    0    0 -0.37846136253E+02 -0.69701780279E+03  0.29737647745E+02  0.69867766182E+03  0.00000000000E+00 0.  1.
<mgrwt>
<rscale>  0 0.17411185E+04</rscale>
<asrwt>0</asrwt>
<pdfrwt beam="1">  1        1 0.27713221E+00 0.17411185E+04</pdfrwt>
<pdfrwt beam="2">  1       -1 0.64726626E-01 0.17411185E+04</pdfrwt>
<totfact> 0.93306302E+00</totfact>
</mgrwt>
</event>
<event>
 6    1  0.1603085E-006  0.4242641E+04  0.7818608E-02  0.7957310E-01
          2   -1    0    0  501    0  0.00000000000E+00  0.00000000000E+00  0.13339475554E+04  0.13339475554E+04  0.00000000000E+00 0.  1.
         -2   -1    0    0    0  501 -0.00000000000E+00 -0.00000000000E+00 -0.33734470149E+04  0.33734470149E+04  0.00000000000E+00 0. -1.
         23    2    1    2    0    0  0.85915382220E+03  0.46205961579E+03 -0.31090006809E+04  0.32598182368E+04  0.94262000830E+02 0.  0.
         13    1    3    3    0    0  0.60347163386E+03  0.27568145334E+03 -0.21360257410E+04  0.22366904665E+04  0.00000000000E+00 0. -1.
        -13    1    3    3    0    0  0.25568218833E+03  0.18637816244E+03 -0.97297493988E+03  0.10231277704E+04  0.00000000000E+00 0.  1.
         22    1    1    2    0    0 -0.85915382220E+03 -0.46205961579E+03  0.10695012214E+04  0.14475763335E+04  0.00000000000E+00 0.  1.
<mgrwt>
<rscale>  0 0.42426413E+04</rscale>
<asrwt>0</asrwt>
<pdfrwt beam="1">  1        2 0.20522270E+00 0.42426413E+04</pdfrwt>
<pdfrwt beam="2">  1       -2 0.51899184E+00 0.42426413E+04</pdfrwt>
<totfact> 0.15522742E-02</totfact>
</mgrwt>
</event>
<event>
 6    1  0.1603085E-006  0.1504716E+04  0.7818608E-02  0.8881323E-01
          2   -1    0    0  501    0  0.00000000000E+00  0.00000000000E+00  0.30572451104E+04  0.30572451104E+04  0.00000000000E+00 0. -1.
         -2   -1    0    0    0  501 -0.00000000000E+00 -0.00000000000E+00 -0.18514795564E+03  0.18514795564E+03  0.00000000000E+00 0.  1.
         23    2    1    2    0    0  0.62757082641E+03  0.40023550480E+03  0.16332402362E+04  0.17971249019E+04  0.90280909533E+02 0.  0.
         11    1    3    3    0    0  0.35305512248E+03  0.24211185647E+03  0.83568230549E+03  0.93895206814E+03  0.00000000000E+00 0. -1.
        -11    1    3    3    0    0  0.27451570393E+03  0.15812364833E+03  0.79755793069E+03  0.85817283380E+03  0.00000000000E+00 0.  1.
         22    1    1    2    0    0 -0.62757082641E+03 -0.40023550480E+03  0.12388569186E+04  0.14452681641E+04  0.00000000000E+00 0.  1.
<mgrwt>
<rscale>  0 0.15047162E+04</rscale>
<asrwt>0</asrwt>
<pdfrwt beam="1">  1        2 0.47034536E+00 0.15047162E+04</pdfrwt>
<pdfrwt beam="2">  1       -2 0.28484303E-01 0.15047162E+04</pdfrwt>
<totfact> 0.17615149E+01</totfact>
</mgrwt>
</event>
<event>
 6    1  0.1603085E-006  0.2051584E+04  0.7818608E-02  0.8582876E-01
          1   -1    0    0  501    0  0.00000000000E+00  0.00000000000E+00  0.89355287879E+03  0.89355287879E+03  0.00000000000E+00 0. -1.
         -1   -1    0    0    0  501 -0.00000000000E+00 -0.00000000000E+00 -0.11776010674E+04  0.11776010674E+04  0.00000000000E+00 0.  1.
         23    2    1    2    0    0  0.67480766692E+03 -0.64615349448E+03  0.28045651704E+03  0.97957468270E+03  0.89615708916E+02 0.  0.
         11    1    3    3    0    0  0.39307294479E+03 -0.35084470660E+03  0.20010672483E+03  0.56359653068E+03  0.00000000000E+00 0. -1.
        -11    1    3    3    0    0  0.28173472213E+03 -0.29530878788E+03  0.80349792216E+02  0.41597815202E+03  0.00000000000E+00 0.  1.
         22    1    1    2    0    0 -0.67480766692E+03  0.64615349448E+03 -0.56450470565E+03  0.10915792635E+04  0.00000000000E+00 0. -1.
<mgrwt>
<rscale>  0 0.20515836E+04</rscale>
<asrwt>0</asrwt>
<pdfrwt beam="1">  1        1 0.13746967E+00 0.20515836E+04</pdfrwt>
<pdfrwt beam="2">  1       -1 0.18116939E+00 0.20515836E+04</pdfrwt>
<totfact> 0.34724450E+00</totfact>
</mgrwt>
</event>
<event>
 6    1  0.1603085E-006  0.4825596E+04  0.7818608E-02  0.7855989E-01
          2   -1    0    0  501    0  0.00000000000E+00  0.00000000000E+00  0.39255673626E+04  0.39255673626E+04  0.00000000000E+00 0. -1.
         -2   -1    0    0    0  501 -0.00000000000E+00 -0.00000000000E+00 -0.14829944989E+04  0.14829944989E+04  0.00000000000E+00 0.  1.
         23    2    1    2    0    0  0.10107862426E+04  0.45479930421E+03 -0.11792584458E+04  0.16209249637E+04  0.90642265948E+02 0.  0.
         11    1    3    3    0    0  0.43771125566E+03  0.24203301936E+03 -0.50375552582E+03  0.70988784719E+03  0.00000000000E+00 0. -1.
        -11    1    3    3    0    0  0.57307498695E+03  0.21276628485E+03 -0.67550292000E+03  0.91103711646E+03  0.00000000000E+00 0.  1.
         22    1    1    2    0    0 -0.10107862426E+04 -0.45479930421E+03  0.36218313095E+04  0.37876368978E+04  0.00000000000E+00 0. -1.
<mgrwt>
<rscale>  0 0.48255963E+04</rscale>
<asrwt>0</asrwt>
<pdfrwt beam="1">  1        2 0.60393343E+00 0.48255963E+04</pdfrwt>
<pdfrwt beam="2">  1       -2 0.22815300E+00 0.48255963E+04</pdfrwt>
<totfact> 0.25334128E-02</totfact>
</mgrwt>
</event>
<event>
 6    1  0.1603085E-006  0.2020004E+04  0.7818608E-02  0.8597325E-01
          1   -1    0    0  501    0  0.00000000000E+00  0.00000000000E+00  0.21793275879E+04  0.21793275879E+04  0.00000000000E+00 0. -1.
         -1   -1    0    0    0  501 -0.00000000000E+00 -0.00000000000E+00 -0.46808218111E+03  0.46808218111E+03  0.00000000000E+00 0.  1.
         23    2    1    2    0    0 -0.84808960625E+03  0.55582110480E+02  0.14757796125E+03  0.86769034408E+03  0.93605167246E+02 0.  0.
         11    1    3    3    0    0 -0.52389673173E+03  0.41482815525E+02  0.13662821168E+03  0.54300633305E+03  0.00000000000E+00 0.  1.
        -11    1    3    3    0    0 -0.32419287451E+03  0.14099294955E+02  0.10949749566E+02  0.32468401103E+03  0.00000000000E+00 0. -1.
         22    1    1    2    0    0  0.84808960625E+03 -0.55582110480E+02  0.15636674456E+04  0.17797194250E+04  0.00000000000E+00 0. -1.
<mgrwt>
<rscale>  0 0.20200044E+04</rscale>
<asrwt>0</asrwt>
<pdfrwt beam="1">  1        1 0.33528116E+00 0.20200044E+04</pdfrwt>
<pdfrwt beam="2">  1       -1 0.72012645E-01 0.20200044E+04</pdfrwt>
<totfact> 0.40554371E+00</totfact>
</mgrwt>
</event>
<event>
 6    1  0.1603085E-006  0.2950509E+04  0.7818608E-02  0.8258006E-01
         -2   -1    0    0    0  501 -0.00000000000E+00  0.00000000000E+00  0.57007095612E+03  0.57007095612E+03  0.00000000000E+00 0.  1.
          2   -1    0    0  501    0  0.00000000000E+00 -0.00000000000E+00 -0.38177282118E+04  0.38177282118E+04  0.00000000000E+00 0. -1.
         23    2    1    2    0    0  0.78840006640E+03 -0.59322303907E+03 -0.32535933647E+04  0.34011262352E+04  0.91113369595E+02 0.  0.
         13    1    3    3    0    0  0.16827278591E+03 -0.17157127985E+03 -0.84298640988E+03  0.87657202886E+03  0.00000000000E+00 0. -1.
        -13    1    3    3    0    0  0.62012728049E+03 -0.42165175922E+03 -0.24106069548E+04  0.25245542063E+04  0.00000000000E+00 0.  1.
         22    1    1    2    0    0 -0.78840006640E+03  0.59322303907E+03  0.59361090177E+01  0.98667293273E+03  0.00000000000E+00 0.  1.
<mgrwt>
<rscale>  0 0.29505091E+04</rscale>
<asrwt>0</asrwt>
<pdfrwt beam="1">  1        2 0.58734283E+00 0.29505091E+04</pdfrwt>
<pdfrwt beam="2">  1       -2 0.87703220E-01 0.29505091E+04</pdfrwt>
<totfact> 0.45872280E-01</totfact>
</mgrwt>
</event>
<event>
 6    1  0.1603085E-006  0.1042008E+04  0.7818608E-02  0.9263634E-01
         -2   -1    0    0    0  501 -0.00000000000E+00  0.00000000000E+00  0.14897488537E+04  0.14897488537E+04  0.00000000000E+00 0.  1.
          2   -1    0    0  501    0  0.00000000000E+00 -0.00000000000E+00 -0.18220884322E+03  0.18220884322E+03  0.00000000000E+00 0. -1.
         23    2    1    2    0    0  0.44576645142E+03 -0.15753988021E+03  0.99696299428E+03  0.11062858609E+04  0.80041558082E+02 0.  0.
         13    1    3    3    0    0  0.37846796265E+03 -0.12313582149E+03  0.89372144519E+03  0.97833452912E+03  0.00000000000E+00 0.  1.
        -13    1    3    3    0    0  0.67298488769E+02 -0.34404058723E+02  0.10324154909E+03  0.12795133178E+03  0.00000000000E+00 0. -1.
         22    1    1    2    0    0 -0.44576645142E+03  0.15753988021E+03  0.31057701624E+03  0.56567183604E+03  0.00000000000E+00 0. -1.
<mgrwt>
<rscale>  0 0.10420085E+04</rscale>
<asrwt>0</asrwt>
<pdfrwt beam="1">  1        2 0.28032131E-01 0.10420085E+04</pdfrwt>
<pdfrwt beam="2">  1       -2 0.22919212E+00 0.10420085E+04</pdfrwt>
<totfact> 0.16628636E+01</totfact>
</mgrwt>
</event>
<event>
 6    1  0.1603085E-006  0.1662983E+04  0.7818608E-02  0.8782763E-01
         -2   -1    0    0    0  501 -0.00000000000E+00  0.00000000000E+00  0.84388653775E+03  0.84388653775E+03  0.00000000000E+00 0.  1.
          2   -1    0    0  501    0  0.00000000000E+00 -0.00000000000E+00 -0.81927838819E+03  0.81927838819E+03  0.00000000000E+00 0. -1.
         23    2    1    2    0    0  0.58765185712E+03  0.33204497359E+03 -0.46900779206E+03  0.82695605999E+03  0.91101297950E+02 0.  0.
         11    1    3    3    0    0  0.11557046057E+03  0.94808804176E+02 -0.13832485129E+03  0.20366395162E+03  0.00000000000E+00 0. -1.
        -11    1    3    3    0    0  0.47208139655E+03  0.23723616941E+03 -0.33068294077E+03  0.62329210837E+03  0.00000000000E+00 0.  1.
         22    1    1    2    0    0 -0.58765185712E+03 -0.33204497359E+03  0.49361594161E+03  0.83620886594E+03  0.00000000000E+00 0.  1.
<mgrwt>
<rscale>  0 0.16629829E+04</rscale>
<asrwt>0</asrwt>
<pdfrwt beam="1">  1        2 0.12604283E+00 0.16629829E+04</pdfrwt>
<pdfrwt beam="2">  1       -2 0.12982870E+00 0.16629829E+04</pdfrwt>
<totfact> 0.13872010E+01</totfact>
</mgrwt>
</event>
<event>
 6    1  0.1603085E-006  0.2559937E+04  0.7818608E-02  0.8381939E-01
          4   -1    0    0  501    0  0.00000000000E+00  0.00000000000E+00  0.16714546326E+04  0.16714546326E+04  0.00000000000E+00 0. -1.
         -4   -1    0    0    0  501 -0.00000000000E+00 -0.00000000000E+00 -0.98017559164E+03  0.98017559164E+03  0.00000000000E+00 0.  1.
         23    2    1    2    0    0  0.11737010607E+04  0.31567723732E+03  0.75682985234E+03  0.14344518450E+04  0.87374894726E+02 0.  0.
         13    1    3    3    0    0  0.52201244358E+03  0.18543645914E+03  0.34271598647E+03  0.65141224967E+03  0.00000000000E+00 0.  1.
        -13    1    3    3    0    0  0.65168861708E+03  0.13024077818E+03  0.41411386587E+03  0.78303959532E+03  0.00000000000E+00 0. -1.
         22    1    1    2    0    0 -0.11737010607E+04 -0.31567723732E+03 -0.65550811434E+02  0.12171783792E+04  0.00000000000E+00 0.  1.
<mgrwt>
<rscale>  0 0.25599367E+04</rscale>
<asrwt>0</asrwt>
<pdfrwt beam="1">  1        4 0.25714687E+00 0.25599367E+04</pdfrwt>
<pdfrwt beam="2">  1       -4 0.15079624E+00 0.25599367E+04</pdfrwt>
<totfact> 0.29625352E-02</totfact>
</mgrwt>
</event>
<event>
 6    1  0.1603085E-006  0.2006335E+04  0.7818608E-02  0.8603665E-01
          2   -1    0    0  501    0  0.00000000000E+00  0.00000000000E+00  0.17912650373E+04  0.17912650373E+04  0.00000000000E+00 0. -1.
         -2   -1    0    0    0  501 -0.00000000000E+00 -0.00000000000E+00 -0.56180694532E+03  0.56180694532E+03  0.00000000000E+00 0.  1.
         23    2    1    2    0    0 -0.10275275881E+03 -0.90766014053E+03  0.13550622974E+03  0.92789278791E+03  0.90653336464E+02 0.  0.
         13    1    3    3    0    0 -0.11554426407E+03 -0.72614140476E+03  0.12301015255E+03  0.74549534828E+03  0.00000000000E+00 0. -1.
        -13    1    3    3    0    0  0.12791505256E+02 -0.18151873576E+03  0.12496077190E+02  0.18239743963E+03  0.00000000000E+00 0.  1.
         22    1    1    2    0    0  0.10275275881E+03  0.90766014053E+03  0.10939518623E+04  0.14251791947E+04  0.00000000000E+00 0. -1.
<mgrwt>
<rscale>  0 0.20063351E+04</rscale>
<asrwt>0</asrwt>
<pdfrwt beam="1">  1        2 0.27557923E+00 0.20063351E+04</pdfrwt>
<pdfrwt beam="2">  1       -2 0.86431839E-01 0.20063351E+04</pdfrwt>
<totfact> 0.93969301E+00</totfact>
</mgrwt>
</event>
<event>
 6    1  0.1603085E-006  0.2389374E+04  0.7818608E-02  0.8443492E-01
          1   -1    0    0  501    0  0.00000000000E+00  0.00000000000E+00  0.10037474068E+04  0.10037474068E+04  0.00000000000E+00 0. -1.
         -1   -1    0    0    0  501 -0.00000000000E+00 -0.00000000000E+00 -0.14219486998E+04  0.14219486998E+04  0.00000000000E+00 0.  1.
         23    2    1    2    0    0  0.90378711982E+03 -0.33044317529E+02 -0.99913927925E+03  0.13507951676E+04  0.91897772344E+02 0.  0.
         13    1    3    3    0    0  0.74032231785E+03  0.25880257121E+01 -0.78471263578E+03  0.10788223917E+04  0.00000000000E+00 0. -1.
        -13    1    3    3    0    0  0.16346480197E+03 -0.35632343241E+02 -0.21442664346E+03  0.27197277583E+03  0.00000000000E+00 0.  1.
         22    1    1    2    0    0 -0.90378711982E+03  0.33044317529E+02  0.58093798629E+03  0.10749009391E+04  0.00000000000E+00 0. -1.
<mgrwt>
<rscale>  0 0.23893742E+04</rscale>
<asrwt>0</asrwt>
<pdfrwt beam="1">  1        1 0.15442268E+00 0.23893742E+04</pdfrwt>
<pdfrwt beam="2">  1       -1 0.21876134E+00 0.23893742E+04</pdfrwt>
<totfact> 0.15121235E+00</totfact>
</mgrwt>
</event>
<event>
 6    1  0.1603085E-006  0.1600616E+04  0.7818608E-02  0.8820170E-01
          1   -1    0    0  501    0  0.00000000000E+00  0.00000000000E+00  0.13609046194E+04  0.13609046194E+04  0.00000000000E+00 0. -1.
         -1   -1    0    0    0  501 -0.00000000000E+00 -0.00000000000E+00 -0.47063731779E+03  0.47063731779E+03  0.00000000000E+00 0.  1.
         23    2    1    2    0    0 -0.63983427297E+03 -0.39902998203E+03  0.74447186597E+03  0.10635125546E+04  0.90596750038E+02 0.  0.
         11    1    3    3    0    0 -0.33735240300E+03 -0.17844166679E+03  0.32496433573E+03  0.50124833342E+03  0.00000000000E+00 0. -1.
        -11    1    3    3    0    0 -0.30248186998E+03 -0.22058831524E+03  0.41950753024E+03  0.56226422117E+03  0.00000000000E+00 0.  1.
         22    1    1    2    0    0  0.63983427297E+03  0.39902998203E+03  0.14579543560E+03  0.76802938256E+03  0.00000000000E+00 0.  1.
<mgrwt>
<rscale>  0 0.16006155E+04</rscale>
<asrwt>0</asrwt>
<pdfrwt beam="1">  1        1 0.20936994E+00 0.16006155E+04</pdfrwt>
<pdfrwt beam="2">  1       -1 0.72405742E-01 0.16006155E+04</pdfrwt>
<totfact> 0.15113267E+01</totfact>
</mgrwt>
</event>
<event>
 6    1  0.1603085E-006  0.4820071E+04  0.7818608E-02  0.7856879E-01
          2   -1    0    0  501    0  0.00000000000E+00  0.00000000000E+00  0.25359892068E+04  0.25359892068E+04  0.00000000000E+00 0. -1.
         -2   -1    0    0    0  501 -0.00000000000E+00 -0.00000000000E+00 -0.22903374197E+04  0.22903374197E+04  0.00000000000E+00 0.  1.
         23    2    1    2    0    0  0.89587333188E+03 -0.13457982163E+04 -0.16655055109E+04  0.23230719284E+04  0.94829910049E+02 0.  0.
         13    1    3    3    0    0  0.22685868195E+03 -0.39465636036E+03 -0.42551174099E+03  0.62312016984E+03  0.00000000000E+00 0. -1.
        -13    1    3    3    0    0  0.66901464993E+03 -0.95114185595E+03 -0.12399937699E+04  0.16999517586E+04  0.00000000000E+00 0.  1.
         22    1    1    2    0    0 -0.89587333188E+03  0.13457982163E+04  0.19111572980E+04  0.25032546981E+04  0.00000000000E+00 0.  1.
<mgrwt>
<rscale>  0 0.48200709E+04</rscale>
<asrwt>0</asrwt>
<pdfrwt beam="1">  1        2 0.39015218E+00 0.48200709E+04</pdfrwt>
<pdfrwt beam="2">  1       -2 0.35235961E+00 0.48200709E+04</pdfrwt>
<totfact> 0.36832084E-02</totfact>
</mgrwt>
</event>
<event>
 6    1  0.1603085E-006  0.1733453E+04  0.7818608E-02  0.8742512E-01
         -2   -1    0    0    0  501 -0.00000000000E+00  0.00000000000E+00  0.39442196146E+03  0.39442196146E+03  0.00000000000E+00 0.  1.
          2   -1    0    0  501    0  0.00000000000E+00 -0.00000000000E+00 -0.19045958722E+04  0.19045958722E+04  0.00000000000E+00 0. -1.
         23    2    1    2    0    0 -0.77145366639E+03 -0.18953656394E+02 -0.24077974401E+03  0.81346690857E+03  0.90848917087E+02 0.  0.
         11    1    3    3    0    0  0.16227104745E+00  0.40222347768E+01 -0.47608690116E+01  0.62346273536E+01  0.00000000000E+00 0. -1.
        -11    1    3    3    0    0 -0.77161593744E+03 -0.22975891171E+02 -0.23601887499E+03  0.80723228122E+03  0.00000000000E+00 0.  1.
         22    1    1    2    0    0  0.77145366639E+03  0.18953656394E+02 -0.12693941667E+04  0.14855509250E+04  0.00000000000E+00 0. -1.
<mgrwt>
<rscale>  0 0.17334526E+04</rscale>
<asrwt>0</asrwt>
<pdfrwt beam="1">  1        2 0.29301475E+00 0.17334526E+04</pdfrwt>
<pdfrwt beam="2">  1       -2 0.60680301E-01 0.17334526E+04</pdfrwt>
<totfact> 0.18116563E+01</totfact>
</mgrwt>
</event>
<event>
 6    1  0.1603085E-006  0.3639267E+04  0.7818608E-02  0.8081556E-01
         -1   -1    0    0    0  501 -0.00000000000E+00  0.00000000000E+00  0.11558210222E+04  0.11558210222E+04  0.00000000000E+00 0.  1.
          1   -1    0    0  501    0  0.00000000000E+00 -0.00000000000E+00 -0.28646881377E+04  0.28646881377E+04  0.00000000000E+00 0. -1.
         23    2    1    2    0    0  0.37303575826E+03  0.14085195454E+04 -0.20569867308E+04  0.25224202929E+04  0.91250955971E+02 0.  0.
         13    1    3    3    0    0  0.10604719837E+03  0.44154435876E+03 -0.57166463800E+03  0.73007389172E+03  0.00000000000E+00 0.  1.
        -13    1    3    3    0    0  0.26698855988E+03  0.96697518660E+03 -0.14853220928E+04  0.17923464012E+04  0.00000000000E+00 0. -1.
         22    1    1    2    0    0 -0.37303575826E+03 -0.14085195454E+04  0.34811961527E+03  0.14980888669E+04  0.00000000000E+00 0.  1.
<mgrwt>
<rscale>  0 0.36392674E+04</rscale>
<asrwt>0</asrwt>
<pdfrwt beam="1">  1        1 0.44072125E+00 0.36392674E+04</pdfrwt>
<pdfrwt beam="2">  1       -1 0.17781862E+00 0.36392674E+04</pdfrwt>
<totfact> 0.13028203E-01</totfact>
</mgrwt>
</event>
<event>
 6    1  0.1603085E-006  0.1724119E+04  0.7818608E-02  0.8747727E-01
         -2   -1    0    0    0  501 -0.00000000000E+00  0.00000000000E+00  0.70653154466E+03  0.70653154466E+03  0.00000000000E+00 0.  1.
          2   -1    0    0  501    0  0.00000000000E+00 -0.00000000000E+00 -0.10518240144E+04  0.10518240144E+04  0.00000000000E+00 0. -1.
         23    2    1    2    0    0  0.69393225470E+03  0.49454065803E+02  0.34177428277E+03  0.78057828322E+03  0.92223191962E+02 0.  0.
         13    1    3    3    0    0  0.27874437180E+03 -0.11181372591E+01  0.18169190906E+03  0.33273356437E+03  0.00000000000E+00 0. -1.
        -13    1    3    3    0    0  0.41518788291E+03  0.50572203062E+02  0.16008237371E+03  0.44784471886E+03  0.00000000000E+00 0.  1.
         22    1    1    2    0    0 -0.69393225470E+03 -0.49454065803E+02 -0.68706675248E+03  0.97777727581E+03  0.00000000000E+00 0. -1.
<mgrwt>
<rscale>  0 0.17241193E+04</rscale>
<asrwt>0</asrwt>
<pdfrwt beam="1">  1        2 0.16181908E+00 0.17241193E+04</pdfrwt>
<pdfrwt beam="2">  1       -2 0.10869716E+00 0.17241193E+04</pdfrwt>
<totfact> 0.14997067E+01</totfact>
</mgrwt>
</event>
<event>
 6    1  0.1603085E-006  0.2183510E+04  0.7818608E-02  0.8525323E-01
         -1   -1    0    0    0  501 -0.00000000000E+00  0.00000000000E+00  0.61979871245E+03  0.61979871245E+03  0.00000000000E+00 0.  1.
          1   -1    0    0  501    0  0.00000000000E+00 -0.00000000000E+00 -0.19230901050E+04  0.19230901050E+04  0.00000000000E+00 0. -1.
         23    2    1    2    0    0  0.93758429910E+03 -0.55576504117E+03 -0.65765881658E+03  0.12760894955E+04  0.89163796677E+02 0.  0.
         11    1    3    3    0    0  0.48270099293E+03 -0.33693395986E+03 -0.34459673123E+03  0.68210823852E+03  0.00000000000E+00 0. -1.
        -11    1    3    3    0    0  0.45488330617E+03 -0.21883108131E+03 -0.31306208535E+03  0.59398125700E+03  0.00000000000E+00 0.  1.
         22    1    1    2    0    0 -0.93758429910E+03  0.55576504117E+03 -0.64563257599E+03  0.12667993219E+04  0.00000000000E+00 0. -1.
<mgrwt>
<rscale>  0 0.21835098E+04</rscale>
<asrwt>0</asrwt>
<pdfrwt beam="1">  1        1 0.29586002E+00 0.21835098E+04</pdfrwt>
<pdfrwt beam="2">  1       -1 0.95353648E-01 0.21835098E+04</pdfrwt>
<totfact> 0.32575829E+00</totfact>
</mgrwt>
</event>
<event>
 6    1  0.1603085E-006  0.1962489E+04  0.7818608E-02  0.8624362E-01
         -1   -1    0    0    0  501 -0.00000000000E+00  0.00000000000E+00  0.55351278041E+03  0.55351278041E+03  0.00000000000E+00 0.  1.
          1   -1    0    0  501    0  0.00000000000E+00 -0.00000000000E+00 -0.17395095248E+04  0.17395095248E+04  0.00000000000E+00 0. -1.
         23    2    1    2    0    0 -0.89698705083E+03 -0.20102312482E+03 -0.20034602439E+03  0.94524509515E+03  0.91398546717E+02 0.  0.
         13    1    3    3    0    0 -0.48399472718E+03 -0.15153402425E+03 -0.92278655323E+02  0.51548890063E+03  0.00000000000E+00 0.  1.
        -13    1    3    3    0    0 -0.41299232366E+03 -0.49489100564E+02 -0.10806736906E+03  0.42975619452E+03  0.00000000000E+00 0. -1.
         22    1    1    2    0    0  0.89698705083E+03  0.20102312482E+03 -0.98565071998E+03  0.13477772100E+04  0.00000000000E+00 0. -1.
<mgrwt>
<rscale>  0 0.19624890E+04</rscale>
<asrwt>0</asrwt>
<pdfrwt beam="1">  1        1 0.26761685E+00 0.19624890E+04</pdfrwt>
<pdfrwt beam="2">  1       -1 0.85155813E-01 0.19624890E+04</pdfrwt>
<totfact> 0.56838592E+00</totfact>
</mgrwt>
</event>
<event>
 6    1  0.1603085E-006  0.2568266E+04  0.7818608E-02  0.8379061E-01
          1   -1    0    0  501    0  0.00000000000E+00  0.00000000000E+00  0.16397976296E+04  0.16397976296E+04  0.00000000000E+00 0. -1.
         -1   -1    0    0    0  501 -0.00000000000E+00 -0.00000000000E+00 -0.10056104648E+04  0.10056104648E+04  0.00000000000E+00 0.  1.
         23    2    1    2    0    0  0.11982252112E+04 -0.20146764039E+02  0.78751362938E+03  0.14372447968E+04  0.96671302426E+02 0.  0.
         11    1    3    3    0    0  0.69233948161E+03  0.22475323050E+02  0.49421515186E+03  0.85093343704E+03  0.00000000000E+00 0. -1.
        -11    1    3    3    0    0  0.50588572959E+03 -0.42622087089E+02  0.29329847752E+03  0.58631135979E+03  0.00000000000E+00 0.  1.
         22    1    1    2    0    0 -0.11982252112E+04  0.20146764039E+02 -0.15332646456E+03  0.12081632976E+04  0.00000000000E+00 0.  1.
<mgrwt>
<rscale>  0 0.25682661E+04</rscale>
<asrwt>0</asrwt>
<pdfrwt beam="1">  1        1 0.25227656E+00 0.25682661E+04</pdfrwt>
<pdfrwt beam="2">  1       -1 0.15470930E+00 0.25682661E+04</pdfrwt>
<totfact> 0.14844935E+00</totfact>
</mgrwt>
</event>
<event>
 6    1  0.1603085E-006  0.2445163E+04  0.7818608E-02  0.8422786E-01
         -4   -1    0    0    0  501 -0.00000000000E+00  0.00000000000E+00  0.25704711685E+04  0.25704711685E+04  0.00000000000E+00 0.  1.
          4   -1    0    0  501    0  0.00000000000E+00 -0.00000000000E+00 -0.58149064077E+03  0.58149064077E+03  0.00000000000E+00 0. -1.
         23    2    1    2    0    0 -0.52337632712E+03 -0.76311211365E+03  0.20225782719E+04  0.22260073362E+04  0.89570739360E+02 0.  0.
         13    1    3    3    0    0 -0.38949572258E+03 -0.62349828873E+03  0.15563111828E+04  0.17212093225E+04  0.00000000000E+00 0.  1.
        -13    1    3    3    0    0 -0.13388060454E+03 -0.13961382493E+03  0.46626708905E+03  0.50479801377E+03  0.00000000000E+00 0. -1.
         22    1    1    2    0    0  0.52337632712E+03  0.76311211365E+03 -0.33597744096E+02  0.92595447307E+03  0.00000000000E+00 0. -1.
<mgrwt>
<rscale>  0 0.24451625E+04</rscale>
<asrwt>0</asrwt>
<pdfrwt beam="1">  1        4 0.89460100E-01 0.24451625E+04</pdfrwt>
<pdfrwt beam="2">  1       -4 0.39545710E+00 0.24451625E+04</pdfrwt>
<totfact> 0.14082504E-02</totfact>
</mgrwt>
</event>
<event>
 6    1  0.1603085E-006  0.1461021E+04  0.7818608E-02  0.8910795E-01
         -1   -1    0    0    0  501 -0.00000000000E+00  0.00000000000E+00  0.37829114213E+03  0.37829114213E+03  0.00000000000E+00 0.  1.
          1   -1    0    0  501    0  0.00000000000E+00 -0.00000000000E+00 -0.14106751642E+04  0.14106751642E+04  0.00000000000E+00 0. -1.
         23    2    1    2    0    0 -0.43172217066E+03 -0.63481456782E+02  0.19493630247E+03  0.48638075941E+03  0.90289274609E+02 0.  0.
         11    1    3    3    0    0 -0.15552402931E+03 -0.63672014526E+02  0.55493099453E+02  0.17697834108E+03  0.00000000000E+00 0. -1.
        -11    1    3    3    0    0 -0.27619814135E+03  0.19055774427E+00  0.13944320301E+03  0.30940241833E+03  0.00000000000E+00 0.  1.
         22    1    1    2    0    0  0.43172217066E+03  0.63481456782E+02 -0.12273203245E+04  0.13025855469E+04  0.00000000000E+00 0. -1.
<mgrwt>
<rscale>  0 0.14610214E+04</rscale>
<asrwt>0</asrwt>
<pdfrwt beam="1">  1        1 0.21702695E+00 0.14610214E+04</pdfrwt>
<pdfrwt beam="2">  1       -1 0.58198637E-01 0.14610214E+04</pdfrwt>
<totfact> 0.21918201E+01</totfact>
</mgrwt>
</event>
<event>
 6    1  0.1603085E-006  0.1421494E+04  0.7818608E-02  0.8938405E-01
         -2   -1    0    0    0  501 -0.00000000000E+00  0.00000000000E+00  0.16466957153E+03  0.16466957153E+03  0.00000000000E+00 0.  1.
          2   -1    0    0  501    0  0.00000000000E+00 -0.00000000000E+00 -0.30677273599E+04  0.30677273599E+04  0.00000000000E+00 0. -1.
         23    2    1    2    0    0  0.61122855778E+03 -0.22874449026E+03 -0.84019757386E+03  0.10687618753E+04  0.10195877216E+03 0.  0.
         13    1    3    3    0    0  0.17707177148E+03 -0.11694876997E+03 -0.27378197167E+03  0.34639283345E+03  0.00000000000E+00 0. -1.
        -13    1    3    3    0    0  0.43415678629E+03 -0.11179572029E+03 -0.56641560219E+03  0.72236904181E+03  0.00000000000E+00 0.  1.
         22    1    1    2    0    0 -0.61122855778E+03  0.22874449026E+03 -0.20628602145E+04  0.21636350561E+04  0.00000000000E+00 0. -1.
<mgrwt>
<rscale>  0 0.14214941E+04</rscale>
<asrwt>0</asrwt>
<pdfrwt beam="1">  1        2 0.47195806E+00 0.14214941E+04</pdfrwt>
<pdfrwt beam="2">  1       -2 0.25333780E-01 0.14214941E+04</pdfrwt>
<totfact> 0.21681901E+01</totfact>
</mgrwt>
</event>
<event>
 6    1  0.1603085E-006  0.4441285E+04  0.7818608E-02  0.7920997E-01
          2   -1    0    0  501    0  0.00000000000E+00  0.00000000000E+00  0.38546838437E+04  0.38546838437E+04  0.00000000000E+00 0.  1.
         -2   -1    0    0    0  501 -0.00000000000E+00 -0.00000000000E+00 -0.12792883251E+04  0.12792883251E+04  0.00000000000E+00 0. -1.
         23    2    1    2    0    0  0.19622263881E+04 -0.26373542266E+03  0.24482225476E+04  0.31500211271E+04  0.94608071880E+02 0.  0.
         13    1    3    3    0    0  0.29316871774E+03 -0.30819370995E+02  0.41816249087E+03  0.51162251656E+03  0.00000000000E+00 0. -1.
        -13    1    3    3    0    0  0.16690576704E+04 -0.23291605167E+03  0.20300600568E+04  0.26383986106E+04  0.00000000000E+00 0.  1.
         22    1    1    2    0    0 -0.19622263881E+04  0.26373542266E+03  0.12717297095E+03  0.19839510417E+04  0.00000000000E+00 0. -1.
<mgrwt>
<rscale>  0 0.44412845E+04</rscale>
<asrwt>0</asrwt>
<pdfrwt beam="1">  1        2 0.59302828E+00 0.44412845E+04</pdfrwt>
<pdfrwt beam="2">  1       -2 0.19681359E+00 0.44412845E+04</pdfrwt>
<totfact> 0.47226823E-02</totfact>
</mgrwt>
</event>
<event>
 6    1  0.1603085E-006  0.3092427E+04  0.7818608E-02  0.8217819E-01
         -1   -1    0    0    0  501 -0.00000000000E+00  0.00000000000E+00  0.24746516074E+04  0.24746516074E+04  0.00000000000E+00 0.  1.
          1   -1    0    0  501    0  0.00000000000E+00 -0.00000000000E+00 -0.96610626406E+03  0.96610626406E+03  0.00000000000E+00 0. -1.
         23    2    1    2    0    0  0.21347110510E+03  0.14177713179E+04  0.13950990935E+04  0.20025244153E+04  0.90316834592E+02 0.  0.
         11    1    3    3    0    0  0.11369967378E+03  0.46894421653E+03  0.46618617280E+03  0.67094399300E+03  0.00000000000E+00 0.  1.
        -11    1    3    3    0    0  0.99771431316E+02  0.94882710139E+03  0.92891292072E+03  0.13315804223E+04  0.00000000000E+00 0. -1.
         22    1    1    2    0    0 -0.21347110510E+03 -0.14177713179E+04  0.11344624979E+03  0.14382334561E+04  0.00000000000E+00 0. -1.
<mgrwt>
<rscale>  0 0.30924271E+04</rscale>
<asrwt>0</asrwt>
<pdfrwt beam="1">  1        1 0.14863173E+00 0.30924271E+04</pdfrwt>
<pdfrwt beam="2">  1       -1 0.38071563E+00 0.30924271E+04</pdfrwt>
<totfact> 0.13138902E-01</totfact>
</mgrwt>
</event>
<event>
 6    1  0.1603085E-006  0.3584790E+04  0.7818608E-02  0.8093985E-01
          2   -1    0    0  501    0  0.00000000000E+00  0.00000000000E+00  0.33513303237E+04  0.33513303237E+04  0.00000000000E+00 0. -1.
         -2   -1    0    0    0  501 -0.00000000000E+00 -0.00000000000E+00 -0.95862818607E+03  0.95862818607E+03  0.00000000000E+00 0.  1.
         23    2    1    2    0    0 -0.39795809447E+03  0.16270553429E+04  0.43432526652E+03  0.17329603136E+04  0.93985516952E+02 0.  0.
         13    1    3    3    0    0 -0.22838992047E+03  0.11117871010E+04  0.30622233052E+03  0.11755869298E+04  0.00000000000E+00 0. -1.
        -13    1    3    3    0    0 -0.16956817400E+03  0.51526824194E+03  0.12810293600E+03  0.55737338382E+03  0.00000000000E+00 0.  1.
         22    1    1    2    0    0  0.39795809447E+03 -0.16270553429E+04  0.19583768711E+04  0.25769981962E+04  0.00000000000E+00 0. -1.
<mgrwt>
<rscale>  0 0.35847899E+04</rscale>
<asrwt>0</asrwt>
<pdfrwt beam="1">  1        2 0.51558928E+00 0.35847899E+04</pdfrwt>
<pdfrwt beam="2">  1       -2 0.14748126E+00 0.35847899E+04</pdfrwt>
<totfact> 0.26273343E-01</totfact>
</mgrwt>
</event>
<event>
 6    1  0.1603085E-006  0.5441253E+04  0.7818608E-02  0.7763825E-01
          2   -1    0    0  501    0  0.00000000000E+00  0.00000000000E+00  0.26366181357E+04  0.26366181357E+04  0.00000000000E+00 0.  1.
         -2   -1    0    0    0  501 -0.00000000000E+00 -0.00000000000E+00 -0.28073119073E+04  0.28073119073E+04  0.00000000000E+00 0. -1.
         23    2    1    2    0    0 -0.45938431515E+03  0.11485479383E+03 -0.27650217062E+04  0.28067415771E+04  0.90706518942E+02 0.  0.
         11    1    3    3    0    0 -0.28208464769E+03  0.28426031861E+02 -0.17334587862E+04  0.17564905781E+04  0.00000000000E+00 0.  1.
        -11    1    3    3    0    0 -0.17729966746E+03  0.86428761966E+02 -0.10315629200E+04  0.10502509990E+04  0.00000000000E+00 0. -1.
         22    1    1    2    0    0  0.45938431515E+03 -0.11485479383E+03  0.25943279346E+04  0.26371884659E+04  0.00000000000E+00 0.  1.
<mgrwt>
<rscale>  0 0.54412533E+04</rscale>
<asrwt>0</asrwt>
<pdfrwt beam="1">  1        2 0.40563356E+00 0.54412533E+04</pdfrwt>
<pdfrwt beam="2">  1       -2 0.43189414E+00 0.54412533E+04</pdfrwt>
<totfact> 0.93359733E-03</totfact>
</mgrwt>
</event>
<event>
 6    1  0.1603085E-006  0.1812180E+04  0.7818608E-02  0.8699849E-01
         -2   -1    0    0    0  501 -0.00000000000E+00  0.00000000000E+00  0.13815333036E+04  0.13815333036E+04  0.00000000000E+00 0.  1.
          2   -1    0    0  501    0  0.00000000000E+00 -0.00000000000E+00 -0.59426639171E+03  0.59426639171E+03  0.00000000000E+00 0. -1.
         23    2    1    2    0    0 -0.65990117938E+03 -0.61354539389E+03  0.47090447774E+03  0.10208166029E+04  0.91695107795E+02 0.  0.
         11    1    3    3    0    0 -0.47289970747E+03 -0.38456177055E+03  0.30036941672E+03  0.67951723686E+03  0.00000000000E+00 0. -1.
        -11    1    3    3    0    0 -0.18700147191E+03 -0.22898362334E+03  0.17053506101E+03  0.34129936608E+03  0.00000000000E+00 0.  1.
         22    1    1    2    0    0  0.65990117938E+03  0.61354539389E+03  0.31636243412E+03  0.95498309232E+03  0.00000000000E+00 0. -1.
<mgrwt>
<rscale>  0 0.18121797E+04</rscale>
<asrwt>0</asrwt>
<pdfrwt beam="1">  1        2 0.91425599E-01 0.18121797E+04</pdfrwt>
<pdfrwt beam="2">  1       -2 0.21254358E+00 0.18121797E+04</pdfrwt>
<totfact> 0.52147360E+00</totfact>
</mgrwt>
</event>
<event>
 6    1  0.1603085E-006  0.3157647E+04  0.7818608E-02  0.8200093E-01
         -2   -1    0    0    0  501 -0.00000000000E+00  0.00000000000E+00  0.12973421864E+04  0.12973421864E+04  0.00000000000E+00 0.  1.
          2   -1    0    0  501    0  0.00000000000E+00 -0.00000000000E+00 -0.19213777113E+04  0.19213777113E+04  0.00000000000E+00 0. -1.
         23    2    1    2    0    0  0.11322743572E+04 -0.32499928693E+03 -0.13819559780E+04  0.18179653975E+04  0.86753125572E+02 0.  0.
         11    1    3    3    0    0  0.43223533310E+03 -0.16721308183E+03 -0.55555665542E+03  0.72348517282E+03  0.00000000000E+00 0. -1.
        -11    1    3    3    0    0  0.70003902413E+03 -0.15778620510E+03 -0.82639932259E+03  0.10944802247E+04  0.00000000000E+00 0.  1.
         22    1    1    2    0    0 -0.11322743572E+04  0.32499928693E+03  0.75792045309E+03  0.14007545002E+04  0.00000000000E+00 0.  1.
<mgrwt>
<rscale>  0 0.31576475E+04</rscale>
<asrwt>0</asrwt>
<pdfrwt beam="1">  1        2 0.29559657E+00 0.31576475E+04</pdfrwt>
<pdfrwt beam="2">  1       -2 0.19959111E+00 0.31576475E+04</pdfrwt>
<totfact> 0.83561224E-01</totfact>
</mgrwt>
</event>
<event>
 6    1  0.1603085E-006  0.2679862E+04  0.7818608E-02  0.8341569E-01
          2   -1    0    0  501    0  0.00000000000E+00  0.00000000000E+00  0.14221181706E+04  0.14221181706E+04  0.00000000000E+00 0. -1.
         -2   -1    0    0    0  501 -0.00000000000E+00 -0.00000000000E+00 -0.12624937749E+04  0.12624937749E+04  0.00000000000E+00 0.  1.
         23    2    1    2    0    0  0.83304833796E+02  0.43796139685E+03  0.13439414540E+04  0.14191646826E+04  0.95393312152E+02 0.  0.
         11    1    3    3    0    0  0.24080860253E+02  0.11046978247E+03  0.22547691517E+03  0.25223659517E+03  0.00000000000E+00 0. -1.
        -11    1    3    3    0    0  0.59223973542E+02  0.32749161438E+03  0.11184645388E+04  0.11669280874E+04  0.00000000000E+00 0.  1.
         22    1    1    2    0    0 -0.83304833796E+02 -0.43796139685E+03 -0.11843170583E+04  0.12654472629E+04  0.00000000000E+00 0.  1.
<mgrwt>
<rscale>  0 0.26798622E+04</rscale>
<asrwt>0</asrwt>
<pdfrwt beam="1">  1        2 0.21878741E+00 0.26798622E+04</pdfrwt>
<pdfrwt beam="2">  1       -2 0.19422981E+00 0.26798622E+04</pdfrwt>
<totfact> 0.17938037E+00</totfact>
</mgrwt>
</event>
<event>
 6    1  0.1603085E-006  0.4659852E+04  0.7818608E-02  0.7883234E-01
         -2   -1    0    0    0  501 -0.00000000000E+00  0.00000000000E+00  0.22429112335E+04  0.22429112335E+04  0.00000000000E+00 0.  1.
          2   -1    0    0  501    0  0.00000000000E+00 -0.00000000000E+00 -0.24203167980E+04  0.24203167980E+04  0.00000000000E+00 0. -1.
         23    2    1    2    0    0 -0.77493153307E+02  0.11821522766E+04 -0.20955196803E+04  0.24087544888E+04  0.86059646283E+02 0.  0.
         13    1    3    3    0    0 -0.92608344635E+02  0.10350851056E+04 -0.18618186657E+04  0.21322162707E+04  0.00000000000E+00 0. -1.
        -13    1    3    3    0    0  0.15115191327E+02  0.14706717091E+03 -0.23370101467E+03  0.27653821802E+03  0.00000000000E+00 0.  1.
         22    1    1    2    0    0  0.77493153307E+02 -0.11821522766E+04  0.19181141158E+04  0.22544735427E+04  0.00000000000E+00 0.  1.
<mgrwt>
<rscale>  0 0.46598522E+04</rscale>
<asrwt>0</asrwt>
<pdfrwt beam="1">  1        2 0.37235643E+00 0.46598522E+04</pdfrwt>
<pdfrwt beam="2">  1       -2 0.34506327E+00 0.46598522E+04</pdfrwt>
<totfact> 0.48381728E-02</totfact>
</mgrwt>
</event>
<event>
 6    1  0.1603085E-006  0.1360478E+04  0.7818608E-02  0.8982934E-01
          1   -1    0    0  501    0  0.00000000000E+00  0.00000000000E+00  0.59389752455E+03  0.59389752455E+03  0.00000000000E+00 0. -1.
         -1   -1    0    0    0  501 -0.00000000000E+00 -0.00000000000E+00 -0.77913285908E+03  0.77913285908E+03  0.00000000000E+00 0.  1.
         23    2    1    2    0    0  0.97659267549E+02 -0.27141330834E+03 -0.71126883386E+03  0.77310225551E+03  0.92634912301E+02 0.  0.
         11    1    3    3    0    0  0.71608063506E+02 -0.22719399371E+03 -0.65485710879E+03  0.69683761270E+03  0.00000000000E+00 0.  1.
        -11    1    3    3    0    0  0.26051204043E+02 -0.44219314631E+02 -0.56411725070E+02  0.76264642816E+02  0.00000000000E+00 0. -1.
         22    1    1    2    0    0 -0.97659267549E+02  0.27141330834E+03  0.52603349933E+03  0.59992812811E+03  0.00000000000E+00 0. -1.
<mgrwt>
<rscale>  0 0.13604780E+04</rscale>
<asrwt>0</asrwt>
<pdfrwt beam="1">  1        1 0.91368851E-01 0.13604780E+04</pdfrwt>
<pdfrwt beam="2">  1       -1 0.11986659E+00 0.13604780E+04</pdfrwt>
<totfact> 0.21111289E+01</totfact>
</mgrwt>
</event>
<event>
 6    1  0.1603085E-006  0.1438900E+04  0.7818608E-02  0.8926132E-01
         -1   -1    0    0    0  501 -0.00000000000E+00  0.00000000000E+00  0.15013885506E+04  0.15013885506E+04  0.00000000000E+00 0. -1.
          1   -1    0    0  501    0  0.00000000000E+00 -0.00000000000E+00 -0.34475328252E+03  0.34475328252E+03  0.00000000000E+00 0.  1.
         23    2    1    2    0    0 -0.98438686537E+02 -0.72298522900E+02  0.14865362829E+04  0.14943579066E+04  0.91641590241E+02 0.  0.
         13    1    3    3    0    0 -0.59774276076E+02 -0.56031311587E+00  0.92613519282E+03  0.92806232195E+03  0.00000000000E+00 0.  1.
        -13    1    3    3    0    0 -0.38664410461E+02 -0.71738209784E+02  0.56040109011E+03  0.56629558464E+03  0.00000000000E+00 0. -1.
         22    1    1    2    0    0  0.98438686537E+02  0.72298522900E+02 -0.32990101481E+03  0.35178392657E+03  0.00000000000E+00 0.  1.
<mgrwt>
<rscale>  0 0.14389005E+04</rscale>
<asrwt>0</asrwt>
<pdfrwt beam="1">  1        1 0.53038967E-01 0.14389005E+04</pdfrwt>
<pdfrwt beam="2">  1       -1 0.23098285E+00 0.14389005E+04</pdfrwt>
<totfact> 0.66059600E+00</totfact>
</mgrwt>
</event>
<event>
 6    1  0.1603085E-006  0.3514352E+04  0.7818608E-02  0.8110397E-01
          2   -1    0    0  501    0  0.00000000000E+00  0.00000000000E+00  0.21903579764E+04  0.21903579764E+04  0.00000000000E+00 0. -1.
         -2   -1    0    0    0  501 -0.00000000000E+00 -0.00000000000E+00 -0.14096633707E+04  0.14096633707E+04  0.00000000000E+00 0.  1.
         23    2    1    2    0    0 -0.23815853309E+03 -0.12590957671E+04  0.16203313642E+04  0.20680188915E+04  0.95847630489E+02 0.  0.
         13    1    3    3    0    0 -0.18828943324E+03 -0.10230704511E+04  0.13723851777E+04  0.17220822090E+04  0.00000000000E+00 0.  1.
        -13    1    3    3    0    0 -0.49869099854E+02 -0.23602531602E+03  0.24794618650E+03  0.34593668254E+03  0.00000000000E+00 0. -1.
         22    1    1    2    0    0  0.23815853309E+03  0.12590957671E+04 -0.83963675855E+03  0.15320024556E+04  0.00000000000E+00 0.  1.
<mgrwt>
<rscale>  0 0.35143520E+04</rscale>
<asrwt>0</asrwt>
<pdfrwt beam="1">  1        2 0.33697815E+00 0.35143520E+04</pdfrwt>
<pdfrwt beam="2">  1       -2 0.21687129E+00 0.35143520E+04</pdfrwt>
<totfact> 0.44403938E-01</totfact>
</mgrwt>
</event>
<event>
 6    1  0.1603085E-006  0.2023131E+04  0.7818608E-02  0.8595882E-01
          2   -1    0    0  501    0  0.00000000000E+00  0.00000000000E+00  0.24314289649E+04  0.24314289649E+04  0.00000000000E+00 0. -1.
         -2   -1    0    0    0  501 -0.00000000000E+00 -0.00000000000E+00 -0.42084927751E+03  0.42084927751E+03  0.00000000000E+00 0.  1.
         23    2    1    2    0    0  0.44748525960E+03 -0.59168421653E+03  0.41905891545E+02  0.74846984237E+03  0.90098454749E+02 0.  0.
         11    1    3    3    0    0  0.41077400578E+03 -0.51337752046E+03  0.59629571000E+02  0.66018743405E+03  0.00000000000E+00 0. -1.
        -11    1    3    3    0    0  0.36711253821E+02 -0.78306696068E+02 -0.17723679456E+02  0.88282408324E+02  0.00000000000E+00 0.  1.
         22    1    1    2    0    0 -0.44748525960E+03  0.59168421653E+03  0.19686737959E+04  0.21038084001E+04  0.00000000000E+00 0. -1.
<mgrwt>
<rscale>  0 0.20231314E+04</rscale>
<asrwt>0</asrwt>
<pdfrwt beam="1">  1        2 0.37406598E+00 0.20231314E+04</pdfrwt>
<pdfrwt beam="2">  1       -2 0.64746044E-01 0.20231314E+04</pdfrwt>
<totfact> 0.77885691E+00</totfact>
</mgrwt>
</event>
<event>
 6    1  0.1603085E-006  0.1883590E+04  0.7818608E-02  0.8663068E-01
          2   -1    0    0  501    0  0.00000000000E+00  0.00000000000E+00  0.13811670016E+04  0.13811670016E+04  0.00000000000E+00 0. -1.
         -2   -1    0    0    0  501 -0.00000000000E+00 -0.00000000000E+00 -0.64219416725E+03  0.64219416725E+03  0.00000000000E+00 0.  1.
         23    2    1    2    0    0  0.48269992095E+03 -0.77157491469E+03  0.11983217304E+03  0.92260587306E+03  0.92275590726E+02 0.  0.
         11    1    3    3    0    0  0.29348458369E+03 -0.42469736754E+03  0.10734710075E+03  0.52728024322E+03  0.00000000000E+00 0.  1.
        -11    1    3    3    0    0  0.18921533726E+03 -0.34687754716E+03  0.12485072289E+02  0.39532562984E+03  0.00000000000E+00 0. -1.
         22    1    1    2    0    0 -0.48269992095E+03  0.77157491469E+03  0.61914066128E+03  0.11007552957E+04  0.00000000000E+00 0. -1.
<mgrwt>
<rscale>  0 0.18835895E+04</rscale>
<asrwt>0</asrwt>
<pdfrwt beam="1">  1        2 0.21248723E+00 0.18835895E+04</pdfrwt>
<pdfrwt beam="2">  1       -2 0.98799103E-01 0.18835895E+04</pdfrwt>
<totfact> 0.11826603E+01</totfact>
</mgrwt>
</event>
<event>
 6    1  0.1603085E-006  0.1134684E+04  0.7818608E-02  0.9172031E-01
          2   -1    0    0  501    0  0.00000000000E+00  0.00000000000E+00  0.11522953820E+04  0.11522953820E+04  0.00000000000E+00 0. -1.
         -2   -1    0    0    0  501 -0.00000000000E+00 -0.00000000000E+00 -0.27933523069E+03  0.27933523069E+03  0.00000000000E+00 0.  1.
         23    2    1    2    0    0  0.30203840213E+03 -0.25587763846E+03  0.94544891312E+03  0.10291940552E+04  0.93092393808E+02 0.  0.
         11    1    3    3    0    0  0.79875269476E+02 -0.11893269924E+03  0.28317259705E+03  0.31735117038E+03  0.00000000000E+00 0. -1.
        -11    1    3    3    0    0  0.22216313265E+03 -0.13694493922E+03  0.66227631607E+03  0.71184288485E+03  0.00000000000E+00 0.  1.
         22    1    1    2    0    0 -0.30203840213E+03  0.25587763846E+03 -0.72488761775E+02  0.40243655750E+03  0.00000000000E+00 0.  1.
<mgrwt>
<rscale>  0 0.11346836E+04</rscale>
<asrwt>0</asrwt>
<pdfrwt beam="1">  1        2 0.17727621E+00 0.11346836E+04</pdfrwt>
<pdfrwt beam="2">  1       -2 0.42974652E-01 0.11346836E+04</pdfrwt>
<totfact> 0.10287510E+02</totfact>
</mgrwt>
</event>
<event>
 6    1  0.1603085E-006  0.2727867E+04  0.7818608E-02  0.8326019E-01
          1   -1    0    0  501    0  0.00000000000E+00  0.00000000000E+00  0.16793121511E+04  0.16793121511E+04  0.00000000000E+00 0. -1.
         -1   -1    0    0    0  501 -0.00000000000E+00 -0.00000000000E+00 -0.11077834949E+04  0.11077834949E+04  0.00000000000E+00 0.  1.
         23    2    1    2    0    0  0.35272972010E+03 -0.13144098379E+04  0.22155572433E+03  0.13819008088E+04  0.92040367027E+02 0.  0.
         11    1    3    3    0    0  0.18384618378E+03 -0.85399305191E+03  0.14774894346E+03  0.88596461684E+03  0.00000000000E+00 0. -1.
        -11    1    3    3    0    0  0.16888353632E+03 -0.46041678596E+03  0.73806780870E+02  0.49593619200E+03  0.00000000000E+00 0.  1.
         22    1    1    2    0    0 -0.35272972010E+03  0.13144098379E+04  0.34997293187E+03  0.14051948372E+04  0.00000000000E+00 0. -1.
<mgrwt>
<rscale>  0 0.27278668E+04</rscale>
<asrwt>0</asrwt>
<pdfrwt beam="1">  1        1 0.25835571E+00 0.27278668E+04</pdfrwt>
<pdfrwt beam="2">  1       -1 0.17042823E+00 0.27278668E+04</pdfrwt>
<totfact> 0.10477446E+00</totfact>
</mgrwt>
</event>
<event>
 6    1  0.1603085E-006  0.3068261E+04  0.7818608E-02  0.8224503E-01
         -1   -1    0    0    0  501 -0.00000000000E+00  0.00000000000E+00  0.11747494290E+04  0.11747494290E+04  0.00000000000E+00 0.  1.
          1   -1    0    0  501    0  0.00000000000E+00 -0.00000000000E+00 -0.20034536297E+04  0.20034536297E+04  0.00000000000E+00 0. -1.
         23    2    1    2    0    0 -0.92479454540E+03 -0.93200675684E+03  0.40445394915E+03  0.13769366797E+04  0.92141612938E+02 0.  0.
         13    1    3    3    0    0 -0.51611032699E+03 -0.57432673815E+03  0.21174663787E+03  0.80066079611E+03  0.00000000000E+00 0. -1.
        -13    1    3    3    0    0 -0.40868421841E+03 -0.35768001868E+03  0.19270731128E+03  0.57627588356E+03  0.00000000000E+00 0.  1.
         22    1    1    2    0    0  0.92479454540E+03  0.93200675684E+03 -0.12331581498E+04  0.18012663791E+04  0.00000000000E+00 0. -1.
<mgrwt>
<rscale>  0 0.30682608E+04</rscale>
<asrwt>0</asrwt>
<pdfrwt beam="1">  1        1 0.30822364E+00 0.30682608E+04</pdfrwt>
<pdfrwt beam="2">  1       -1 0.18073068E+00 0.30682608E+04</pdfrwt>
<totfact> 0.51563644E-01</totfact>
</mgrwt>
</event>
<event>
 6    1  0.1603085E-006  0.3267225E+04  0.7818608E-02  0.8171286E-01
          2   -1    0    0  501    0  0.00000000000E+00  0.00000000000E+00  0.31307662528E+04  0.31307662528E+04  0.00000000000E+00 0.  1.
         -2   -1    0    0    0  501 -0.00000000000E+00 -0.00000000000E+00 -0.85240761151E+03  0.85240761151E+03  0.00000000000E+00 0. -1.
         23    2    1    2    0    0 -0.14286714310E+04 -0.26425427239E+03  0.20471539954E+04  0.25119879595E+04  0.91168249977E+02 0.  0.
         13    1    3    3    0    0 -0.23235804891E+03 -0.77469725831E+02  0.33919756850E+03  0.41838596031E+03  0.00000000000E+00 0.  1.
        -13    1    3    3    0    0 -0.11963133821E+04 -0.18678454656E+03  0.17079564269E+04  0.20936019992E+04  0.00000000000E+00 0. -1.
         22    1    1    2    0    0  0.14286714310E+04  0.26425427239E+03  0.23120464595E+03  0.14711859048E+04  0.00000000000E+00 0. -1.
<mgrwt>
<rscale>  0 0.32672245E+04</rscale>
<asrwt>0</asrwt>
<pdfrwt beam="1">  1        2 0.48165634E+00 0.32672245E+04</pdfrwt>
<pdfrwt beam="2">  1       -2 0.13113963E+00 0.32672245E+04</pdfrwt>
<totfact> 0.51107735E-01</totfact>
</mgrwt>
</event>
<event>
 6    1  0.1603085E-006  0.1034524E+04  0.7818608E-02  0.9271469E-01
         -2   -1    0    0    0  501 -0.00000000000E+00  0.00000000000E+00  0.27093624375E+03  0.27093624375E+03  0.00000000000E+00 0.  1.
          2   -1    0    0  501    0  0.00000000000E+00 -0.00000000000E+00 -0.98753914876E+03  0.98753914876E+03  0.00000000000E+00 0. -1.
         23    2    1    2    0    0  0.48835912726E+03 -0.82782322141E+02 -0.20088310354E+03  0.54341283325E+03  0.97958848560E+02 0.  0.
         11    1    3    3    0    0  0.26977720848E+03 -0.56651160282E+02 -0.60191405827E+02  0.28215616512E+03  0.00000000000E+00 0.  1.
        -11    1    3    3    0    0  0.21858191878E+03 -0.26131161859E+02 -0.14069169771E+03  0.26125666813E+03  0.00000000000E+00 0. -1.
         22    1    1    2    0    0 -0.48835912726E+03  0.82782322141E+02 -0.51571980147E+03  0.71506255927E+03  0.00000000000E+00 0.  1.
<mgrwt>
<rscale>  0 0.10345243E+04</rscale>
<asrwt>0</asrwt>
<pdfrwt beam="1">  1        2 0.15192910E+00 0.10345243E+04</pdfrwt>
<pdfrwt beam="2">  1       -2 0.41682500E-01 0.10345243E+04</pdfrwt>
<totfact> 0.13935675E+02</totfact>
</mgrwt>
</event>
<event>
 6    1  0.1603085E-006  0.3978125E+04  0.7818608E-02  0.8008974E-01
          2   -1    0    0  501    0  0.00000000000E+00  0.00000000000E+00  0.20406331777E+04  0.20406331777E+04  0.00000000000E+00 0. -1.
         -2   -1    0    0    0  501 -0.00000000000E+00 -0.00000000000E+00 -0.19387949658E+04  0.19387949658E+04  0.00000000000E+00 0.  1.
         23    2    1    2    0    0 -0.69708271123E+03 -0.11450500625E+04 -0.14176118384E+04  0.19531526422E+04  0.90099763242E+02 0.  0.
         13    1    3    3    0    0 -0.20684235696E+03 -0.28087003876E+03 -0.33269520707E+03  0.48203510257E+03  0.00000000000E+00 0. -1.
        -13    1    3    3    0    0 -0.49024035427E+03 -0.86418002376E+03 -0.10849166313E+04  0.14711175396E+04  0.00000000000E+00 0.  1.
         22    1    1    2    0    0  0.69708271123E+03  0.11450500625E+04  0.15194500503E+04  0.20262755013E+04  0.00000000000E+00 0. -1.
<mgrwt>
<rscale>  0 0.39781249E+04</rscale>
<asrwt>0</asrwt>
<pdfrwt beam="1">  1        2 0.31394357E+00 0.39781249E+04</pdfrwt>
<pdfrwt beam="2">  1       -2 0.29827615E+00 0.39781249E+04</pdfrwt>
<totfact> 0.16321730E-01</totfact>
</mgrwt>
</event>
<event>
 6    1  0.1636166E-006  0.4178514E+04  0.7818608E-02  0.7969472E-01
         -1   -1    0    0    0  501 -0.00000000000E+00  0.00000000000E+00  0.13686111926E+04  0.13686111926E+04  0.00000000000E+00 0.  1.
          1   -1    0    0  501    0  0.00000000000E+00 -0.00000000000E+00 -0.31893601823E+04  0.31893601823E+04  0.00000000000E+00 0. -1.
         23    2    1    2    0    0 -0.12066875981E+04 -0.13187746036E+04  0.26697890788E+03  0.18095410613E+04  0.88880260289E+02 0.  0.
         13    1    3    3    0    0 -0.65102345845E+03 -0.71573436006E+03  0.18916385405E+03  0.98584490733E+03  0.00000000000E+00 0. -1.
        -13    1    3    3    0    0 -0.55566413969E+03 -0.60304024357E+03  0.77815053831E+02  0.82369615400E+03  0.00000000000E+00 0.  1.
         22    1    1    2    0    0  0.12066875981E+04  0.13187746036E+04 -0.20877278976E+04  0.27484303136E+04  0.00000000000E+00 0. -1.
<mgrwt>
<rscale>  0 0.41785136E+04</rscale>
<asrwt>0</asrwt>
<pdfrwt beam="1">  1        1 0.49067079E+00 0.41785136E+04</pdfrwt>
<pdfrwt beam="2">  1       -1 0.21055557E+00 0.41785136E+04</pdfrwt>
<totfact> 0.42530188E-02</totfact>
</mgrwt>
</event>
<event>
 6    1  0.1603085E-006  0.2673465E+04  0.7818608E-02  0.8343666E-01
          1   -1    0    0  501    0  0.00000000000E+00  0.00000000000E+00  0.21614425210E+04  0.21614425210E+04  0.00000000000E+00 0. -1.
         -1   -1    0    0    0  501 -0.00000000000E+00 -0.00000000000E+00 -0.82669517618E+03  0.82669517618E+03  0.00000000000E+00 0.  1.
         23    2    1    2    0    0 -0.62274275390E+03 -0.89343783245E+03 -0.19523097941E+03  0.11101405272E+04  0.90868898592E+02 0.  0.
         13    1    3    3    0    0 -0.26318783733E+03 -0.34843514343E+03 -0.12030670687E+03  0.45293331806E+03  0.00000000000E+00 0.  1.
        -13    1    3    3    0    0 -0.35955491657E+03 -0.54500268902E+03 -0.74924272542E+02  0.65720720909E+03  0.00000000000E+00 0. -1.
         22    1    1    2    0    0  0.62274275390E+03  0.89343783245E+03  0.15299783242E+04  0.18779971700E+04  0.00000000000E+00 0. -1.
<mgrwt>
<rscale>  0 0.26734652E+04</rscale>
<asrwt>0</asrwt>
<pdfrwt beam="1">  1        1 0.33252962E+00 0.26734652E+04</pdfrwt>
<pdfrwt beam="2">  1       -1 0.12718387E+00 0.26734652E+04</pdfrwt>
<totfact> 0.10852255E+00</totfact>
</mgrwt>
</event>
<event>
 6    1  0.1603085E-006  0.1842342E+04  0.7818608E-02  0.8684101E-01
          2   -1    0    0  501    0  0.00000000000E+00  0.00000000000E+00  0.85933991946E+03  0.85933991946E+03  0.00000000000E+00 0. -1.
         -2   -1    0    0    0  501 -0.00000000000E+00 -0.00000000000E+00 -0.98745109128E+03  0.98745109128E+03  0.00000000000E+00 0.  1.
         23    2    1    2    0    0 -0.88226449198E+03  0.14366956268E+02 -0.32144373640E+03  0.94347792893E+03  0.90705476542E+02 0.  0.
         11    1    3    3    0    0 -0.49459804747E+03 -0.19366851629E+02 -0.21782760928E+03  0.54078754689E+03  0.00000000000E+00 0. -1.
        -11    1    3    3    0    0 -0.38766644451E+03  0.33733807897E+02 -0.10361612712E+03  0.40269038205E+03  0.00000000000E+00 0.  1.
         22    1    1    2    0    0  0.88226449198E+03 -0.14366956268E+02  0.19333256457E+03  0.90331308181E+03  0.00000000000E+00 0.  1.
<mgrwt>
<rscale>  0 0.18423421E+04</rscale>
<asrwt>0</asrwt>
<pdfrwt beam="1">  1        2 0.13220614E+00 0.18423421E+04</pdfrwt>
<pdfrwt beam="2">  1       -2 0.15191555E+00 0.18423421E+04</pdfrwt>
<totfact> 0.85191519E+00</totfact>
</mgrwt>
</event>
<event>
 6    1  0.1603085E-006  0.1251883E+04  0.7818608E-02  0.9068617E-01
         -2   -1    0    0    0  501 -0.00000000000E+00  0.00000000000E+00  0.28879022030E+03  0.28879022030E+03  0.00000000000E+00 0.  1.
          2   -1    0    0  501    0  0.00000000000E+00 -0.00000000000E+00 -0.13567042851E+04  0.13567042851E+04  0.00000000000E+00 0. -1.
         23    2    1    2    0    0  0.42674467163E+03 -0.98640607375E+02 -0.11184478238E+04  0.12045924244E+04  0.90974667880E+02 0.  0.
         13    1    3    3    0    0  0.68626397681E+02 -0.21967285877E+02 -0.28974465543E+03  0.29857010811E+03  0.00000000000E+00 0.  1.
        -13    1    3    3    0    0  0.35811827395E+03 -0.76673321498E+02 -0.82870316838E+03  0.90602231631E+03  0.00000000000E+00 0. -1.
         22    1    1    2    0    0 -0.42674467163E+03  0.98640607375E+02  0.50533759041E+02  0.44090208095E+03  0.00000000000E+00 0.  1.
<mgrwt>
<rscale>  0 0.12518833E+04</rscale>
<asrwt>0</asrwt>
<pdfrwt beam="1">  1        2 0.20872374E+00 0.12518833E+04</pdfrwt>
<pdfrwt beam="2">  1       -2 0.44429265E-01 0.12518833E+04</pdfrwt>
<totfact> 0.72367843E+01</totfact>
</mgrwt>
</event>
<event>
 6    1  0.1603085E-006  0.2234398E+04  0.7818608E-02  0.8504246E-01
         -2   -1    0    0    0  501 -0.00000000000E+00  0.00000000000E+00  0.54327176327E+03  0.54327176327E+03  0.00000000000E+00 0.  1.
          2   -1    0    0  501    0  0.00000000000E+00 -0.00000000000E+00 -0.22974390801E+04  0.22974390801E+04  0.00000000000E+00 0. -1.
         23    2    1    2    0    0 -0.95592439435E+03 -0.28307780377E+03 -0.24211020366E+03  0.10295672256E+04  0.86410824671E+02 0.  0.
         13    1    3    3    0    0 -0.50203924439E+03 -0.17228676382E+03 -0.90973199632E+02  0.53851857438E+03  0.00000000000E+00 0.  1.
        -13    1    3    3    0    0 -0.45388514996E+03 -0.11079103995E+03 -0.15113700402E+03  0.49104865123E+03  0.00000000000E+00 0. -1.
         22    1    1    2    0    0  0.95592439435E+03  0.28307780377E+03 -0.15120571132E+04  0.18111436178E+04  0.00000000000E+00 0.  1.
<mgrwt>
<rscale>  0 0.22343982E+04</rscale>
<asrwt>0</asrwt>
<pdfrwt beam="1">  1        2 0.35345216E+00 0.22343982E+04</pdfrwt>
<pdfrwt beam="2">  1       -2 0.83580273E-01 0.22343982E+04</pdfrwt>
<totfact> 0.51902983E+00</totfact>
</mgrwt>
</event>
<event>
 6    1  0.1603085E-006  0.8965283E+03  0.7818608E-02  0.9429932E-01
          1   -1    0    0  501    0  0.00000000000E+00  0.00000000000E+00  0.46095613620E+03  0.46095613620E+03  0.00000000000E+00 0. -1.
         -1   -1    0    0    0  501 -0.00000000000E+00 -0.00000000000E+00 -0.43592165873E+03  0.43592165873E+03  0.00000000000E+00 0.  1.
         23    2    1    2    0    0 -0.20240770357E+03  0.37219117120E+03 -0.11847715579E+03  0.44956276582E+03  0.92599663011E+02 0.  0.
         13    1    3    3    0    0 -0.60132480121E+02  0.15748243234E+03 -0.64788806754E+01  0.16869679177E+03  0.00000000000E+00 0. -1.
        -13    1    3    3    0    0 -0.14227522345E+03  0.21470873886E+03 -0.11199827511E+03  0.28086597405E+03  0.00000000000E+00 0.  1.
         22    1    1    2    0    0  0.20240770357E+03 -0.37219117120E+03  0.14351163325E+03  0.44731502910E+03  0.00000000000E+00 0. -1.
<mgrwt>
<rscale>  0 0.89652833E+03</rscale>
<asrwt>0</asrwt>
<pdfrwt beam="1">  1        1 0.70916329E-01 0.89652833E+03</pdfrwt>
<pdfrwt beam="2">  1       -1 0.67064871E-01 0.89652833E+03</pdfrwt>
<totfact> 0.11255903E+02</totfact>
</mgrwt>
</event>
<event>
 6    1  0.1603085E-006  0.2669712E+04  0.7818608E-02  0.8344900E-01
         -1   -1    0    0    0  501 -0.00000000000E+00  0.00000000000E+00  0.10154168620E+04  0.10154168620E+04  0.00000000000E+00 0.  1.
          1   -1    0    0  501    0  0.00000000000E+00 -0.00000000000E+00 -0.17547871300E+04  0.17547871300E+04  0.00000000000E+00 0. -1.
         23    2    1    2    0    0 -0.21379602540E+02  0.43043720095E+03  0.93906234843E+03  0.10373250812E+04  0.92043242091E+02 0.  0.
         11    1    3    3    0    0  0.35443852320E+02  0.20563508678E+03  0.43142451689E+03  0.47923811342E+03  0.00000000000E+00 0.  1.
        -11    1    3    3    0    0 -0.56823454860E+02  0.22480211417E+03  0.50763783155E+03  0.55808696776E+03  0.00000000000E+00 0. -1.
         22    1    1    2    0    0  0.21379602540E+02 -0.43043720095E+03 -0.16784326164E+04  0.17328789107E+04  0.00000000000E+00 0. -1.
<mgrwt>
<rscale>  0 0.26697119E+04</rscale>
<asrwt>0</asrwt>
<pdfrwt beam="1">  1        1 0.26996725E+00 0.26697119E+04</pdfrwt>
<pdfrwt beam="2">  1       -1 0.15621798E+00 0.26697119E+04</pdfrwt>
<totfact> 0.11956662E+00</totfact>
</mgrwt>
</event>
<event>
 6    1  0.1603085E-006  0.2688070E+04  0.7818608E-02  0.8338886E-01
          1   -1    0    0  501    0  0.00000000000E+00  0.00000000000E+00  0.13885678370E+04  0.13885678370E+04  0.00000000000E+00 0. -1.
         -1   -1    0    0    0  501 -0.00000000000E+00 -0.00000000000E+00 -0.13009303725E+04  0.13009303725E+04  0.00000000000E+00 0.  1.
         23    2    1    2    0    0 -0.20978457025E+03 -0.12849893931E+04 -0.28351757278E+03  0.13356284344E+04  0.91180010318E+02 0.  0.
         13    1    3    3    0    0 -0.15423123213E+03 -0.74319561532E+03 -0.13317925881E+03  0.77062553200E+03  0.00000000000E+00 0. -1.
        -13    1    3    3    0    0 -0.55553338116E+02 -0.54179377779E+03 -0.15033831397E+03  0.56500290236E+03  0.00000000000E+00 0.  1.
         22    1    1    2    0    0  0.20978457025E+03  0.12849893931E+04  0.37115503732E+03  0.13538697751E+04  0.00000000000E+00 0. -1.
<mgrwt>
<rscale>  0 0.26880700E+04</rscale>
<asrwt>0</asrwt>
<pdfrwt beam="1">  1        1 0.21362582E+00 0.26880700E+04</pdfrwt>
<pdfrwt beam="2">  1       -1 0.20014313E+00 0.26880700E+04</pdfrwt>
<totfact> 0.10272660E+00</totfact>
</mgrwt>
</event>
<event>
 6    1  0.1603085E-006  0.1159638E+04  0.7818608E-02  0.9148938E-01
          2   -1    0    0  501    0  0.00000000000E+00  0.00000000000E+00  0.87665798207E+03  0.87665798207E+03  0.00000000000E+00 0. -1.
         -2   -1    0    0    0  501 -0.00000000000E+00 -0.00000000000E+00 -0.38349031463E+03  0.38349031463E+03  0.00000000000E+00 0.  1.
         23    2    1    2    0    0  0.16682296520E+03 -0.15109512309E+03  0.82469998824E+03  0.85943229043E+03  0.88510752431E+02 0.  0.
         13    1    3    3    0    0  0.54834518545E+02 -0.58970143600E+02  0.45937150214E+03  0.46637589908E+03  0.00000000000E+00 0. -1.
        -13    1    3    3    0    0  0.11198844666E+03 -0.92124979488E+02  0.36532848610E+03  0.39305639135E+03  0.00000000000E+00 0.  1.
         22    1    1    2    0    0 -0.16682296520E+03  0.15109512309E+03 -0.33153232080E+03  0.40071600627E+03  0.00000000000E+00 0.  1.
<mgrwt>
<rscale>  0 0.11596376E+04</rscale>
<asrwt>0</asrwt>
<pdfrwt beam="1">  1        2 0.13487046E+00 0.11596376E+04</pdfrwt>
<pdfrwt beam="2">  1       -2 0.58998510E-01 0.11596376E+04</pdfrwt>
<totfact> 0.80773739E+01</totfact>
</mgrwt>
</event>
<event>
 6    1  0.1603085E-006  0.3182307E+04  0.7818608E-02  0.8193506E-01
         -1   -1    0    0    0  501 -0.00000000000E+00  0.00000000000E+00  0.87064453661E+03  0.87064453661E+03  0.00000000000E+00 0.  1.
          1   -1    0    0  501    0  0.00000000000E+00 -0.00000000000E+00 -0.29079247221E+04  0.29079247221E+04  0.00000000000E+00 0. -1.
         23    2    1    2    0    0  0.10879382908E+04 -0.84508967295E+03 -0.19619213624E+04  0.23989079843E+04  0.88531377418E+02 0.  0.
         13    1    3    3    0    0  0.94049870471E+03 -0.69234708569E+03 -0.16777658750E+04  0.20442066020E+04  0.00000000000E+00 0. -1.
        -13    1    3    3    0    0  0.14743958605E+03 -0.15274258726E+03 -0.28415548749E+03  0.35470138224E+03  0.00000000000E+00 0.  1.
         22    1    1    2    0    0 -0.10879382908E+04  0.84508967295E+03 -0.75358822996E+02  0.13796612744E+04  0.00000000000E+00 0.  1.
<mgrwt>
<rscale>  0 0.31823066E+04</rscale>
<asrwt>0</asrwt>
<pdfrwt beam="1">  1        1 0.44737304E+00 0.31823066E+04</pdfrwt>
<pdfrwt beam="2">  1       -1 0.13394531E+00 0.31823066E+04</pdfrwt>
<totfact> 0.27438294E-01</totfact>
</mgrwt>
</event>
<event>
 6    1  0.1603085E-006  0.2633514E+04  0.7818608E-02  0.8356906E-01
          2   -1    0    0  501    0  0.00000000000E+00  0.00000000000E+00  0.90615252699E+03  0.90615252699E+03  0.00000000000E+00 0. -1.
         -2   -1    0    0    0  501 -0.00000000000E+00 -0.00000000000E+00 -0.19134186272E+04  0.19134186272E+04  0.00000000000E+00 0.  1.
         23    2    1    2    0    0 -0.16343379995E+01 -0.80360937595E+03 -0.16187607031E+04  0.18097610980E+04  0.95175193886E+02 0.  0.
         13    1    3    3    0    0  0.16115954705E+02 -0.17083649429E+03 -0.27125641723E+03  0.32097488323E+03  0.00000000000E+00 0.  1.
        -13    1    3    3    0    0 -0.17750292705E+02 -0.63277288165E+03 -0.13475042859E+04  0.14887862147E+04  0.00000000000E+00 0. -1.
         22    1    1    2    0    0  0.16343379995E+01  0.80360937595E+03  0.61149460295E+03  0.10098100562E+04  0.00000000000E+00 0. -1.
<mgrwt>
<rscale>  0 0.26335141E+04</rscale>
<asrwt>0</asrwt>
<pdfrwt beam="1">  1        2 0.13940808E+00 0.26335141E+04</pdfrwt>
<pdfrwt beam="2">  1       -2 0.29437209E+00 0.26335141E+04</pdfrwt>
<totfact> 0.88146914E-01</totfact>
</mgrwt>
</event>
<event>
 6    1  0.1603085E-006  0.4606649E+04  0.7818608E-02  0.7892227E-01
         -2   -1    0    0    0  501 -0.00000000000E+00  0.00000000000E+00  0.13432842886E+04  0.13432842886E+04  0.00000000000E+00 0.  1.
          2   -1    0    0  501    0  0.00000000000E+00 -0.00000000000E+00 -0.39495026445E+04  0.39495026445E+04  0.00000000000E+00 0. -1.
         23    2    1    2    0    0 -0.21025109125E+04  0.78767953904E+03 -0.18887385957E+04  0.29357191785E+04  0.10061023033E+03 0.  0.
         13    1    3    3    0    0 -0.18638760885E+04  0.67174281732E+03 -0.16923721061E+04  0.26056469122E+04  0.00000000000E+00 0.  1.
        -13    1    3    3    0    0 -0.23863482405E+03  0.11593672172E+03 -0.19636648965E+03  0.33007226626E+03  0.00000000000E+00 0. -1.
         22    1    1    2    0    0  0.21025109125E+04 -0.78767953904E+03 -0.71747976020E+03  0.23570677546E+04  0.00000000000E+00 0. -1.
<mgrwt>
<rscale>  0 0.46066495E+04</rscale>
<asrwt>0</asrwt>
<pdfrwt beam="1">  1        2 0.60761578E+00 0.46066495E+04</pdfrwt>
<pdfrwt beam="2">  1       -2 0.20665913E+00 0.46066495E+04</pdfrwt>
<totfact> 0.33821309E-02</totfact>
</mgrwt>
</event>
<event>
 6    1  0.1603085E-006  0.2932644E+04  0.7818608E-02  0.8263231E-01
         -2   -1    0    0    0  501 -0.00000000000E+00  0.00000000000E+00  0.88863472802E+03  0.88863472802E+03  0.00000000000E+00 0.  1.
          2   -1    0    0  501    0  0.00000000000E+00 -0.00000000000E+00 -0.24195542508E+04  0.24195542508E+04  0.00000000000E+00 0. -1.
         23    2    1    2    0    0  0.14276099194E+03 -0.13402193324E+04 -0.11896973633E+03  0.13562231084E+04  0.92837287114E+02 0.  0.
         13    1    3    3    0    0  0.43600231724E+02 -0.33991578328E+03 -0.70314794948E+02  0.34983980665E+03  0.00000000000E+00 0.  1.
        -13    1    3    3    0    0  0.99160760213E+02 -0.10003035491E+04 -0.48654941387E+02  0.10063833018E+04  0.00000000000E+00 0. -1.
         22    1    1    2    0    0 -0.14276099194E+03  0.13402193324E+04 -0.14119497865E+04  0.19519658704E+04  0.00000000000E+00 0.  1.
<mgrwt>
<rscale>  0 0.29326438E+04</rscale>
<asrwt>0</asrwt>
<pdfrwt beam="1">  1        2 0.37223912E+00 0.29326438E+04</pdfrwt>
<pdfrwt beam="2">  1       -2 0.13671303E+00 0.29326438E+04</pdfrwt>
<totfact> 0.12735288E+00</totfact>
</mgrwt>
</event>
<event>
 6    1  0.1603085E-006  0.2046259E+04  0.7818608E-02  0.8585293E-01
         -1   -1    0    0    0  501 -0.00000000000E+00  0.00000000000E+00  0.14110497113E+04  0.14110497113E+04  0.00000000000E+00 0.  1.
          1   -1    0    0  501    0  0.00000000000E+00 -0.00000000000E+00 -0.74185458131E+03  0.74185458131E+03  0.00000000000E+00 0. -1.
         23    2    1    2    0    0 -0.46735433504E+03 -0.64561410760E+03 -0.33637990455E+03  0.86977577195E+03  0.90115497423E+02 0.  0.
         13    1    3    3    0    0 -0.15080748206E+03 -0.26738160552E+03 -0.15834458194E+03  0.34541109745E+03  0.00000000000E+00 0.  1.
        -13    1    3    3    0    0 -0.31654685299E+03 -0.37823250208E+03 -0.17803532260E+03  0.52436467450E+03  0.00000000000E+00 0. -1.
         22    1    1    2    0    0  0.46735433504E+03  0.64561410760E+03  0.10055750345E+04  0.12831285206E+04  0.00000000000E+00 0.  1.
<mgrwt>
<rscale>  0 0.20462587E+04</rscale>
<asrwt>0</asrwt>
<pdfrwt beam="1">  1        1 0.11413147E+00 0.20462587E+04</pdfrwt>
<pdfrwt beam="2">  1       -1 0.21708457E+00 0.20462587E+04</pdfrwt>
<totfact> 0.26497796E+00</totfact>
</mgrwt>
</event>
<event>
 6    1  0.1603085E-006  0.1987509E+04  0.7818608E-02  0.8612483E-01
          1   -1    0    0  501    0  0.00000000000E+00  0.00000000000E+00  0.65862780756E+03  0.65862780756E+03  0.00000000000E+00 0. -1.
         -1   -1    0    0    0  501 -0.00000000000E+00 -0.00000000000E+00 -0.14994028883E+04  0.14994028883E+04  0.00000000000E+00 0.  1.
         23    2    1    2    0    0 -0.74972689426E+02 -0.82907528803E+02 -0.14912443336E+04  0.14980270509E+04  0.88208958149E+02 0.  0.
         13    1    3    3    0    0 -0.34349086505E+02 -0.77060561350E+02 -0.60754845222E+03  0.61337860384E+03  0.00000000000E+00 0. -1.
        -13    1    3    3    0    0 -0.40623602921E+02 -0.58469674531E+01 -0.88369588137E+03  0.88464844706E+03  0.00000000000E+00 0.  1.
         22    1    1    2    0    0  0.74972689426E+02  0.82907528803E+02  0.65046925283E+03  0.66000364497E+03  0.00000000000E+00 0. -1.
<mgrwt>
<rscale>  0 0.19875094E+04</rscale>
<asrwt>0</asrwt>
<pdfrwt beam="1">  1        1 0.10132735E+00 0.19875094E+04</pdfrwt>
<pdfrwt beam="2">  1       -1 0.23067737E+00 0.19875094E+04</pdfrwt>
<totfact> 0.25905799E+00</totfact>
</mgrwt>
</event>
<event>
 6    1  0.1603085E-006  0.1953377E+04  0.7818608E-02  0.8628734E-01
          2   -1    0    0  501    0  0.00000000000E+00  0.00000000000E+00  0.24736682640E+04  0.24736682640E+04  0.00000000000E+00 0. -1.
         -2   -1    0    0    0  501 -0.00000000000E+00 -0.00000000000E+00 -0.38563002206E+03  0.38563002206E+03  0.00000000000E+00 0.  1.
         23    2    1    2    0    0 -0.86843628393E+03 -0.21975918862E+03  0.48457469522E+03  0.10225699376E+04  0.91438295336E+02 0.  0.
         13    1    3    3    0    0 -0.50377686133E+03 -0.10899638531E+03  0.32540329539E+03  0.60955610297E+03  0.00000000000E+00 0.  1.
        -13    1    3    3    0    0 -0.36465942261E+03 -0.11076280331E+03  0.15917139983E+03  0.41301383465E+03  0.00000000000E+00 0. -1.
         22    1    1    2    0    0  0.86843628393E+03  0.21975918862E+03  0.16034635467E+04  0.18367283484E+04  0.00000000000E+00 0. -1.
<mgrwt>
<rscale>  0 0.19533773E+04</rscale>
<asrwt>0</asrwt>
<pdfrwt beam="1">  1        2 0.38056434E+00 0.19533773E+04</pdfrwt>
<pdfrwt beam="2">  1       -2 0.59327697E-01 0.19533773E+04</pdfrwt>
<totfact> 0.89238037E+00</totfact>
</mgrwt>
</event>
<event>
 6    1  0.1603085E-006  0.5934012E+04  0.7818608E-02  0.7698638E-01
          1   -1    0    0  501    0  0.00000000000E+00  0.00000000000E+00  0.53321561264E+04  0.53321561264E+04  0.00000000000E+00 0. -1.
         -1   -1    0    0    0  501 -0.00000000000E+00 -0.00000000000E+00 -0.16509500563E+04  0.16509500563E+04  0.00000000000E+00 0.  1.
         23    2    1    2    0    0 -0.10354856182E+04 -0.26913583222E+04  0.10218076200E+04  0.30603469242E+04  0.77410594851E+02 0.  0.
         11    1    3    3    0    0 -0.18151759216E+03 -0.53608813062E+03  0.17907541901E+03  0.59363888497E+03  0.00000000000E+00 0. -1.
        -11    1    3    3    0    0 -0.85396802603E+03 -0.21552701915E+04  0.84273220103E+03  0.24667080392E+04  0.00000000000E+00 0.  1.
         22    1    1    2    0    0  0.10354856182E+04  0.26913583222E+04  0.26593984501E+04  0.39227592585E+04  0.00000000000E+00 0.  1.
<mgrwt>
<rscale>  0 0.59340116E+04</rscale>
<asrwt>0</asrwt>
<pdfrwt beam="1">  1        1 0.82033171E+00 0.59340116E+04</pdfrwt>
<pdfrwt beam="2">  1       -1 0.25399232E+00 0.59340116E+04</pdfrwt>
<totfact> 0.12527636E-04</totfact>
</mgrwt>
</event>
<event>
 6    1  0.1603085E-006  0.3479555E+04  0.7818608E-02  0.8118652E-01
         -1   -1    0    0    0  501 -0.00000000000E+00  0.00000000000E+00  0.10953813497E+04  0.10953813497E+04  0.00000000000E+00 0.  1.
          1   -1    0    0  501    0  0.00000000000E+00 -0.00000000000E+00 -0.27632622511E+04  0.27632622511E+04  0.00000000000E+00 0. -1.
         23    2    1    2    0    0 -0.88065847841E+03 -0.10709206888E+04  0.32859086618E+03  0.14279379428E+04  0.92759549638E+02 0.  0.
         13    1    3    3    0    0 -0.38260798052E+03 -0.52762624121E+03  0.12959373986E+03  0.66450948419E+03  0.00000000000E+00 0. -1.
        -13    1    3    3    0    0 -0.49805049789E+03 -0.54329444757E+03  0.19899712632E+03  0.76342845866E+03  0.00000000000E+00 0.  1.
         22    1    1    2    0    0  0.88065847841E+03  0.10709206888E+04 -0.19964717675E+04  0.24307056580E+04  0.00000000000E+00 0.  1.
<mgrwt>
<rscale>  0 0.34795551E+04</rscale>
<asrwt>0</asrwt>
<pdfrwt beam="1">  1        1 0.42511726E+00 0.34795551E+04</pdfrwt>
<pdfrwt beam="2">  1       -1 0.16852021E+00 0.34795551E+04</pdfrwt>
<totfact> 0.18244110E-01</totfact>
</mgrwt>
</event>
<event>
 6    1  0.1603085E-006  0.2075854E+04  0.7818608E-02  0.8571955E-01
         -1   -1    0    0    0  501 -0.00000000000E+00  0.00000000000E+00  0.38644352485E+03  0.38644352485E+03  0.00000000000E+00 0.  1.
          1   -1    0    0  501    0  0.00000000000E+00 -0.00000000000E+00 -0.27877095844E+04  0.27877095844E+04  0.00000000000E+00 0. -1.
         23    2    1    2    0    0 -0.37101267873E+03  0.75120895168E+03 -0.26973852366E+03  0.88387475650E+03  0.80687156090E+02 0.  0.
         13    1    3    3    0    0 -0.21362502910E+03  0.51500093846E+03 -0.19024016722E+03  0.58911199351E+03  0.00000000000E+00 0. -1.
        -13    1    3    3    0    0 -0.15738764963E+03  0.23620801322E+03 -0.79498356437E+02  0.29476276298E+03  0.00000000000E+00 0.  1.
         22    1    1    2    0    0  0.37101267873E+03 -0.75120895168E+03 -0.21315275359E+04  0.22902783528E+04  0.00000000000E+00 0. -1.
<mgrwt>
<rscale>  0 0.20758539E+04</rscale>
<asrwt>0</asrwt>
<pdfrwt beam="1">  1        1 0.42887842E+00 0.20758539E+04</pdfrwt>
<pdfrwt beam="2">  1       -1 0.59452847E-01 0.20758539E+04</pdfrwt>
<totfact> 0.22497491E+00</totfact>
</mgrwt>
</event>
<event>
 6    1  0.1603085E-006  0.3162007E+04  0.7818608E-02  0.8198924E-01
         -2   -1    0    0    0  501 -0.00000000000E+00  0.00000000000E+00  0.86849248268E+03  0.86849248268E+03  0.00000000000E+00 0.  1.
          2   -1    0    0  501    0  0.00000000000E+00 -0.00000000000E+00 -0.28780591141E+04  0.28780591141E+04  0.00000000000E+00 0. -1.
         23    2    1    2    0    0 -0.15241064446E+04 -0.26565807201E+03 -0.62810364437E+03  0.16724458497E+04  0.95321909633E+02 0.  0.
         13    1    3    3    0    0 -0.40670083755E+03 -0.95929607546E+02 -0.20700530405E+03  0.46632526929E+03  0.00000000000E+00 0. -1.
        -13    1    3    3    0    0 -0.11174056070E+04 -0.16972846447E+03 -0.42109834032E+03  0.12061205804E+04  0.00000000000E+00 0.  1.
         22    1    1    2    0    0  0.15241064446E+04  0.26565807201E+03 -0.13814629870E+04  0.20741057471E+04  0.00000000000E+00 0. -1.
<mgrwt>
<rscale>  0 0.31620074E+04</rscale>
<asrwt>0</asrwt>
<pdfrwt beam="1">  1        2 0.44277832E+00 0.31620074E+04</pdfrwt>
<pdfrwt beam="2">  1       -2 0.13361423E+00 0.31620074E+04</pdfrwt>
<totfact> 0.70867879E-01</totfact>
</mgrwt>
</event>
<event>
 6    1  0.1603085E-006  0.3445532E+04  0.7818608E-02  0.8126821E-01
         -2   -1    0    0    0  501 -0.00000000000E+00  0.00000000000E+00  0.11155981814E+04  0.11155981814E+04  0.00000000000E+00 0.  1.
          2   -1    0    0  501    0  0.00000000000E+00 -0.00000000000E+00 -0.26603865721E+04  0.26603865721E+04  0.00000000000E+00 0. -1.
         23    2    1    2    0    0 -0.55192964321E+03 -0.11120539571E+04 -0.20799904225E+04  0.24240485311E+04  0.91437346892E+02 0.  0.
         11    1    3    3    0    0 -0.44710371907E+03 -0.81205907683E+03 -0.15594030836E+04  0.18141333074E+04  0.00000000000E+00 0. -1.
        -11    1    3    3    0    0 -0.10482592414E+03 -0.29999488030E+03 -0.52058733893E+03  0.60991522364E+03  0.00000000000E+00 0.  1.
         22    1    1    2    0    0  0.55192964321E+03  0.11120539571E+04  0.53520203191E+03  0.13519362225E+04  0.00000000000E+00 0.  1.
<mgrwt>
<rscale>  0 0.34455318E+04</rscale>
<asrwt>0</asrwt>
<pdfrwt beam="1">  1        2 0.40929024E+00 0.34455318E+04</pdfrwt>
<pdfrwt beam="2">  1       -2 0.17163049E+00 0.34455318E+04</pdfrwt>
<totfact> 0.48006316E-01</totfact>
</mgrwt>
</event>
<event>
 6    1  0.1962814E-006  0.4162511E+04  0.7818608E-02  0.7972542E-01
         -1   -1    0    0    0  501 -0.00000000000E+00  0.00000000000E+00  0.14766349006E+04  0.14766349006E+04  0.00000000000E+00 0.  1.
          1   -1    0    0  501    0  0.00000000000E+00 -0.00000000000E+00 -0.29334434543E+04  0.29334434543E+04  0.00000000000E+00 0. -1.
         23    2    1    2    0    0 -0.27953119446E+03 -0.42892078072E+03 -0.28649510941E+04  0.29117539112E+04  0.90858919376E+02 0.  0.
         13    1    3    3    0    0 -0.99469227641E+02 -0.16151187669E+03 -0.82799115989E+03  0.84944074215E+03  0.00000000000E+00 0.  1.
        -13    1    3    3    0    0 -0.18006196681E+03 -0.26740890403E+03 -0.20369599342E+04  0.20623131690E+04  0.00000000000E+00 0. -1.
         22    1    1    2    0    0  0.27953119446E+03  0.42892078072E+03  0.14081425403E+04  0.14983244437E+04  0.00000000000E+00 0.  1.
<mgrwt>
<rscale>  0 0.41625113E+04</rscale>
<asrwt>0</asrwt>
<pdfrwt beam="1">  1        1 0.45129899E+00 0.41625113E+04</pdfrwt>
<pdfrwt beam="2">  1       -1 0.22717460E+00 0.41625113E+04</pdfrwt>
<totfact> 0.50850359E-02</totfact>
</mgrwt>
</event>
<event>
 6    1  0.1603085E-006  0.1480711E+04  0.7818608E-02  0.8897382E-01
          2   -1    0    0  501    0  0.00000000000E+00  0.00000000000E+00  0.30481380554E+03  0.30481380554E+03  0.00000000000E+00 0.  1.
         -2   -1    0    0    0  501 -0.00000000000E+00 -0.00000000000E+00 -0.17982335010E+04  0.17982335010E+04  0.00000000000E+00 0. -1.
         23    2    1    2    0    0 -0.29206599992E+03 -0.50611311264E+03 -0.10990785268E+03  0.60119576587E+03  0.88902090690E+02 0.  0.
         11    1    3    3    0    0 -0.37826812217E+02 -0.51860556612E+02 -0.40822121962E+02  0.76071221208E+02  0.00000000000E+00 0. -1.
        -11    1    3    3    0    0 -0.25423918770E+03 -0.45425255603E+03 -0.69085730713E+02  0.52512454466E+03  0.00000000000E+00 0.  1.
         22    1    1    2    0    0  0.29206599992E+03  0.50611311264E+03 -0.13835118427E+04  0.15018515406E+04  0.00000000000E+00 0. -1.
<mgrwt>
<rscale>  0 0.14807112E+04</rscale>
<asrwt>0</asrwt>
<pdfrwt beam="1">  1        2 0.46894431E-01 0.14807112E+04</pdfrwt>
<pdfrwt beam="2">  1       -2 0.27665131E+00 0.14807112E+04</pdfrwt>
<totfact> 0.46171521E+00</totfact>
</mgrwt>
</event>
<event>
 6    1  0.1603085E-006  0.1707681E+04  0.7818608E-02  0.8756996E-01
          2   -1    0    0  501    0  0.00000000000E+00  0.00000000000E+00  0.57469854327E+03  0.57469854327E+03  0.00000000000E+00 0. -1.
         -2   -1    0    0    0  501 -0.00000000000E+00 -0.00000000000E+00 -0.12685663184E+04  0.12685663184E+04  0.00000000000E+00 0.  1.
         23    2    1    2    0    0 -0.36759701906E+03 -0.63550247869E+03  0.11736373608E+03  0.74914990716E+03  0.91980258825E+02 0.  0.
         13    1    3    3    0    0 -0.19037091440E+03 -0.36308143041E+03  0.22444168818E+02  0.41057636424E+03  0.00000000000E+00 0.  1.
        -13    1    3    3    0    0 -0.17722610466E+03 -0.27242104828E+03  0.94919567266E+02  0.33857354293E+03  0.00000000000E+00 0. -1.
         22    1    1    2    0    0  0.36759701906E+03  0.63550247869E+03 -0.81123151117E+03  0.10941149545E+04  0.00000000000E+00 0.  1.
<mgrwt>
<rscale>  0 0.17076805E+04</rscale>
<asrwt>0</asrwt>
<pdfrwt beam="1">  1        2 0.88415162E-01 0.17076805E+04</pdfrwt>
<pdfrwt beam="2">  1       -2 0.19516405E+00 0.17076805E+04</pdfrwt>
<totfact> 0.71054974E+00</totfact>
</mgrwt>
</event>
<event>
 6    1  0.1603085E-006  0.2258162E+04  0.7818608E-02  0.8494602E-01
         -2   -1    0    0    0  501 -0.00000000000E+00  0.00000000000E+00  0.65714423846E+03  0.65714423846E+03  0.00000000000E+00 0.  1.
          2   -1    0    0  501    0  0.00000000000E+00 -0.00000000000E+00 -0.19399457082E+04  0.19399457082E+04  0.00000000000E+00 0. -1.
         23    2    1    2    0    0  0.23042690244E+03 -0.16997331420E+03 -0.18963956405E+04  0.19199745272E+04  0.89433075095E+02 0.  0.
         13    1    3    3    0    0  0.15144228336E+03 -0.73415555905E+02 -0.87970719430E+03  0.89566140742E+03  0.00000000000E+00 0.  1.
        -13    1    3    3    0    0  0.78984619082E+02 -0.96557758300E+02 -0.10166884462E+04  0.10243131198E+04  0.00000000000E+00 0. -1.
         22    1    1    2    0    0 -0.23042690244E+03  0.16997331420E+03  0.61359417075E+03  0.67711541947E+03  0.00000000000E+00 0.  1.
<mgrwt>
<rscale>  0 0.22581622E+04</rscale>
<asrwt>0</asrwt>
<pdfrwt beam="1">  1        2 0.29845318E+00 0.22581622E+04</pdfrwt>
<pdfrwt beam="2">  1       -2 0.10109911E+00 0.22581622E+04</pdfrwt>
<totfact> 0.52823158E+00</totfact>
</mgrwt>
</event>
<event>
 6    1  0.1603085E-006  0.3995825E+04  0.7818608E-02  0.8005389E-01
          2   -1    0    0  501    0  0.00000000000E+00  0.00000000000E+00  0.23134521556E+04  0.23134521556E+04  0.00000000000E+00 0. -1.
         -2   -1    0    0    0  501 -0.00000000000E+00 -0.00000000000E+00 -0.17254105162E+04  0.17254105162E+04  0.00000000000E+00 0.  1.
         23    2    1    2    0    0  0.11822222447E+02  0.19518010845E+04 -0.13199090599E+03  0.19584506681E+04  0.91870462488E+02 0.  0.
         13    1    3    3    0    0  0.34794114629E+01  0.26717094273E+03  0.13460589308E+02  0.26753243992E+03  0.00000000000E+00 0.  1.
        -13    1    3    3    0    0  0.83428109836E+01  0.16846301418E+04 -0.14545149530E+03  0.16909182282E+04  0.00000000000E+00 0. -1.
         22    1    1    2    0    0 -0.11822222447E+02 -0.19518010845E+04  0.72003254537E+03  0.20804120036E+04  0.00000000000E+00 0.  1.
<mgrwt>
<rscale>  0 0.39958252E+04</rscale>
<asrwt>0</asrwt>
<pdfrwt beam="1">  1        2 0.35591572E+00 0.39958252E+04</pdfrwt>
<pdfrwt beam="2">  1       -2 0.26544777E+00 0.39958252E+04</pdfrwt>
<totfact> 0.18165882E-01</totfact>
</mgrwt>
</event>
<event>
 6    1  0.1603085E-006  0.1187379E+04  0.7818608E-02  0.9123976E-01
          3   -1    0    0  501    0  0.00000000000E+00  0.00000000000E+00  0.83446666949E+03  0.83446666949E+03  0.00000000000E+00 0. -1.
         -3   -1    0    0    0  501 -0.00000000000E+00 -0.00000000000E+00 -0.42238620279E+03  0.42238620279E+03  0.00000000000E+00 0.  1.
         23    2    1    2    0    0 -0.19601194383E+03  0.41314194299E+02  0.79495183210E+03  0.82474405819E+03  0.90148773671E+02 0.  0.
         11    1    3    3    0    0 -0.93398221188E+02  0.62363077966E+02  0.47436694428E+03  0.48747961911E+03  0.00000000000E+00 0.  1.
        -11    1    3    3    0    0 -0.10261372264E+03 -0.21048883667E+02  0.32058488781E+03  0.33726443908E+03  0.00000000000E+00 0. -1.
         22    1    1    2    0    0  0.19601194383E+03 -0.41314194299E+02 -0.38287136540E+03  0.43210881409E+03  0.00000000000E+00 0.  1.
<mgrwt>
<rscale>  0 0.11873790E+04</rscale>
<asrwt>0</asrwt>
<pdfrwt beam="1">  1        3 0.12837949E+00 0.11873790E+04</pdfrwt>
<pdfrwt beam="2">  1       -3 0.64982493E-01 0.11873790E+04</pdfrwt>
<totfact> 0.28459296E+00</totfact>
</mgrwt>
</event>
<event>
 6    1  0.1603085E-006  0.3070328E+04  0.7818608E-02  0.8223929E-01
         -2   -1    0    0    0  501 -0.00000000000E+00  0.00000000000E+00  0.10273546920E+04  0.10273546920E+04  0.00000000000E+00 0.  1.
          2   -1    0    0  501    0  0.00000000000E+00 -0.00000000000E+00 -0.22939779394E+04  0.22939779394E+04  0.00000000000E+00 0. -1.
         23    2    1    2    0    0  0.10410146379E+04  0.10914397771E+04 -0.93553263055E+03  0.17771262786E+04  0.89466440387E+02 0.  0.
         11    1    3    3    0    0  0.89647977859E+03  0.89936553675E+03 -0.76640598633E+03  0.14832102002E+04  0.00000000000E+00 0. -1.
        -11    1    3    3    0    0  0.14453485933E+03  0.19207424037E+03 -0.16912664422E+03  0.29391607843E+03  0.00000000000E+00 0.  1.
         22    1    1    2    0    0 -0.10410146379E+04 -0.10914397771E+04 -0.33109061686E+03  0.15442063528E+04  0.00000000000E+00 0.  1.
<mgrwt>
<rscale>  0 0.30703283E+04</rscale>
<asrwt>0</asrwt>
<pdfrwt beam="1">  1        2 0.35291969E+00 0.30703283E+04</pdfrwt>
<pdfrwt beam="2">  1       -2 0.15805457E+00 0.30703283E+04</pdfrwt>
<totfact> 0.10126822E+00</totfact>
</mgrwt>
</event>
<event>
 6    1  0.1603085E-006  0.2028352E+04  0.7818608E-02  0.8593479E-01
         -1   -1    0    0    0  501 -0.00000000000E+00  0.00000000000E+00  0.62853752869E+03  0.62853752869E+03  0.00000000000E+00 0.  1.
          1   -1    0    0  501    0  0.00000000000E+00 -0.00000000000E+00 -0.16364226931E+04  0.16364226931E+04  0.00000000000E+00 0. -1.
         23    2    1    2    0    0 -0.45542325397E+03  0.68626872087E+02 -0.15112719886E+04  0.15826712195E+04  0.93729278938E+02 0.  0.
         13    1    3    3    0    0 -0.19656686815E+03  0.25734670153E+02 -0.81036771107E+03  0.83426412727E+03  0.00000000000E+00 0. -1.
        -13    1    3    3    0    0 -0.25885638582E+03  0.42892201933E+02 -0.70090427750E+03  0.74840709222E+03  0.00000000000E+00 0.  1.
         22    1    1    2    0    0  0.45542325397E+03 -0.68626872087E+02  0.50338682421E+03  0.68228900226E+03  0.00000000000E+00 0.  1.
<mgrwt>
<rscale>  0 0.20283521E+04</rscale>
<asrwt>0</asrwt>
<pdfrwt beam="1">  1        1 0.25175734E+00 0.20283521E+04</pdfrwt>
<pdfrwt beam="2">  1       -1 0.96698080E-01 0.20283521E+04</pdfrwt>
<totfact> 0.50149529E+00</totfact>
</mgrwt>
</event>
<event>
 6    1  0.1603085E-006  0.4051425E+04  0.7818608E-02  0.7994252E-01
          1   -1    0    0  501    0  0.00000000000E+00  0.00000000000E+00  0.30420105337E+04  0.30420105337E+04  0.00000000000E+00 0. -1.
         -1   -1    0    0    0  501 -0.00000000000E+00 -0.00000000000E+00 -0.13489473423E+04  0.13489473423E+04  0.00000000000E+00 0.  1.
         23    2    1    2    0    0  0.11039046847E+04  0.16930600952E+04  0.97739270832E+03  0.22468398104E+04  0.89076308475E+02 0.  0.
         13    1    3    3    0    0  0.97198755899E+03  0.15272543643E+04  0.85396838521E+03  0.20016312625E+04  0.00000000000E+00 0. -1.
        -13    1    3    3    0    0  0.13191712569E+03  0.16580573089E+03  0.12342432311E+03  0.24520854794E+03  0.00000000000E+00 0.  1.
         22    1    1    2    0    0 -0.11039046847E+04 -0.16930600952E+04  0.71567048304E+03  0.21441180655E+04  0.00000000000E+00 0. -1.
<mgrwt>
<rscale>  0 0.40514254E+04</rscale>
<asrwt>0</asrwt>
<pdfrwt beam="1">  1        1 0.46800162E+00 0.40514254E+04</pdfrwt>
<pdfrwt beam="2">  1       -1 0.20753036E+00 0.40514254E+04</pdfrwt>
<totfact> 0.57963189E-02</totfact>
</mgrwt>
</event>
<event>
 6    1  0.1613299E-006  0.2481184E+04  0.7818608E-02  0.8409720E-01
         -2   -1    0    0    0  501 -0.00000000000E+00  0.00000000000E+00  0.79265799350E+03  0.79265799350E+03  0.00000000000E+00 0.  1.
          2   -1    0    0  501    0  0.00000000000E+00 -0.00000000000E+00 -0.19416544502E+04  0.19416544502E+04  0.00000000000E+00 0. -1.
         23    2    1    2    0    0  0.85159171319E+01  0.22276358767E+03 -0.19183069699E+04  0.19333537666E+04  0.90879145955E+02 0.  0.
         13    1    3    3    0    0  0.34144436076E+01  0.10113024427E+03 -0.51975532112E+03  0.52951353011E+03  0.00000000000E+00 0.  1.
        -13    1    3    3    0    0  0.51014735244E+01  0.12163334340E+03 -0.13985516488E+04  0.14038402365E+04  0.00000000000E+00 0. -1.
         22    1    1    2    0    0 -0.85159171319E+01 -0.22276358767E+03  0.76931051317E+03  0.80095867715E+03  0.00000000000E+00 0.  1.
<mgrwt>
<rscale>  0 0.24811835E+04</rscale>
<asrwt>0</asrwt>
<pdfrwt beam="1">  1        2 0.29871606E+00 0.24811835E+04</pdfrwt>
<pdfrwt beam="2">  1       -2 0.12194739E+00 0.24811835E+04</pdfrwt>
<totfact> 0.32806697E+00</totfact>
</mgrwt>
</event>
<event>
 6    1  0.1603085E-006  0.1623794E+04  0.7818608E-02  0.8806062E-01
          1   -1    0    0  501    0  0.00000000000E+00  0.00000000000E+00  0.41627570660E+04  0.41627570660E+04  0.00000000000E+00 0. -1.
         -1   -1    0    0    0  501 -0.00000000000E+00 -0.00000000000E+00 -0.15835096917E+03  0.15835096917E+03  0.00000000000E+00 0.  1.
         23    2    1    2    0    0 -0.23333591786E+01  0.65885863081E+03  0.32593314532E+04  0.33265044133E+04  0.91049164043E+02 0.  0.
         13    1    3    3    0    0 -0.35757588097E+02  0.25064234163E+03  0.11117056263E+04  0.11401708592E+04  0.00000000000E+00 0. -1.
        -13    1    3    3    0    0  0.33424228918E+02  0.40821628919E+03  0.21476258269E+04  0.21863335542E+04  0.00000000000E+00 0.  1.
         22    1    1    2    0    0  0.23333591786E+01 -0.65885863081E+03  0.74507464367E+03  0.99460362186E+03  0.00000000000E+00 0.  1.
<mgrwt>
<rscale>  0 0.16237938E+04</rscale>
<asrwt>0</asrwt>
<pdfrwt beam="1">  1        1 0.64042408E+00 0.16237938E+04</pdfrwt>
<pdfrwt beam="2">  1       -1 0.24361691E-01 0.16237938E+04</pdfrwt>
<totfact> 0.97797418E-01</totfact>
</mgrwt>
</event>
<event>
 6    1  0.1603085E-006  0.1646732E+04  0.7818608E-02  0.8792342E-01
          3   -1    0    0  501    0  0.00000000000E+00  0.00000000000E+00  0.17738206406E+04  0.17738206406E+04  0.00000000000E+00 0. -1.
         -3   -1    0    0    0  501 -0.00000000000E+00 -0.00000000000E+00 -0.38218720014E+03  0.38218720014E+03  0.00000000000E+00 0.  1.
         23    2    1    2    0    0 -0.73901086805E+02 -0.48255862365E+03  0.15619189878E+04  0.16389765424E+04  0.91263278922E+02 0.  0.
         13    1    3    3    0    0 -0.74879840074E+02 -0.27407960661E+03  0.10019894228E+04  0.10414938428E+04  0.00000000000E+00 0.  1.
        -13    1    3    3    0    0  0.97875326886E+00 -0.20847901705E+03  0.55992956498E+03  0.59748269954E+03  0.00000000000E+00 0. -1.
         22    1    1    2    0    0  0.73901086805E+02  0.48255862365E+03 -0.17028554732E+03  0.51703129839E+03  0.00000000000E+00 0.  1.
<mgrwt>
<rscale>  0 0.16467320E+04</rscale>
<asrwt>0</asrwt>
<pdfrwt beam="1">  1        3 0.27289548E+00 0.16467320E+04</pdfrwt>
<pdfrwt beam="2">  1       -3 0.58798032E-01 0.16467320E+04</pdfrwt>
<totfact> 0.38890132E-01</totfact>
</mgrwt>
</event>
<event>
 6    1  0.1603085E-006  0.6200963E+03  0.7818608E-02  0.9864568E-01
          1   -1    0    0  501    0  0.00000000000E+00  0.00000000000E+00  0.39712969214E+03  0.39712969214E+03  0.00000000000E+00 0. -1.
         -1   -1    0    0    0  501 -0.00000000000E+00 -0.00000000000E+00 -0.24206162922E+03  0.24206162922E+03  0.00000000000E+00 0.  1.
         23    2    1    2    0    0 -0.13931227437E+03 -0.16354233497E+03  0.29778766270E+03  0.38127100561E+03  0.10264542146E+03 0.  0.
         11    1    3    3    0    0 -0.47659803738E+02 -0.10248537061E+03  0.21706059543E+03  0.24472435549E+03  0.00000000000E+00 0. -1.
        -11    1    3    3    0    0 -0.91652470632E+02 -0.61056964354E+02  0.80727067271E+02  0.13654665012E+03  0.00000000000E+00 0.  1.
         22    1    1    2    0    0  0.13931227437E+03  0.16354233497E+03 -0.14271959977E+03  0.25792031575E+03  0.00000000000E+00 0.  1.
<mgrwt>
<rscale>  0 0.62009632E+03</rscale>
<asrwt>0</asrwt>
<pdfrwt beam="1">  1        1 0.61096876E-01 0.62009632E+03</pdfrwt>
<pdfrwt beam="2">  1       -1 0.37240251E-01 0.62009632E+03</pdfrwt>
<totfact> 0.42532623E+02</totfact>
</mgrwt>
</event>
<event>
 6    1  0.1603085E-006  0.2756898E+04  0.7818608E-02  0.8316776E-01
         -1   -1    0    0    0  501 -0.00000000000E+00  0.00000000000E+00  0.10301510492E+04  0.10301510492E+04  0.00000000000E+00 0.  1.
          1   -1    0    0  501    0  0.00000000000E+00 -0.00000000000E+00 -0.18445081857E+04  0.18445081857E+04  0.00000000000E+00 0. -1.
         23    2    1    2    0    0 -0.98271056804E+03 -0.69923886710E+03  0.28516643695E+03  0.12426031260E+04  0.89930963751E+02 0.  0.
         11    1    3    3    0    0 -0.70128613129E+03 -0.53613591208E+03  0.23492305814E+03  0.91347293195E+03  0.00000000000E+00 0. -1.
        -11    1    3    3    0    0 -0.28142443674E+03 -0.16310295502E+03  0.50243378805E+02  0.32913019407E+03  0.00000000000E+00 0.  1.
         22    1    1    2    0    0  0.98271056804E+03  0.69923886710E+03 -0.10995235734E+04  0.16320561088E+04  0.00000000000E+00 0. -1.
<mgrwt>
<rscale>  0 0.27568983E+04</rscale>
<asrwt>0</asrwt>
<pdfrwt beam="1">  1        1 0.28377049E+00 0.27568983E+04</pdfrwt>
<pdfrwt beam="2">  1       -1 0.15848478E+00 0.27568983E+04</pdfrwt>
<totfact> 0.99083300E-01</totfact>
</mgrwt>
</event>
<event>
 6    1  0.1603085E-006  0.5252222E+03  0.7818608E-02  0.1007397E+00
         -2   -1    0    0    0  501 -0.00000000000E+00  0.00000000000E+00  0.11623968353E+03  0.11623968353E+03  0.00000000000E+00 0.  1.
          2   -1    0    0  501    0  0.00000000000E+00 -0.00000000000E+00 -0.59329641048E+03  0.59329641048E+03  0.00000000000E+00 0. -1.
         23    2    1    2    0    0 -0.14026461311E+03  0.26264474638E+02 -0.53074164934E+03  0.55706952322E+03  0.90971264874E+02 0.  0.
         11    1    3    3    0    0 -0.71423152053E+02 -0.69316234437E+01 -0.39343492350E+03  0.39992543440E+03  0.00000000000E+00 0. -1.
        -11    1    3    3    0    0 -0.68841461054E+02  0.33196098082E+02 -0.13730672585E+03  0.15714408882E+03  0.00000000000E+00 0.  1.
         22    1    1    2    0    0  0.14026461311E+03 -0.26264474638E+02  0.53684922392E+02  0.15246657080E+03  0.00000000000E+00 0.  1.
<mgrwt>
<rscale>  0 0.52522219E+03</rscale>
<asrwt>0</asrwt>
<pdfrwt beam="1">  1        2 0.91276372E-01 0.52522219E+03</pdfrwt>
<pdfrwt beam="2">  1       -2 0.17883028E-01 0.52522219E+03</pdfrwt>
<totfact> 0.13055745E+03</totfact>
</mgrwt>
</event>
<event>
 6    1  0.1603085E-006  0.2433908E+04  0.7818608E-02  0.8426917E-01
          3   -1    0    0  501    0  0.00000000000E+00  0.00000000000E+00  0.12737829217E+04  0.12737829217E+04  0.00000000000E+00 0. -1.
         -3   -1    0    0    0  501 -0.00000000000E+00 -0.00000000000E+00 -0.11626604851E+04  0.11626604851E+04  0.00000000000E+00 0.  1.
         23    2    1    2    0    0  0.72065452663E+03  0.27732493617E+03 -0.88386151361E+03  0.11769811691E+04  0.88438850374E+02 0.  0.
         13    1    3    3    0    0  0.65432115749E+03  0.23515704938E+03 -0.75798978791E+03  0.10285832653E+04  0.00000000000E+00 0. -1.
        -13    1    3    3    0    0  0.66333369136E+02  0.42167886794E+02 -0.12587172570E+03  0.14839790386E+03  0.00000000000E+00 0.  1.
         22    1    1    2    0    0 -0.72065452663E+03 -0.27732493617E+03  0.99498395024E+03  0.12594622377E+04  0.00000000000E+00 0. -1.
<mgrwt>
<rscale>  0 0.24339080E+04</rscale>
<asrwt>0</asrwt>
<pdfrwt beam="1">  1        3 0.19596660E+00 0.24339080E+04</pdfrwt>
<pdfrwt beam="2">  1       -3 0.17887084E+00 0.24339080E+04</pdfrwt>
<totfact> 0.73421852E-02</totfact>
</mgrwt>
</event>
<event>
 6    1  0.1603085E-006  0.2122596E+04  0.7818608E-02  0.8551355E-01
         -1   -1    0    0    0  501 -0.00000000000E+00  0.00000000000E+00  0.41397041420E+03  0.41397041420E+03  0.00000000000E+00 0. -1.
          1   -1    0    0  501    0  0.00000000000E+00 -0.00000000000E+00 -0.27208547386E+04  0.27208547386E+04  0.00000000000E+00 0.  1.
         23    2    1    2    0    0  0.75716223063E+02 -0.79507143055E+03 -0.21834116122E+04  0.23266685858E+04  0.90713358739E+02 0.  0.
         13    1    3    3    0    0  0.77160492324E+02 -0.47826017060E+03 -0.12281959241E+04  0.13202847270E+04  0.00000000000E+00 0.  1.
        -13    1    3    3    0    0 -0.14442692609E+01 -0.31681125995E+03 -0.95521568814E+03  0.10063838588E+04  0.00000000000E+00 0. -1.
         22    1    1    2    0    0 -0.75716223063E+02  0.79507143055E+03 -0.12347271212E+03  0.80815656698E+03  0.00000000000E+00 0. -1.
<mgrwt>
<rscale>  0 0.21225959E+04</rscale>
<asrwt>0</asrwt>
<pdfrwt beam="1">  1        1 0.41859304E+00 0.21225959E+04</pdfrwt>
<pdfrwt beam="2">  1       -1 0.63687756E-01 0.21225959E+04</pdfrwt>
<totfact> 0.21783375E+00</totfact>
</mgrwt>
</event>
<event>
 6    1  0.1603085E-006  0.1668700E+04  0.7818608E-02  0.8779420E-01
         -2   -1    0    0    0  501 -0.00000000000E+00  0.00000000000E+00  0.23614955206E+03  0.23614955206E+03  0.00000000000E+00 0. -1.
          2   -1    0    0  501    0  0.00000000000E+00 -0.00000000000E+00 -0.29478759195E+04  0.29478759195E+04  0.00000000000E+00 0.  1.
         23    2    1    2    0    0  0.80489510540E+03  0.20083369211E+00 -0.95945935568E+03  0.12557371499E+04  0.91963924255E+02 0.  0.
         13    1    3    3    0    0  0.61034802838E+03  0.39276327107E+02 -0.73236942857E+03  0.95416577465E+03  0.00000000000E+00 0.  1.
        -13    1    3    3    0    0  0.19454707702E+03 -0.39075493414E+02 -0.22708992711E+03  0.30157137523E+03  0.00000000000E+00 0. -1.
         22    1    1    2    0    0 -0.80489510540E+03 -0.20083369211E+00 -0.17522670117E+04  0.19282883216E+04  0.00000000000E+00 0.  1.
<mgrwt>
<rscale>  0 0.16686996E+04</rscale>
<asrwt>0</asrwt>
<pdfrwt beam="1">  1        2 0.45351937E+00 0.16686996E+04</pdfrwt>
<pdfrwt beam="2">  1       -2 0.36330701E-01 0.16686996E+04</pdfrwt>
<totfact> 0.12825043E+01</totfact>
</mgrwt>
</event>
<event>
 6    1  0.1603085E-006  0.1315983E+04  0.7818608E-02  0.9016986E-01
          3   -1    0    0  501    0  0.00000000000E+00  0.00000000000E+00  0.11268496021E+04  0.11268496021E+04  0.00000000000E+00 0. -1.
         -3   -1    0    0    0  501 -0.00000000000E+00 -0.00000000000E+00 -0.38421536246E+03  0.38421536246E+03  0.00000000000E+00 0.  1.
         23    2    1    2    0    0 -0.45731498552E+03  0.37115044757E+03  0.44352486748E+02  0.59756233340E+03  0.90685988470E+02 0.  0.
         11    1    3    3    0    0 -0.10966888883E+03  0.43887883496E+02  0.16855759847E+02  0.11932111353E+03  0.00000000000E+00 0.  1.
        -11    1    3    3    0    0 -0.34764609669E+03  0.32726256407E+03  0.27496726901E+02  0.47824121986E+03  0.00000000000E+00 0. -1.
         22    1    1    2    0    0  0.45731498552E+03 -0.37115044757E+03  0.69828175286E+03  0.91350263113E+03  0.00000000000E+00 0. -1.
<mgrwt>
<rscale>  0 0.13159832E+04</rscale>
<asrwt>0</asrwt>
<pdfrwt beam="1">  1        3 0.17336148E+00 0.13159832E+04</pdfrwt>
<pdfrwt beam="2">  1       -3 0.59110056E-01 0.13159832E+04</pdfrwt>
<totfact> 0.15840821E+00</totfact>
</mgrwt>
</event>
<event>
 6    1  0.1603085E-006  0.2167647E+04  0.7818608E-02  0.8532016E-01
         -2   -1    0    0    0  501 -0.00000000000E+00  0.00000000000E+00  0.13328057791E+04  0.13328057791E+04  0.00000000000E+00 0.  1.
          2   -1    0    0  501    0  0.00000000000E+00 -0.00000000000E+00 -0.88135378960E+03  0.88135378960E+03  0.00000000000E+00 0. -1.
         23    2    1    2    0    0  0.47518245490E+03  0.10077286767E+03  0.12136045382E+04  0.13103730654E+04  0.91038777866E+02 0.  0.
         11    1    3    3    0    0  0.21185222620E+03  0.86547059480E+02  0.61741702390E+03  0.65846453257E+03  0.00000000000E+00 0. -1.
        -11    1    3    3    0    0  0.26333022870E+03  0.14225808186E+02  0.59618751428E+03  0.65190853280E+03  0.00000000000E+00 0.  1.
         22    1    1    2    0    0 -0.47518245490E+03 -0.10077286767E+03 -0.76215254863E+03  0.90378650337E+03  0.00000000000E+00 0. -1.
<mgrwt>
<rscale>  0 0.21676470E+04</rscale>
<asrwt>0</asrwt>
<pdfrwt beam="1">  1        2 0.13559289E+00 0.21676470E+04</pdfrwt>
<pdfrwt beam="2">  1       -2 0.20504704E+00 0.21676470E+04</pdfrwt>
<totfact> 0.34097174E+00</totfact>
</mgrwt>
</event>
<event>
 6    1  0.1603085E-006  0.2125709E+04  0.7818608E-02  0.8550002E-01
          1   -1    0    0  501    0  0.00000000000E+00  0.00000000000E+00  0.70144390060E+03  0.70144390060E+03  0.00000000000E+00 0. -1.
         -1   -1    0    0    0  501 -0.00000000000E+00 -0.00000000000E+00 -0.16104782151E+04  0.16104782151E+04  0.00000000000E+00 0.  1.
         23    2    1    2    0    0 -0.83711277606E+03  0.42548981424E+03  0.81859454577E+02  0.94675917910E+03  0.88614846566E+02 0.  0.
         13    1    3    3    0    0 -0.65288388790E+03  0.34222017599E+03  0.99476472106E+02  0.74381959401E+03  0.00000000000E+00 0. -1.
        -13    1    3    3    0    0 -0.18422888816E+03  0.83269638255E+02 -0.17617017529E+02  0.20293958508E+03  0.00000000000E+00 0.  1.
         22    1    1    2    0    0  0.83711277606E+03 -0.42548981424E+03 -0.99089376906E+03  0.13651629366E+04  0.00000000000E+00 0.  1.
<mgrwt>
<rscale>  0 0.21257094E+04</rscale>
<asrwt>0</asrwt>
<pdfrwt beam="1">  1        1 0.10791445E+00 0.21257094E+04</pdfrwt>
<pdfrwt beam="2">  1       -1 0.24776588E+00 0.21257094E+04</pdfrwt>
<totfact> 0.17968949E+00</totfact>
</mgrwt>
</event>
<event>
 6    1  0.1603085E-006  0.1460457E+04  0.7818608E-02  0.8911183E-01
          2   -1    0    0  501    0  0.00000000000E+00  0.00000000000E+00  0.15011618554E+04  0.15011618554E+04  0.00000000000E+00 0. -1.
         -2   -1    0    0    0  501 -0.00000000000E+00 -0.00000000000E+00 -0.35521389562E+03  0.35521389562E+03  0.00000000000E+00 0.  1.
         23    2    1    2    0    0  0.40015647616E+03  0.30794467915E+03  0.12403917828E+04  0.13426883300E+04  0.96358942801E+02 0.  0.
         11    1    3    3    0    0  0.20861060882E+03  0.12423720457E+03  0.69403354710E+03  0.73527942554E+03  0.00000000000E+00 0. -1.
        -11    1    3    3    0    0  0.19154586734E+03  0.18370747458E+03  0.54635823569E+03  0.60740890446E+03  0.00000000000E+00 0.  1.
         22    1    1    2    0    0 -0.40015647616E+03 -0.30794467915E+03 -0.94443823009E+02  0.51368742104E+03  0.00000000000E+00 0.  1.
<mgrwt>
<rscale>  0 0.14604568E+04</rscale>
<asrwt>0</asrwt>
<pdfrwt beam="1">  1        2 0.23094797E+00 0.14604568E+04</pdfrwt>
<pdfrwt beam="2">  1       -2 0.54648292E-01 0.14604568E+04</pdfrwt>
<totfact> 0.38691163E+01</totfact>
</mgrwt>
</event>
<event>
 6    1  0.1603085E-006  0.1095378E+04  0.7818608E-02  0.9209709E-01
          1   -1    0    0  501    0  0.00000000000E+00  0.00000000000E+00  0.38233876744E+03  0.38233876744E+03  0.00000000000E+00 0. -1.
         -1   -1    0    0    0  501 -0.00000000000E+00 -0.00000000000E+00 -0.78454808183E+03  0.78454808183E+03  0.00000000000E+00 0.  1.
         23    2    1    2    0    0  0.23773764084E+03  0.25763779006E+03  0.24063637130E+03  0.43466625931E+03  0.90180247573E+02 0.  0.
         11    1    3    3    0    0  0.14397379588E+03  0.20000154736E+03  0.19987242060E+03  0.31729805761E+03  0.00000000000E+00 0. -1.
        -11    1    3    3    0    0  0.93763844956E+02  0.57636242700E+02  0.40763950700E+02  0.11736820170E+03  0.00000000000E+00 0.  1.
         22    1    1    2    0    0 -0.23773764084E+03 -0.25763779006E+03 -0.64284568569E+03  0.73222058995E+03  0.00000000000E+00 0.  1.
<mgrwt>
<rscale>  0 0.10953778E+04</rscale>
<asrwt>0</asrwt>
<pdfrwt beam="1">  1        1 0.58821349E-01 0.10953778E+04</pdfrwt>
<pdfrwt beam="2">  1       -1 0.12069970E+00 0.10953778E+04</pdfrwt>
<totfact> 0.38774376E+01</totfact>
</mgrwt>
</event>
<event>
 6    1  0.1603085E-006  0.5879801E+03  0.7818608E-02  0.9930662E-01
          2   -1    0    0  501    0  0.00000000000E+00  0.00000000000E+00  0.12666917713E+04  0.12666917713E+04  0.00000000000E+00 0. -1.
         -2   -1    0    0    0  501 -0.00000000000E+00 -0.00000000000E+00 -0.68232964622E+02  0.68232964622E+02  0.00000000000E+00 0.  1.
         23    2    1    2    0    0  0.25476450542E+03  0.14502726324E+02  0.31553450635E+03  0.41586510652E+03  0.90920183836E+02 0.  0.
         11    1    3    3    0    0  0.15458709647E+03  0.48115311604E+02  0.22187734290E+03  0.27466672332E+03  0.00000000000E+00 0. -1.
        -11    1    3    3    0    0  0.10017740894E+03 -0.33612585279E+02  0.93657163451E+02  0.14119838320E+03  0.00000000000E+00 0.  1.
         22    1    1    2    0    0 -0.25476450542E+03 -0.14502726324E+02  0.88292430033E+03  0.91905962941E+03  0.00000000000E+00 0. -1.
<mgrwt>
<rscale>  0 0.58798005E+03</rscale>
<asrwt>0</asrwt>
<pdfrwt beam="1">  1        2 0.19487564E+00 0.58798005E+03</pdfrwt>
<pdfrwt beam="2">  1       -2 0.10497380E-01 0.58798005E+03</pdfrwt>
<totfact> 0.11111320E+03</totfact>
</mgrwt>
</event>
<event>
 6    1  0.1603085E-006  0.1921660E+04  0.7818608E-02  0.8644149E-01
         -2   -1    0    0    0  501 -0.00000000000E+00  0.00000000000E+00  0.10077976818E+04  0.10077976818E+04  0.00000000000E+00 0.  1.
          2   -1    0    0  501    0  0.00000000000E+00 -0.00000000000E+00 -0.91605107095E+03  0.91605107095E+03  0.00000000000E+00 0. -1.
         23    2    1    2    0    0  0.44040990549E+03  0.83787259779E+03  0.19645970209E+03  0.97150626895E+03  0.96107445514E+02 0.  0.
         11    1    3    3    0    0  0.14475988731E+03  0.25175727652E+03  0.10449124942E+03  0.30863501496E+03  0.00000000000E+00 0. -1.
        -11    1    3    3    0    0  0.29565001818E+03  0.58611532127E+03  0.91968452664E+02  0.66287125399E+03  0.00000000000E+00 0.  1.
         22    1    1    2    0    0 -0.44040990549E+03 -0.83787259779E+03 -0.10471309123E+03  0.95234248380E+03  0.00000000000E+00 0.  1.
<mgrwt>
<rscale>  0 0.19216599E+04</rscale>
<asrwt>0</asrwt>
<pdfrwt beam="1">  1        2 0.14093093E+00 0.19216599E+04</pdfrwt>
<pdfrwt beam="2">  1       -2 0.15504580E+00 0.19216599E+04</pdfrwt>
<totfact> 0.73328564E+00</totfact>
</mgrwt>
</event>
<event>
 6    1  0.1603085E-006  0.2435488E+04  0.7818608E-02  0.8426336E-01
         -2   -1    0    0    0  501 -0.00000000000E+00  0.00000000000E+00  0.11922815060E+04  0.11922815060E+04  0.00000000000E+00 0.  1.
          2   -1    0    0  501    0  0.00000000000E+00 -0.00000000000E+00 -0.12437504931E+04  0.12437504931E+04  0.00000000000E+00 0. -1.
         23    2    1    2    0    0 -0.10310110454E+04  0.36858718870E+03  0.50353024032E+03  0.12084879332E+04  0.89778006054E+02 0.  0.
         13    1    3    3    0    0 -0.34372407703E+03  0.79277339266E+02  0.15254121080E+03  0.38431752321E+03  0.00000000000E+00 0.  1.
        -13    1    3    3    0    0 -0.68728696836E+03  0.28930984943E+03  0.35098902952E+03  0.82417040999E+03  0.00000000000E+00 0. -1.
         22    1    1    2    0    0  0.10310110454E+04 -0.36858718870E+03 -0.55499922742E+03  0.12275440659E+04  0.00000000000E+00 0. -1.
<mgrwt>
<rscale>  0 0.24354882E+04</rscale>
<asrwt>0</asrwt>
<pdfrwt beam="1">  1        2 0.19134623E+00 0.24354882E+04</pdfrwt>
<pdfrwt beam="2">  1       -2 0.18342792E+00 0.24354882E+04</pdfrwt>
<totfact> 0.27470553E+00</totfact>
</mgrwt>
</event>
<event>
 6    1  0.1603085E-006  0.3998924E+04  0.7818608E-02  0.8004764E-01
          2   -1    0    0  501    0  0.00000000000E+00  0.00000000000E+00  0.51380076516E+04  0.51380076516E+04  0.00000000000E+00 0. -1.
         -2   -1    0    0    0  501 -0.00000000000E+00 -0.00000000000E+00 -0.77809300500E+03  0.77809300500E+03  0.00000000000E+00 0.  1.
         23    2    1    2    0    0  0.13982132518E+04  0.40765718909E+03  0.42055344313E+04  0.44515126831E+04  0.90888028356E+02 0.  0.
         11    1    3    3    0    0  0.74660271517E+03  0.24802562199E+03  0.23753199121E+04  0.25022144209E+04  0.00000000000E+00 0.  1.
        -11    1    3    3    0    0  0.65161053663E+03  0.15963156709E+03  0.18302145192E+04  0.19492982622E+04  0.00000000000E+00 0. -1.
         22    1    1    2    0    0 -0.13982132518E+04 -0.40765718909E+03  0.15438021535E+03  0.14645879735E+04  0.00000000000E+00 0.  1.
<mgrwt>
<rscale>  0 0.39989238E+04</rscale>
<asrwt>0</asrwt>
<pdfrwt beam="1">  1        2 0.79046269E+00 0.39989238E+04</pdfrwt>
<pdfrwt beam="2">  1       -2 0.11970662E+00 0.39989238E+04</pdfrwt>
<totfact> 0.93801119E-03</totfact>
</mgrwt>
</event>
<event>
 6    1  0.1603085E-006  0.1388151E+04  0.7818608E-02  0.8962440E-01
          2   -1    0    0  501    0  0.00000000000E+00  0.00000000000E+00  0.12931869615E+04  0.12931869615E+04  0.00000000000E+00 0. -1.
         -2   -1    0    0    0  501 -0.00000000000E+00 -0.00000000000E+00 -0.37252231258E+03  0.37252231258E+03  0.00000000000E+00 0.  1.
         23    2    1    2    0    0  0.10451743544E+03  0.41939674180E+03 -0.18473936004E+03  0.47880761666E+03  0.91162389617E+02 0.  0.
         13    1    3    3    0    0  0.98870030139E+02  0.26237495955E+03 -0.86179898162E+02  0.29333066172E+03  0.00000000000E+00 0.  1.
        -13    1    3    3    0    0  0.56474052990E+01  0.15702178225E+03 -0.98559461881E+02  0.18547695494E+03  0.00000000000E+00 0. -1.
         22    1    1    2    0    0 -0.10451743544E+03 -0.41939674180E+03  0.11054040089E+04  0.11869016574E+04  0.00000000000E+00 0. -1.
<mgrwt>
<rscale>  0 0.13881513E+04</rscale>
<asrwt>0</asrwt>
<pdfrwt beam="1">  1        2 0.19895184E+00 0.13881513E+04</pdfrwt>
<pdfrwt beam="2">  1       -2 0.57311126E-01 0.13881513E+04</pdfrwt>
<totfact> 0.46357450E+01</totfact>
</mgrwt>
</event>
<event>
 6    1  0.1603085E-006  0.1579816E+04  0.7818608E-02  0.8833045E-01
         -1   -1    0    0    0  501 -0.00000000000E+00  0.00000000000E+00  0.42167509922E+03  0.42167509922E+03  0.00000000000E+00 0.  1.
          1   -1    0    0  501    0  0.00000000000E+00 -0.00000000000E+00 -0.14797046319E+04  0.14797046319E+04  0.00000000000E+00 0. -1.
         23    2    1    2    0    0  0.10267950767E+03  0.75915098850E+03 -0.75226864251E+03  0.10765506418E+04  0.78739247991E+02 0.  0.
         13    1    3    3    0    0  0.95356496037E+02  0.46461098601E+03 -0.49263066303E+03  0.68384296429E+03  0.00000000000E+00 0. -1.
        -13    1    3    3    0    0  0.73230116291E+01  0.29454000249E+03 -0.25963797948E+03  0.39270767749E+03  0.00000000000E+00 0.  1.
         22    1    1    2    0    0 -0.10267950767E+03 -0.75915098850E+03 -0.30576089015E+03  0.82482908932E+03  0.00000000000E+00 0. -1.
<mgrwt>
<rscale>  0 0.15798159E+04</rscale>
<asrwt>0</asrwt>
<pdfrwt beam="1">  1        1 0.22764687E+00 0.15798159E+04</pdfrwt>
<pdfrwt beam="2">  1       -1 0.64873091E-01 0.15798159E+04</pdfrwt>
<totfact> 0.15646329E+01</totfact>
</mgrwt>
</event>
<event>
 6    1  0.1603085E-006  0.1667050E+04  0.7818608E-02  0.8780383E-01
         -2   -1    0    0    0  501 -0.00000000000E+00  0.00000000000E+00  0.94574781957E+03  0.94574781957E+03  0.00000000000E+00 0.  1.
          2   -1    0    0  501    0  0.00000000000E+00 -0.00000000000E+00 -0.73461836130E+03  0.73461836130E+03  0.00000000000E+00 0. -1.
         23    2    1    2    0    0  0.71740430550E+03  0.31978852897E+03 -0.16832286787E+03  0.80806020896E+03  0.87721563180E+02 0.  0.
         11    1    3    3    0    0  0.30222326703E+03  0.88566505589E+02 -0.58741803738E+02  0.32036468057E+03  0.00000000000E+00 0. -1.
        -11    1    3    3    0    0  0.41518103847E+03  0.23122202338E+03 -0.10958106413E+03  0.48769552840E+03  0.00000000000E+00 0.  1.
         22    1    1    2    0    0 -0.71740430550E+03 -0.31978852897E+03  0.37945232613E+03  0.87230597190E+03  0.00000000000E+00 0.  1.
<mgrwt>
<rscale>  0 0.16670497E+04</rscale>
<asrwt>0</asrwt>
<pdfrwt beam="1">  1        2 0.11301821E+00 0.16670497E+04</pdfrwt>
<pdfrwt beam="2">  1       -2 0.14549966E+00 0.16670497E+04</pdfrwt>
<totfact> 0.11927527E+01</totfact>
</mgrwt>
</event>
<event>
 6    1  0.1603085E-006  0.1532092E+04  0.7818608E-02  0.8863388E-01
         -2   -1    0    0    0  501 -0.00000000000E+00  0.00000000000E+00  0.61485255127E+03  0.61485255127E+03  0.00000000000E+00 0.  1.
          2   -1    0    0  501    0  0.00000000000E+00 -0.00000000000E+00 -0.95441881057E+03  0.95441881057E+03  0.00000000000E+00 0. -1.
         23    2    1    2    0    0  0.13650465116E+03  0.20601075486E+03  0.56944308286E+03  0.62726715004E+03  0.90137128857E+02 0.  0.
         13    1    3    3    0    0  0.27220039467E+02  0.10535539523E+03  0.30661431941E+03  0.32535062736E+03  0.00000000000E+00 0.  1.
        -13    1    3    3    0    0  0.10928461169E+03  0.10065535963E+03  0.26282876344E+03  0.30191652268E+03  0.00000000000E+00 0. -1.
         22    1    1    2    0    0 -0.13650465116E+03 -0.20601075486E+03 -0.90900934216E+03  0.94200421179E+03  0.00000000000E+00 0. -1.
<mgrwt>
<rscale>  0 0.15320925E+04</rscale>
<asrwt>0</asrwt>
<pdfrwt beam="1">  1        2 0.14683366E+00 0.15320925E+04</pdfrwt>
<pdfrwt beam="2">  1       -2 0.94592700E-01 0.15320925E+04</pdfrwt>
<totfact> 0.24477114E+01</totfact>
</mgrwt>
</event>
<event>
 6    1  0.1603085E-006  0.4318435E+03  0.7818608E-02  0.1033279E+00
         -1   -1    0    0    0  501 -0.00000000000E+00  0.00000000000E+00  0.41346240390E+03  0.41346240390E+03  0.00000000000E+00 0.  1.
          1   -1    0    0  501    0  0.00000000000E+00 -0.00000000000E+00 -0.11276044721E+03  0.11276044721E+03  0.00000000000E+00 0. -1.
         23    2    1    2    0    0 -0.39740188383E+02 -0.20204816978E+03  0.17327621093E+03  0.28406574061E+03  0.90917293371E+02 0.  0.
         11    1    3    3    0    0 -0.48172560856E+02 -0.17736534353E+03  0.10659702887E+03  0.21246643798E+03  0.00000000000E+00 0. -1.
        -11    1    3    3    0    0  0.84323724727E+01 -0.24682826245E+02  0.66679182062E+02  0.71599302632E+02  0.00000000000E+00 0.  1.
         22    1    1    2    0    0  0.39740188383E+02  0.20204816978E+03  0.12742574576E+03  0.24215711050E+03  0.00000000000E+00 0. -1.
<mgrwt>
<rscale>  0 0.43184352E+03</rscale>
<asrwt>0</asrwt>
<pdfrwt beam="1">  1        1 0.17347761E-01 0.43184352E+03</pdfrwt>
<pdfrwt beam="2">  1       -1 0.63609600E-01 0.43184352E+03</pdfrwt>
<totfact> 0.80002604E+02</totfact>
</mgrwt>
</event>
<event>
 6    1  0.1603085E-006  0.2201264E+04  0.7818608E-02  0.8517902E-01
          1   -1    0    0  501    0  0.00000000000E+00  0.00000000000E+00  0.19357680963E+04  0.19357680963E+04  0.00000000000E+00 0. -1.
         -1   -1    0    0    0  501 -0.00000000000E+00 -0.00000000000E+00 -0.62579309012E+03  0.62579309012E+03  0.00000000000E+00 0.  1.
         23    2    1    2    0    0 -0.10600906990E+04  0.24851000837E+03  0.82774598745E+03  0.13707235230E+04  0.90388286520E+02 0.  0.
         11    1    3    3    0    0 -0.10479552181E+04  0.24119413041E+03  0.82691362980E+03  0.13565289893E+04  0.00000000000E+00 0. -1.
        -11    1    3    3    0    0 -0.12135480815E+02  0.73158779601E+01  0.83235764856E+00  0.14194533602E+02  0.00000000000E+00 0.  1.
         22    1    1    2    0    0  0.10600906990E+04 -0.24851000837E+03  0.48222901876E+03  0.11908376635E+04  0.00000000000E+00 0. -1.
<mgrwt>
<rscale>  0 0.22012635E+04</rscale>
<asrwt>0</asrwt>
<pdfrwt beam="1">  1        1 0.29781047E+00 0.22012635E+04</pdfrwt>
<pdfrwt beam="2">  1       -1 0.96275861E-01 0.22012635E+04</pdfrwt>
<totfact> 0.31202367E+00</totfact>
</mgrwt>
</event>
<event>
 6    1  0.1603085E-006  0.1498800E+04  0.7818608E-02  0.8885251E-01
         -1   -1    0    0    0  501 -0.00000000000E+00  0.00000000000E+00  0.32373715285E+03  0.32373715285E+03  0.00000000000E+00 0.  1.
          1   -1    0    0  501    0  0.00000000000E+00 -0.00000000000E+00 -0.17347418877E+04  0.17347418877E+04  0.00000000000E+00 0. -1.
         23    2    1    2    0    0  0.10776338727E+03 -0.30006859904E+03  0.21907326633E+03  0.39751293563E+03  0.91484021584E+02 0.  0.
         11    1    3    3    0    0  0.30145743105E+02 -0.13703936081E+03  0.14665553467E+03  0.20296895844E+03  0.00000000000E+00 0.  1.
        -11    1    3    3    0    0  0.77617644162E+02 -0.16302923823E+03  0.72417731655E+02  0.19454397719E+03  0.00000000000E+00 0. -1.
         22    1    1    2    0    0 -0.10776338727E+03  0.30006859904E+03 -0.16300780011E+04  0.16609661049E+04  0.00000000000E+00 0. -1.
<mgrwt>
<rscale>  0 0.14988001E+04</rscale>
<asrwt>0</asrwt>
<pdfrwt beam="1">  1        1 0.26688337E+00 0.14988001E+04</pdfrwt>
<pdfrwt beam="2">  1       -1 0.49805716E-01 0.14988001E+04</pdfrwt>
<totfact> 0.17656821E+01</totfact>
</mgrwt>
</event>
<event>
 6    1  0.1603085E-006  0.1102606E+04  0.7818608E-02  0.9202655E-01
          2   -1    0    0  501    0  0.00000000000E+00  0.00000000000E+00  0.71466356173E+03  0.71466356173E+03  0.00000000000E+00 0. -1.
         -2   -1    0    0    0  501 -0.00000000000E+00 -0.00000000000E+00 -0.42528414933E+03  0.42528414933E+03  0.00000000000E+00 0.  1.
         23    2    1    2    0    0 -0.21658193560E+03  0.77363713759E+02 -0.36803103240E+03  0.44346987799E+03  0.91245892209E+02 0.  0.
         11    1    3    3    0    0 -0.17770916309E+03  0.81323208387E+02 -0.34903232428E+03  0.40002196722E+03  0.00000000000E+00 0.  1.
        -11    1    3    3    0    0 -0.38872772510E+02 -0.39594946280E+01 -0.18998708121E+02  0.43447910773E+02  0.00000000000E+00 0. -1.
         22    1    1    2    0    0  0.21658193560E+03 -0.77363713759E+02  0.65741044479E+03  0.69647783307E+03  0.00000000000E+00 0. -1.
<mgrwt>
<rscale>  0 0.11026062E+04</rscale>
<asrwt>0</asrwt>
<pdfrwt beam="1">  1        2 0.10994824E+00 0.11026062E+04</pdfrwt>
<pdfrwt beam="2">  1       -2 0.65428331E-01 0.11026062E+04</pdfrwt>
<totfact> 0.85315899E+01</totfact>
</mgrwt>
</event>
<event>
 6    1  0.1603085E-006  0.1886027E+04  0.7818608E-02  0.8661843E-01
         -2   -1    0    0    0  501 -0.00000000000E+00  0.00000000000E+00  0.15422034398E+04  0.15422034398E+04  0.00000000000E+00 0.  1.
          2   -1    0    0  501    0  0.00000000000E+00 -0.00000000000E+00 -0.57662564642E+03  0.57662564642E+03  0.00000000000E+00 0. -1.
         23    2    1    2    0    0  0.77375307121E+03 -0.43894646291E+03  0.82793374327E+03  0.12186548270E+04  0.90980721055E+02 0.  0.
         13    1    3    3    0    0  0.51490305032E+03 -0.31075156904E+03  0.61172226375E+03  0.85784370188E+03  0.00000000000E+00 0. -1.
        -13    1    3    3    0    0  0.25885002089E+03 -0.12819489386E+03  0.21621147951E+03  0.36081112511E+03  0.00000000000E+00 0.  1.
         22    1    1    2    0    0 -0.77375307121E+03  0.43894646291E+03  0.13764405015E+03  0.90017425926E+03  0.00000000000E+00 0. -1.
<mgrwt>
<rscale>  0 0.18860266E+04</rscale>
<asrwt>0</asrwt>
<pdfrwt beam="1">  1        2 0.88711638E-01 0.18860266E+04</pdfrwt>
<pdfrwt beam="2">  1       -2 0.23726207E+00 0.18860266E+04</pdfrwt>
<totfact> 0.37564250E+00</totfact>
</mgrwt>
</event>
<event>
 6    1  0.1603085E-006  0.2658857E+04  0.7818608E-02  0.8348479E-01
          2   -1    0    0  501    0  0.00000000000E+00  0.00000000000E+00  0.11858976364E+04  0.11858976364E+04  0.00000000000E+00 0. -1.
         -2   -1    0    0    0  501 -0.00000000000E+00 -0.00000000000E+00 -0.14903315174E+04  0.14903315174E+04  0.00000000000E+00 0.  1.
         23    2    1    2    0    0  0.95797381080E+03  0.91843234957E+03 -0.19757447537E+03  0.13448198495E+04  0.90955766393E+02 0.  0.
         11    1    3    3    0    0  0.72496332144E+03  0.67509250168E+03 -0.10993704488E+03  0.99669847853E+03  0.00000000000E+00 0.  1.
        -11    1    3    3    0    0  0.23301048936E+03  0.24333984788E+03 -0.87637430489E+02  0.34812137099E+03  0.00000000000E+00 0. -1.
         22    1    1    2    0    0 -0.95797381080E+03 -0.91843234957E+03 -0.10685940568E+03  0.13314093043E+04  0.00000000000E+00 0.  1.
<mgrwt>
<rscale>  0 0.26588574E+04</rscale>
<asrwt>0</asrwt>
<pdfrwt beam="1">  1        2 0.18244579E+00 0.26588574E+04</pdfrwt>
<pdfrwt beam="2">  1       -2 0.22928177E+00 0.26588574E+04</pdfrwt>
<totfact> 0.14686538E+00</totfact>
</mgrwt>
</event>
<event>
 6    1  0.1603085E-006  0.1306330E+04  0.7818608E-02  0.9024561E-01
          1   -1    0    0  501    0  0.00000000000E+00  0.00000000000E+00  0.10512527931E+04  0.10512527931E+04  0.00000000000E+00 0. -1.
         -1   -1    0    0    0  501 -0.00000000000E+00 -0.00000000000E+00 -0.40582459948E+03  0.40582459948E+03  0.00000000000E+00 0.  1.
         23    2    1    2    0    0  0.63861869708E+03  0.10109844765E+03  0.24665198982E+03  0.69742141974E+03  0.86629649935E+02 0.  0.
         13    1    3    3    0    0  0.14057743556E+03  0.38440552953E+02  0.21667230640E+02  0.14734028771E+03  0.00000000000E+00 0.  1.
        -13    1    3    3    0    0  0.49804126153E+03  0.62657894701E+02  0.22498475919E+03  0.55008113203E+03  0.00000000000E+00 0. -1.
         22    1    1    2    0    0 -0.63861869708E+03 -0.10109844765E+03  0.39877620383E+03  0.75965597288E+03  0.00000000000E+00 0.  1.
<mgrwt>
<rscale>  0 0.13063296E+04</rscale>
<asrwt>0</asrwt>
<pdfrwt beam="1">  1        1 0.16173120E+00 0.13063296E+04</pdfrwt>
<pdfrwt beam="2">  1       -1 0.62434554E-01 0.13063296E+04</pdfrwt>
<totfact> 0.35287146E+01</totfact>
</mgrwt>
</event>
<event>
 6    1  0.1603085E-006  0.2066573E+04  0.7818608E-02  0.8576113E-01
         -1   -1    0    0    0  501 -0.00000000000E+00  0.00000000000E+00  0.45244817982E+03  0.45244817982E+03  0.00000000000E+00 0.  1.
          1   -1    0    0  501    0  0.00000000000E+00 -0.00000000000E+00 -0.23597873092E+04  0.23597873092E+04  0.00000000000E+00 0. -1.
         23    2    1    2    0    0 -0.79806308648E+03 -0.64915176784E+03 -0.10509289185E+04  0.14736761302E+04  0.94694442468E+02 0.  0.
         11    1    3    3    0    0 -0.45191178216E+03 -0.32026630624E+03 -0.60662217445E+03  0.82145311996E+03  0.00000000000E+00 0. -1.
        -11    1    3    3    0    0 -0.34615130432E+03 -0.32888546160E+03 -0.44430674405E+03  0.65222301028E+03  0.00000000000E+00 0.  1.
         22    1    1    2    0    0  0.79806308648E+03  0.64915176784E+03 -0.85641021092E+03  0.13385593588E+04  0.00000000000E+00 0.  1.
<mgrwt>
<rscale>  0 0.20665735E+04</rscale>
<asrwt>0</asrwt>
<pdfrwt beam="1">  1        1 0.36304420E+00 0.20665735E+04</pdfrwt>
<pdfrwt beam="2">  1       -1 0.69607412E-01 0.20665735E+04</pdfrwt>
<totfact> 0.32602473E+00</totfact>
</mgrwt>
</event>
<event>
 6    1  0.1603085E-006  0.2587891E+04  0.7818608E-02  0.8372326E-01
          2   -1    0    0  501    0  0.00000000000E+00  0.00000000000E+00  0.14250073340E+04  0.14250073340E+04  0.00000000000E+00 0. -1.
         -2   -1    0    0    0  501 -0.00000000000E+00 -0.00000000000E+00 -0.11749374232E+04  0.11749374232E+04  0.00000000000E+00 0.  1.
         23    2    1    2    0    0  0.10204024239E+04  0.35930687361E+03  0.83549810827E+03  0.13698843073E+04  0.90572568865E+02 0.  0.
         11    1    3    3    0    0  0.49015007564E+03  0.17129501631E+03  0.34403616087E+03  0.62285629101E+03  0.00000000000E+00 0. -1.
        -11    1    3    3    0    0  0.53025234824E+03  0.18801185730E+03  0.49146194741E+03  0.74702801624E+03  0.00000000000E+00 0.  1.
         22    1    1    2    0    0 -0.10204024239E+04 -0.35930687361E+03 -0.58542819751E+03  0.12300604499E+04  0.00000000000E+00 0.  1.
<mgrwt>
<rscale>  0 0.25878906E+04</rscale>
<asrwt>0</asrwt>
<pdfrwt beam="1">  1        2 0.21923190E+00 0.25878906E+04</pdfrwt>
<pdfrwt beam="2">  1       -2 0.18075960E+00 0.25878906E+04</pdfrwt>
<totfact> 0.22213428E+00</totfact>
</mgrwt>
</event>
<event>
 6    1  0.1603085E-006  0.3359270E+04  0.7818608E-02  0.8147976E-01
          1   -1    0    0  501    0  0.00000000000E+00  0.00000000000E+00  0.29567565670E+04  0.29567565670E+04  0.00000000000E+00 0. -1.
         -1   -1    0    0    0  501 -0.00000000000E+00 -0.00000000000E+00 -0.95414487061E+03  0.95414487061E+03  0.00000000000E+00 0.  1.
         23    2    1    2    0    0 -0.77813890464E+03 -0.78947592133E+02 -0.72684019929E+03  0.10715986133E+04  0.91071595639E+02 0.  0.
         13    1    3    3    0    0 -0.46722900814E+03 -0.24530409648E+01 -0.43195984056E+03  0.63631616930E+03  0.00000000000E+00 0. -1.
        -13    1    3    3    0    0 -0.31090989650E+03 -0.76494551169E+02 -0.29488035873E+03  0.43528244401E+03  0.00000000000E+00 0.  1.
         22    1    1    2    0    0  0.77813890464E+03  0.78947592133E+02  0.27294518957E+04  0.28393028243E+04  0.00000000000E+00 0. -1.
<mgrwt>
<rscale>  0 0.33592702E+04</rscale>
<asrwt>0</asrwt>
<pdfrwt beam="1">  1        1 0.45488562E+00 0.33592702E+04</pdfrwt>
<pdfrwt beam="2">  1       -1 0.14679152E+00 0.33592702E+04</pdfrwt>
<totfact> 0.19603644E-01</totfact>
</mgrwt>
</event>
<event>
 6    1  0.1603085E-006  0.1047576E+04  0.7818608E-02  0.9257850E-01
          1   -1    0    0  501    0  0.00000000000E+00  0.00000000000E+00  0.81803795225E+03  0.81803795225E+03  0.00000000000E+00 0. -1.
         -1   -1    0    0    0  501 -0.00000000000E+00 -0.00000000000E+00 -0.33538057830E+03  0.33538057830E+03  0.00000000000E+00 0.  1.
         23    2    1    2    0    0 -0.48755592016E+03  0.43499834606E+02  0.43481057663E+03  0.66159302602E+03  0.95089871364E+02 0.  0.
         11    1    3    3    0    0 -0.16678544147E+03 -0.19671106843E+02  0.18709292847E+03  0.25141221095E+03  0.00000000000E+00 0. -1.
        -11    1    3    3    0    0 -0.32077047869E+03  0.63170941449E+02  0.24771764815E+03  0.41018081507E+03  0.00000000000E+00 0.  1.
         22    1    1    2    0    0  0.48755592016E+03 -0.43499834606E+02  0.47846797329E+02  0.49182550453E+03  0.00000000000E+00 0.  1.
<mgrwt>
<rscale>  0 0.10475763E+04</rscale>
<asrwt>0</asrwt>
<pdfrwt beam="1">  1        1 0.12585199E+00 0.10475763E+04</pdfrwt>
<pdfrwt beam="2">  1       -1 0.51597012E-01 0.10475763E+04</pdfrwt>
<totfact> 0.80567262E+01</totfact>
</mgrwt>
</event>
<event>
 6    1  0.1603085E-006  0.3056011E+04  0.7818608E-02  0.8227915E-01
         -2   -1    0    0    0  501 -0.00000000000E+00  0.00000000000E+00  0.10072955913E+04  0.10072955913E+04  0.00000000000E+00 0.  1.
          2   -1    0    0  501    0  0.00000000000E+00 -0.00000000000E+00 -0.23178900768E+04  0.23178900768E+04  0.00000000000E+00 0. -1.
         23    2    1    2    0    0 -0.66009721216E+03  0.84386665753E+03 -0.18392853703E+04  0.21304667401E+04  0.89880989847E+02 0.  0.
         11    1    3    3    0    0 -0.29652562891E+03  0.31148378066E+03 -0.70780527267E+03  0.82821367909E+03  0.00000000000E+00 0. -1.
        -11    1    3    3    0    0 -0.36357158325E+03  0.53238287686E+03 -0.11314800976E+04  0.13022530610E+04  0.00000000000E+00 0.  1.
         22    1    1    2    0    0  0.66009721216E+03 -0.84386665753E+03  0.52869088483E+03  0.11947189280E+04  0.00000000000E+00 0.  1.
<mgrwt>
<rscale>  0 0.30560108E+04</rscale>
<asrwt>0</asrwt>
<pdfrwt beam="1">  1        2 0.35659847E+00 0.30560108E+04</pdfrwt>
<pdfrwt beam="2">  1       -2 0.15496856E+00 0.30560108E+04</pdfrwt>
<totfact> 0.10364443E+00</totfact>
</mgrwt>
</event>
<event>
 6    1  0.1603085E-006  0.2212986E+04  0.7818608E-02  0.8513043E-01
         -1   -1    0    0    0  501 -0.00000000000E+00  0.00000000000E+00  0.73311806048E+03  0.73311806048E+03  0.00000000000E+00 0.  1.
          1   -1    0    0  501    0  0.00000000000E+00 -0.00000000000E+00 -0.16700264224E+04  0.16700264224E+04  0.00000000000E+00 0. -1.
         23    2    1    2    0    0  0.63061656999E+03 -0.82182476789E+03 -0.88564579712E+03  0.13659843901E+04  0.92041667477E+02 0.  0.
         13    1    3    3    0    0  0.38571457480E+03 -0.43872968350E+03 -0.46654347376E+03  0.74761104948E+03  0.00000000000E+00 0.  1.
        -13    1    3    3    0    0  0.24490199519E+03 -0.38309508439E+03 -0.41910232336E+03  0.61837334061E+03  0.00000000000E+00 0. -1.
         22    1    1    2    0    0 -0.63061656999E+03  0.82182476789E+03 -0.51262564769E+02  0.10371600928E+04  0.00000000000E+00 0.  1.
<mgrwt>
<rscale>  0 0.22129858E+04</rscale>
<asrwt>0</asrwt>
<pdfrwt beam="1">  1        1 0.25692714E+00 0.22129858E+04</pdfrwt>
<pdfrwt beam="2">  1       -1 0.11278740E+00 0.22129858E+04</pdfrwt>
<totfact> 0.32716013E+00</totfact>
</mgrwt>
</event>
<event>
 6    1  0.1603085E-006  0.1742449E+04  0.7818608E-02  0.8737518E-01
          2   -1    0    0  501    0  0.00000000000E+00  0.00000000000E+00  0.28191980406E+04  0.28191980406E+04  0.00000000000E+00 0. -1.
         -2   -1    0    0    0  501 -0.00000000000E+00 -0.00000000000E+00 -0.26923684122E+03  0.26923684122E+03  0.00000000000E+00 0.  1.
         23    2    1    2    0    0  0.53615304643E+02 -0.36688621267E+03  0.26710102878E+04  0.26983926076E+04  0.97706771189E+02 0.  0.
         11    1    3    3    0    0 -0.22615808422E+02 -0.58266692457E+02  0.32649270589E+03  0.33242137302E+03  0.00000000000E+00 0. -1.
        -11    1    3    3    0    0  0.76231113065E+02 -0.30861952022E+03  0.23445175819E+04  0.23659712346E+04  0.00000000000E+00 0.  1.
         22    1    1    2    0    0 -0.53615304643E+02  0.36688621267E+03 -0.12104908837E+03  0.39004227430E+03  0.00000000000E+00 0.  1.
<mgrwt>
<rscale>  0 0.17424488E+04</rscale>
<asrwt>0</asrwt>
<pdfrwt beam="1">  1        2 0.43372275E+00 0.17424488E+04</pdfrwt>
<pdfrwt beam="2">  1       -2 0.41421055E-01 0.17424488E+04</pdfrwt>
<totfact> 0.11826418E+01</totfact>
</mgrwt>
</event>
<event>
 6    1  0.1603085E-006  0.2567487E+04  0.7818608E-02  0.8379330E-01
          2   -1    0    0  501    0  0.00000000000E+00  0.00000000000E+00  0.47496540245E+04  0.47496540245E+04  0.00000000000E+00 0. -1.
         -2   -1    0    0    0  501 -0.00000000000E+00 -0.00000000000E+00 -0.34697211278E+03  0.34697211278E+03  0.00000000000E+00 0.  1.
         23    2    1    2    0    0 -0.27853819473E+03 -0.10938707550E+04  0.34111649600E+04  0.35942138703E+04  0.90499760754E+02 0.  0.
         13    1    3    3    0    0 -0.25504760833E+03 -0.10223701529E+04  0.32452255615E+04  0.34120051227E+04  0.00000000000E+00 0. -1.
        -13    1    3    3    0    0 -0.23490586393E+02 -0.71500602046E+02  0.16593939848E+03  0.18220874762E+03  0.00000000000E+00 0.  1.
         22    1    1    2    0    0  0.27853819473E+03  0.10938707550E+04  0.99151695177E+03  0.15024122670E+04  0.00000000000E+00 0.  1.
<mgrwt>
<rscale>  0 0.25674871E+04</rscale>
<asrwt>0</asrwt>
<pdfrwt beam="1">  1        2 0.73071596E+00 0.25674871E+04</pdfrwt>
<pdfrwt beam="2">  1       -2 0.53380329E-01 0.25674871E+04</pdfrwt>
<totfact> 0.20003266E-01</totfact>
</mgrwt>
</event>
<event>
 6    1  0.1603085E-006  0.1158645E+04  0.7818608E-02  0.9149845E-01
          2   -1    0    0  501    0  0.00000000000E+00  0.00000000000E+00  0.16593963917E+04  0.16593963917E+04  0.00000000000E+00 0. -1.
         -2   -1    0    0    0  501 -0.00000000000E+00 -0.00000000000E+00 -0.20225093811E+03  0.20225093811E+03  0.00000000000E+00 0.  1.
         23    2    1    2    0    0 -0.49341369692E+03 -0.32147885836E+02  0.25886419476E+03  0.56535703124E+03  0.90151753031E+02 0.  0.
         13    1    3    3    0    0 -0.28028372203E+03 -0.41096498776E+02  0.19040282255E+03  0.34132260675E+03  0.00000000000E+00 0. -1.
        -13    1    3    3    0    0 -0.21312997489E+03  0.89486129399E+01  0.68461372206E+02  0.22403442449E+03  0.00000000000E+00 0.  1.
         22    1    1    2    0    0  0.49341369692E+03  0.32147885836E+02  0.11982812588E+04  0.12962902985E+04  0.00000000000E+00 0. -1.
<mgrwt>
<rscale>  0 0.11586449E+04</rscale>
<asrwt>0</asrwt>
<pdfrwt beam="1">  1        2 0.25529174E+00 0.11586449E+04</pdfrwt>
<pdfrwt beam="2">  1       -2 0.31115530E-01 0.11586449E+04</pdfrwt>
<totfact> 0.97856757E+01</totfact>
</mgrwt>
</event>
<event>
 6    1  0.1603085E-006  0.1302076E+04  0.7818608E-02  0.9027921E-01
          1   -1    0    0  501    0  0.00000000000E+00  0.00000000000E+00  0.14568529082E+04  0.14568529082E+04  0.00000000000E+00 0. -1.
         -1   -1    0    0    0  501 -0.00000000000E+00 -0.00000000000E+00 -0.29093558006E+03  0.29093558006E+03  0.00000000000E+00 0.  1.
         23    2    1    2    0    0  0.92227089804E+02 -0.39784488988E+03 -0.88464030094E+02  0.42859972830E+03  0.95317626840E+02 0.  0.
         11    1    3    3    0    0  0.17241240004E+02 -0.76259085969E+01 -0.15916614940E+02  0.24672929902E+02  0.00000000000E+00 0. -1.
        -11    1    3    3    0    0  0.74985849800E+02 -0.39021898128E+03 -0.72547415154E+02  0.40392679840E+03  0.00000000000E+00 0.  1.
         22    1    1    2    0    0 -0.92227089804E+02  0.39784488988E+03  0.12543813582E+04  0.13191887599E+04  0.00000000000E+00 0. -1.
<mgrwt>
<rscale>  0 0.13020758E+04</rscale>
<asrwt>0</asrwt>
<pdfrwt beam="1">  1        1 0.22413121E+00 0.13020758E+04</pdfrwt>
<pdfrwt beam="2">  1       -1 0.44759321E-01 0.13020758E+04</pdfrwt>
<totfact> 0.34058672E+01</totfact>
</mgrwt>
</event>
<event>
 6    1  0.1603085E-006  0.2354582E+04  0.7818608E-02  0.8456706E-01
          2   -1    0    0  501    0  0.00000000000E+00  0.00000000000E+00  0.10861800163E+04  0.10861800163E+04  0.00000000000E+00 0. -1.
         -2   -1    0    0    0  501 -0.00000000000E+00 -0.00000000000E+00 -0.12760445335E+04  0.12760445335E+04  0.00000000000E+00 0.  1.
         23    2    1    2    0    0 -0.15280777654E+03  0.73504084043E+03 -0.10023690957E+04  0.12559700837E+04  0.95298445150E+02 0.  0.
         13    1    3    3    0    0 -0.21484469621E+02  0.24936790933E+03 -0.27866116920E+03  0.37456372470E+03  0.00000000000E+00 0.  1.
        -13    1    3    3    0    0 -0.13132330691E+03  0.48567293110E+03 -0.72370792646E+03  0.88140635904E+03  0.00000000000E+00 0. -1.
         22    1    1    2    0    0  0.15280777654E+03 -0.73504084043E+03  0.81250457842E+03  0.11062544660E+04  0.00000000000E+00 0. -1.
<mgrwt>
<rscale>  0 0.23545820E+04</rscale>
<asrwt>0</asrwt>
<pdfrwt beam="1">  1        2 0.16710462E+00 0.23545820E+04</pdfrwt>
<pdfrwt beam="2">  1       -2 0.19631454E+00 0.23545820E+04</pdfrwt>
<totfact> 0.28206563E+00</totfact>
</mgrwt>
</event>
<event>
 6    1  0.1603085E-006  0.1091603E+04  0.7818608E-02  0.9213415E-01
          1   -1    0    0  501    0  0.00000000000E+00  0.00000000000E+00  0.48317455432E+03  0.48317455432E+03  0.00000000000E+00 0. -1.
         -1   -1    0    0    0  501 -0.00000000000E+00 -0.00000000000E+00 -0.61654584578E+03  0.61654584578E+03  0.00000000000E+00 0.  1.
         23    2    1    2    0    0 -0.76081434830E+02 -0.14670716237E+03 -0.58713450942E+03  0.61679966729E+03  0.91670721632E+02 0.  0.
         13    1    3    3    0    0 -0.93502484431E+02 -0.10288919476E+03 -0.48040040319E+03  0.50011343551E+03  0.00000000000E+00 0.  1.
        -13    1    3    3    0    0  0.17421049601E+02 -0.43817967615E+02 -0.10673410623E+03  0.11668623178E+03  0.00000000000E+00 0. -1.
         22    1    1    2    0    0  0.76081434830E+02  0.14670716237E+03  0.45376321795E+03  0.48292073282E+03  0.00000000000E+00 0. -1.
<mgrwt>
<rscale>  0 0.10916030E+04</rscale>
<asrwt>0</asrwt>
<pdfrwt beam="1">  1        1 0.74334546E-01 0.10916030E+04</pdfrwt>
<pdfrwt beam="2">  1       -1 0.94853208E-01 0.10916030E+04</pdfrwt>
<totfact> 0.49806887E+01</totfact>
</mgrwt>
</event>
<event>
 6    1  0.1603085E-006  0.3034519E+04  0.7818608E-02  0.8233942E-01
         -2   -1    0    0    0  501 -0.00000000000E+00  0.00000000000E+00  0.12365574980E+04  0.12365574980E+04  0.00000000000E+00 0.  1.
          2   -1    0    0  501    0  0.00000000000E+00 -0.00000000000E+00 -0.18616811307E+04  0.18616811307E+04  0.00000000000E+00 0. -1.
         23    2    1    2    0    0  0.96448278575E+03  0.87175689313E+03 -0.11089010966E+04  0.17110732602E+04  0.89010871034E+02 0.  0.
         11    1    3    3    0    0  0.54808622632E+03  0.43556995261E+03 -0.59600834262E+03  0.91942679946E+03  0.00000000000E+00 0.  1.
        -11    1    3    3    0    0  0.41639655943E+03  0.43618694052E+03 -0.51289275398E+03  0.79164646078E+03  0.00000000000E+00 0. -1.
         22    1    1    2    0    0 -0.96448278575E+03 -0.87175689313E+03  0.48377746394E+03  0.13871653684E+04  0.00000000000E+00 0.  1.
<mgrwt>
<rscale>  0 0.30345186E+04</rscale>
<asrwt>0</asrwt>
<pdfrwt beam="1">  1        2 0.28641248E+00 0.30345186E+04</pdfrwt>
<pdfrwt beam="2">  1       -2 0.19023962E+00 0.30345186E+04</pdfrwt>
<totfact> 0.10513246E+00</totfact>
</mgrwt>
</event>
<event>
 6    1  0.1603085E-006  0.2864851E+04  0.7818608E-02  0.8283413E-01
         -1   -1    0    0    0  501 -0.00000000000E+00  0.00000000000E+00  0.11420972558E+04  0.11420972558E+04  0.00000000000E+00 0.  1.
          1   -1    0    0  501    0  0.00000000000E+00 -0.00000000000E+00 -0.17965567822E+04  0.17965567822E+04  0.00000000000E+00 0. -1.
         23    2    1    2    0    0 -0.54575429594E+02 -0.59222479930E+03  0.10074055456E+04  0.11735749440E+04  0.93292687401E+02 0.  0.
         13    1    3    3    0    0 -0.65939909752E+02 -0.38979323557E+03  0.72716909692E+03  0.82768456172E+03  0.00000000000E+00 0. -1.
        -13    1    3    3    0    0  0.11364480158E+02 -0.20243156373E+03  0.28023644867E+03  0.34589038230E+03  0.00000000000E+00 0.  1.
         22    1    1    2    0    0  0.54575429594E+02  0.59222479930E+03 -0.16618650720E+04  0.17650790940E+04  0.00000000000E+00 0. -1.
<mgrwt>
<rscale>  0 0.28648508E+04</rscale>
<asrwt>0</asrwt>
<pdfrwt beam="1">  1        1 0.27639335E+00 0.28648508E+04</pdfrwt>
<pdfrwt beam="2">  1       -1 0.17570727E+00 0.28648508E+04</pdfrwt>
<totfact> 0.78826854E-01</totfact>
</mgrwt>
</event>
<event>
 6    1  0.1603085E-006  0.1107837E+04  0.7818608E-02  0.9197587E-01
         -1   -1    0    0    0  501 -0.00000000000E+00  0.00000000000E+00  0.27060140578E+03  0.27060140578E+03  0.00000000000E+00 0.  1.
          1   -1    0    0  501    0  0.00000000000E+00 -0.00000000000E+00 -0.11338663669E+04  0.11338663669E+04  0.00000000000E+00 0. -1.
         23    2    1    2    0    0  0.72564892424E+02 -0.52136948048E+03 -0.63719688991E+03  0.83158159585E+03  0.91740259714E+02 0.  0.
         11    1    3    3    0    0  0.80361634156E+02 -0.24830813965E+03 -0.30089521589E+03  0.39831250973E+03  0.00000000000E+00 0.  1.
        -11    1    3    3    0    0 -0.77967417324E+01 -0.27306134083E+03 -0.33630167402E+03  0.43326908612E+03  0.00000000000E+00 0. -1.
         22    1    1    2    0    0 -0.72564892424E+02  0.52136948048E+03 -0.22606807119E+03  0.57288617683E+03  0.00000000000E+00 0.  1.
<mgrwt>
<rscale>  0 0.11078372E+04</rscale>
<asrwt>0</asrwt>
<pdfrwt beam="1">  1        1 0.17444098E+00 0.11078372E+04</pdfrwt>
<pdfrwt beam="2">  1       -1 0.41630986E-01 0.11078372E+04</pdfrwt>
<totfact> 0.67358228E+01</totfact>
</mgrwt>
</event>
<event>
 6    1  0.1832687E-006  0.4499515E+04  0.7818608E-02  0.7910722E-01
         -2   -1    0    0    0  501 -0.00000000000E+00  0.00000000000E+00  0.15653642452E+04  0.15653642452E+04  0.00000000000E+00 0.  1.
          2   -1    0    0  501    0  0.00000000000E+00 -0.00000000000E+00 -0.32333738293E+04  0.32333738293E+04  0.00000000000E+00 0. -1.
         23    2    1    2    0    0 -0.11955952357E+04 -0.16429778926E+04  0.19324863452E+03  0.20431788790E+04  0.91709180294E+02 0.  0.
         11    1    3    3    0    0 -0.22350380915E+03 -0.29154264882E+03  0.69306774306E+02  0.37383752854E+03  0.00000000000E+00 0.  1.
        -11    1    3    3    0    0 -0.97209142656E+03 -0.13514352438E+04  0.12394186022E+03  0.16693413505E+04  0.00000000000E+00 0. -1.
         22    1    1    2    0    0  0.11955952357E+04  0.16429778926E+04 -0.18612582186E+04  0.27555591954E+04  0.00000000000E+00 0. -1.
<mgrwt>
<rscale>  0 0.44995145E+04</rscale>
<asrwt>0</asrwt>
<pdfrwt beam="1">  1        2 0.49744212E+00 0.44995145E+04</pdfrwt>
<pdfrwt beam="2">  1       -2 0.24082527E+00 0.44995145E+04</pdfrwt>
<totfact> 0.68328659E-02</totfact>
</mgrwt>
</event>
<event>
 6    1  0.1603085E-006  0.2219725E+04  0.7818608E-02  0.8510263E-01
          2   -1    0    0  501    0  0.00000000000E+00  0.00000000000E+00  0.12194133730E+04  0.12194133730E+04  0.00000000000E+00 0. -1.
         -2   -1    0    0    0  501 -0.00000000000E+00 -0.00000000000E+00 -0.10101540017E+04  0.10101540017E+04  0.00000000000E+00 0.  1.
         23    2    1    2    0    0  0.60789933395E+03 -0.63258572667E+03 -0.57502785060E+03  0.10527867035E+04  0.89423220420E+02 0.  0.
         13    1    3    3    0    0  0.28901957257E+03 -0.23826549794E+03 -0.25489380857E+03  0.45307131280E+03  0.00000000000E+00 0. -1.
        -13    1    3    3    0    0  0.31887976138E+03 -0.39432022873E+03 -0.32013404204E+03  0.59971539073E+03  0.00000000000E+00 0.  1.
         22    1    1    2    0    0 -0.60789933395E+03  0.63258572667E+03  0.78428722189E+03  0.11767806713E+04  0.00000000000E+00 0. -1.
<mgrwt>
<rscale>  0 0.22197255E+04</rscale>
<asrwt>0</asrwt>
<pdfrwt beam="1">  1        2 0.18760206E+00 0.22197255E+04</pdfrwt>
<pdfrwt beam="2">  1       -2 0.15540831E+00 0.22197255E+04</pdfrwt>
<totfact> 0.45878749E+00</totfact>
</mgrwt>
</event>
<event>
 6    1  0.1603085E-006  0.1643282E+04  0.7818608E-02  0.8794391E-01
          1   -1    0    0  501    0  0.00000000000E+00  0.00000000000E+00  0.27654157403E+04  0.27654157403E+04  0.00000000000E+00 0.  1.
         -1   -1    0    0    0  501 -0.00000000000E+00 -0.00000000000E+00 -0.24412029918E+03  0.24412029918E+03  0.00000000000E+00 0. -1.
         23    2    1    2    0    0  0.35412481447E+03  0.68835693481E+03  0.77406862577E+03  0.10985045907E+04  0.91051877838E+02 0.  0.
         11    1    3    3    0    0  0.11824914660E+03  0.25513150559E+03  0.34194841967E+03  0.44272301446E+03  0.00000000000E+00 0. -1.
        -11    1    3    3    0    0  0.23587566787E+03  0.43322542922E+03  0.43212020611E+03  0.65578157624E+03  0.00000000000E+00 0.  1.
         22    1    1    2    0    0 -0.35412481447E+03 -0.68835693481E+03  0.17472268154E+04  0.19110314488E+04  0.00000000000E+00 0. -1.
<mgrwt>
<rscale>  0 0.16432822E+04</rscale>
<asrwt>0</asrwt>
<pdfrwt beam="1">  1        1 0.42544856E+00 0.16432822E+04</pdfrwt>
<pdfrwt beam="2">  1       -1 0.37556971E-01 0.16432822E+04</pdfrwt>
<totfact> 0.57798938E+00</totfact>
</mgrwt>
</event>
<event>
 6    1  0.1603085E-006  0.1339083E+04  0.7818608E-02  0.8999134E-01
          2   -1    0    0  501    0  0.00000000000E+00  0.00000000000E+00  0.39344671509E+04  0.39344671509E+04  0.00000000000E+00 0. -1.
         -2   -1    0    0    0  501 -0.00000000000E+00 -0.00000000000E+00 -0.11393811821E+03  0.11393811821E+03  0.00000000000E+00 0.  1.
         23    2    1    2    0    0  0.54747898083E+03  0.21250025404E+03  0.28718164792E+04  0.29326341897E+04  0.90132170335E+02 0.  0.
         13    1    3    3    0    0  0.44020779821E+03  0.13093665635E+03  0.22450005888E+04  0.22914962267E+04  0.00000000000E+00 0.  1.
        -13    1    3    3    0    0  0.10727118262E+03  0.81563597682E+02  0.62681589044E+03  0.64113796300E+03  0.00000000000E+00 0. -1.
         22    1    1    2    0    0 -0.54747898083E+03 -0.21250025404E+03  0.94871255348E+03  0.11157710794E+04  0.00000000000E+00 0.  1.
<mgrwt>
<rscale>  0 0.13390829E+04</rscale>
<asrwt>0</asrwt>
<pdfrwt beam="1">  1        2 0.60530254E+00 0.13390829E+04</pdfrwt>
<pdfrwt beam="2">  1       -2 0.17528944E-01 0.13390829E+04</pdfrwt>
<totfact> 0.10457914E+01</totfact>
</mgrwt>
</event>
<event>
 6    1  0.1603085E-006  0.2529099E+04  0.7818608E-02  0.8392692E-01
         -2   -1    0    0    0  501 -0.00000000000E+00  0.00000000000E+00  0.65624021542E+03  0.65624021542E+03  0.00000000000E+00 0.  1.
          2   -1    0    0  501    0  0.00000000000E+00 -0.00000000000E+00 -0.24367376840E+04  0.24367376840E+04  0.00000000000E+00 0. -1.
         23    2    1    2    0    0  0.32835873375E+03 -0.76174013227E+03 -0.20560065190E+04  0.22189225670E+04  0.91580920137E+02 0.  0.
         11    1    3    3    0    0  0.20969407468E+03 -0.56708359640E+03 -0.14231917639E+04  0.15462956402E+04  0.00000000000E+00 0.  1.
        -11    1    3    3    0    0  0.11866465908E+03 -0.19465653587E+03 -0.63281475515E+03  0.67262692676E+03  0.00000000000E+00 0. -1.
         22    1    1    2    0    0 -0.32835873375E+03  0.76174013227E+03  0.27550905049E+03  0.87405533237E+03  0.00000000000E+00 0.  1.
<mgrwt>
<rscale>  0 0.25290989E+04</rscale>
<asrwt>0</asrwt>
<pdfrwt beam="1">  1        2 0.37488272E+00 0.25290989E+04</pdfrwt>
<pdfrwt beam="2">  1       -2 0.10096003E+00 0.25290989E+04</pdfrwt>
<totfact> 0.27200640E+00</totfact>
</mgrwt>
</event>
<event>
 6    1  0.1603085E-006  0.2801168E+03  0.7818608E-02  0.1095625E+00
         -1   -1    0    0    0  501 -0.00000000000E+00  0.00000000000E+00  0.40037545363E+02  0.40037545363E+02  0.00000000000E+00 0.  1.
          1   -1    0    0  501    0  0.00000000000E+00 -0.00000000000E+00 -0.48994902460E+03  0.48994902460E+03  0.00000000000E+00 0. -1.
         23    2    1    2    0    0 -0.59237277060E+02 -0.86956665699E+02 -0.12038225309E+03  0.18406746441E+03  0.91205415912E+02 0.  0.
         13    1    3    3    0    0  0.22336361704E+02 -0.13144922240E+02 -0.87924847611E+01  0.27368043831E+02  0.00000000000E+00 0.  1.
        -13    1    3    3    0    0 -0.81573638763E+02 -0.73811743459E+02 -0.11158976833E+03  0.15669942058E+03  0.00000000000E+00 0. -1.
         22    1    1    2    0    0  0.59237277060E+02  0.86956665699E+02 -0.32952922614E+03  0.34591910555E+03  0.00000000000E+00 0. -1.
<mgrwt>
<rscale>  0 0.28011681E+03</rscale>
<asrwt>0</asrwt>
<pdfrwt beam="1">  1        1 0.75376772E-01 0.28011681E+03</pdfrwt>
<pdfrwt beam="2">  1       -1 0.61596224E-02 0.28011681E+03</pdfrwt>
<totfact> 0.59338164E+03</totfact>
</mgrwt>
</event>
<event>
 6    1  0.1603085E-006  0.3089979E+04  0.7818608E-02  0.8218493E-01
          1   -1    0    0  501    0  0.00000000000E+00  0.00000000000E+00  0.16378459251E+04  0.16378459251E+04  0.00000000000E+00 0. -1.
         -1   -1    0    0    0  501 -0.00000000000E+00 -0.00000000000E+00 -0.14573977495E+04  0.14573977495E+04  0.00000000000E+00 0.  1.
         23    2    1    2    0    0 -0.35355904086E+03 -0.33369240008E+03 -0.13772747912E+04  0.14634178706E+04  0.91385995427E+02 0.  0.
         13    1    3    3    0    0 -0.20656214938E+03 -0.16754125047E+03 -0.87023419888E+03  0.90997008361E+03  0.00000000000E+00 0. -1.
        -13    1    3    3    0    0 -0.14699689148E+03 -0.16615114961E+03 -0.50704059232E+03  0.55344778695E+03  0.00000000000E+00 0.  1.
         22    1    1    2    0    0  0.35355904086E+03  0.33369240008E+03  0.15577229669E+04  0.16318258040E+04  0.00000000000E+00 0. -1.
<mgrwt>
<rscale>  0 0.30899793E+04</rscale>
<asrwt>0</asrwt>
<pdfrwt beam="1">  1        1 0.25197630E+00 0.30899793E+04</pdfrwt>
<pdfrwt beam="2">  1       -1 0.22421504E+00 0.30899793E+04</pdfrwt>
<totfact> 0.45784647E-01</totfact>
</mgrwt>
</event>
<event>
 6    1  0.1603085E-006  0.2623179E+04  0.7818608E-02  0.8360370E-01
          1   -1    0    0  501    0  0.00000000000E+00  0.00000000000E+00  0.17727849175E+04  0.17727849175E+04  0.00000000000E+00 0. -1.
         -1   -1    0    0    0  501 -0.00000000000E+00 -0.00000000000E+00 -0.97037536312E+03  0.97037536312E+03  0.00000000000E+00 0.  1.
         23    2    1    2    0    0  0.44448212909E+03 -0.11456795822E+04 -0.72899460710E+02  0.12344151265E+04  0.91215705338E+02 0.  0.
         13    1    3    3    0    0  0.36885984291E+03 -0.84927872937E+03 -0.40486453085E+02  0.92680693608E+03  0.00000000000E+00 0. -1.
        -13    1    3    3    0    0  0.75622286174E+02 -0.29640085285E+03 -0.32413007624E+02  0.30760819040E+03  0.00000000000E+00 0.  1.
         22    1    1    2    0    0 -0.44448212909E+03  0.11456795822E+04  0.87530901507E+03  0.15087451541E+04  0.00000000000E+00 0. -1.
<mgrwt>
<rscale>  0 0.26231788E+04</rscale>
<asrwt>0</asrwt>
<pdfrwt beam="1">  1        1 0.27273614E+00 0.26231788E+04</pdfrwt>
<pdfrwt beam="2">  1       -1 0.14928852E+00 0.26231788E+04</pdfrwt>
<totfact> 0.13206060E+00</totfact>
</mgrwt>
</event>
<event>
 6    1  0.1603085E-006  0.3058383E+04  0.7818608E-02  0.8227253E-01
         -2   -1    0    0    0  501 -0.00000000000E+00  0.00000000000E+00  0.17678848712E+04  0.17678848712E+04  0.00000000000E+00 0.  1.
          2   -1    0    0  501    0  0.00000000000E+00 -0.00000000000E+00 -0.13227258461E+04  0.13227258461E+04  0.00000000000E+00 0. -1.
         23    2    1    2    0    0 -0.28424037539E+03 -0.26787665830E+03 -0.12698778477E+04  0.13316616077E+04  0.90456587279E+02 0.  0.
         13    1    3    3    0    0 -0.24983694236E+03 -0.25928938387E+03 -0.10782777196E+04  0.11368079534E+04  0.00000000000E+00 0. -1.
        -13    1    3    3    0    0 -0.34403433028E+02 -0.85872744238E+01 -0.19160012813E+03  0.19485365428E+03  0.00000000000E+00 0.  1.
         22    1    1    2    0    0  0.28424037539E+03  0.26787665830E+03  0.17150368729E+04  0.17589491096E+04  0.00000000000E+00 0.  1.
<mgrwt>
<rscale>  0 0.30583832E+04</rscale>
<asrwt>0</asrwt>
<pdfrwt beam="1">  1        2 0.20349628E+00 0.30583832E+04</pdfrwt>
<pdfrwt beam="2">  1       -2 0.27198229E+00 0.30583832E+04</pdfrwt>
<totfact> 0.64387487E-01</totfact>
</mgrwt>
</event>
<event>
 6    1  0.1603085E-006  0.3618650E+03  0.7818608E-02  0.1057848E+00
         -3   -1    0    0    0  501 -0.00000000000E+00  0.00000000000E+00  0.77279382302E+02  0.77279382302E+02  0.00000000000E+00 0.  1.
          3   -1    0    0  501    0  0.00000000000E+00 -0.00000000000E+00 -0.42361326066E+03  0.42361326066E+03  0.00000000000E+00 0. -1.
         23    2    1    2    0    0  0.10084079194E+03  0.89391546001E+02 -0.32644552198E+03  0.36467494758E+03  0.90892380106E+02 0.  0.
         13    1    3    3    0    0  0.44188950431E+02  0.95801848766E+02 -0.20853209309E+03  0.23370128672E+03  0.00000000000E+00 0. -1.
        -13    1    3    3    0    0  0.56651841504E+02 -0.64103027651E+01 -0.11791342889E+03  0.13097366086E+03  0.00000000000E+00 0.  1.
         22    1    1    2    0    0 -0.10084079194E+03 -0.89391546001E+02 -0.19888356379E+02  0.13621769538E+03  0.00000000000E+00 0.  1.
<mgrwt>
<rscale>  0 0.36186501E+03</rscale>
<asrwt>0</asrwt>
<pdfrwt beam="1">  1        3 0.65171271E-01 0.36186501E+03</pdfrwt>
<pdfrwt beam="2">  1       -3 0.11889136E-01 0.36186501E+03</pdfrwt>
<totfact> 0.33148155E+02</totfact>
</mgrwt>
</event>
<event>
 6    1  0.1603085E-006  0.2642659E+04  0.7818608E-02  0.8353854E-01
          3   -1    0    0  501    0  0.00000000000E+00  0.00000000000E+00  0.87451932291E+03  0.87451932291E+03  0.00000000000E+00 0. -1.
         -3   -1    0    0    0  501 -0.00000000000E+00 -0.00000000000E+00 -0.19964247994E+04  0.19964247994E+04  0.00000000000E+00 0.  1.
         23    2    1    2    0    0 -0.74331654297E+03  0.93577023134E+03 -0.11700054800E+04  0.16749094157E+04  0.90682517113E+02 0.  0.
         13    1    3    3    0    0 -0.18709900301E+03  0.26370352907E+03 -0.36834666551E+03  0.49012738565E+03  0.00000000000E+00 0. -1.
        -13    1    3    3    0    0 -0.55621753995E+03  0.67206670227E+03 -0.80165881444E+03  0.11847820301E+04  0.00000000000E+00 0.  1.
         22    1    1    2    0    0  0.74331654297E+03 -0.93577023134E+03  0.48100003494E+02  0.11960347065E+04  0.00000000000E+00 0. -1.
<mgrwt>
<rscale>  0 0.26426593E+04</rscale>
<asrwt>0</asrwt>
<pdfrwt beam="1">  1        3 0.13454143E+00 0.26426593E+04</pdfrwt>
<pdfrwt beam="2">  1       -3 0.30714228E+00 0.26426593E+04</pdfrwt>
<totfact> 0.33936761E-02</totfact>
</mgrwt>
</event>
<event>
 6    1  0.1603085E-006  0.2355334E+04  0.7818608E-02  0.8456418E-01
          2   -1    0    0  501    0  0.00000000000E+00  0.00000000000E+00  0.46803697162E+04  0.46803697162E+04  0.00000000000E+00 0. -1.
         -2   -1    0    0    0  501 -0.00000000000E+00 -0.00000000000E+00 -0.29632264106E+03  0.29632264106E+03  0.00000000000E+00 0.  1.
         23    2    1    2    0    0  0.10257422089E+04 -0.20975400702E+03  0.33264435101E+04  0.34885159149E+04  0.91504319480E+02 0.  0.
         13    1    3    3    0    0  0.21648579314E+03 -0.10202615340E+02  0.74071128189E+03  0.77176641227E+03  0.00000000000E+00 0. -1.
        -13    1    3    3    0    0  0.80925641577E+03 -0.19955139168E+03  0.25857322282E+04  0.27167495027E+04  0.00000000000E+00 0.  1.
         22    1    1    2    0    0 -0.10257422089E+04  0.20975400702E+03  0.10576035650E+04  0.14881764423E+04  0.00000000000E+00 0.  1.
<mgrwt>
<rscale>  0 0.23553340E+04</rscale>
<asrwt>0</asrwt>
<pdfrwt beam="1">  1        2 0.72005682E+00 0.23553340E+04</pdfrwt>
<pdfrwt beam="2">  1       -2 0.45588102E-01 0.23553340E+04</pdfrwt>
<totfact> 0.33504502E-01</totfact>
</mgrwt>
</event>
<event>
 6    1  0.1603085E-006  0.4583474E+04  0.7818608E-02  0.7896184E-01
          1   -1    0    0  501    0  0.00000000000E+00  0.00000000000E+00  0.43578098048E+04  0.43578098048E+04  0.00000000000E+00 0. -1.
         -1   -1    0    0    0  501 -0.00000000000E+00 -0.00000000000E+00 -0.12052060194E+04  0.12052060194E+04  0.00000000000E+00 0.  1.
         23    2    1    2    0    0 -0.15670218850E+03  0.67441796755E+03  0.42272942676E+04  0.42845969558E+04  0.91427991205E+02 0.  0.
         11    1    3    3    0    0 -0.75595680874E+02  0.21223110212E+03  0.15899401615E+04  0.16058226754E+04  0.00000000000E+00 0.  1.
        -11    1    3    3    0    0 -0.81106507623E+02  0.46218686543E+03  0.26373541061E+04  0.26787742804E+04  0.00000000000E+00 0. -1.
         22    1    1    2    0    0  0.15670218850E+03 -0.67441796755E+03 -0.10746904822E+04  0.12784188685E+04  0.00000000000E+00 0.  1.
<mgrwt>
<rscale>  0 0.45834741E+04</rscale>
<asrwt>0</asrwt>
<pdfrwt beam="1">  1        1 0.67043227E+00 0.45834741E+04</pdfrwt>
<pdfrwt beam="2">  1       -1 0.18541631E+00 0.45834741E+04</pdfrwt>
<totfact> 0.63172860E-03</totfact>
</mgrwt>
</event>
<event>
 6    1  0.1603085E-006  0.1913246E+04  0.7818608E-02  0.8648291E-01
          1   -1    0    0  501    0  0.00000000000E+00  0.00000000000E+00  0.13585885164E+04  0.13585885164E+04  0.00000000000E+00 0. -1.
         -1   -1    0    0    0  501 -0.00000000000E+00 -0.00000000000E+00 -0.67358722583E+03  0.67358722583E+03  0.00000000000E+00 0.  1.
         23    2    1    2    0    0  0.34496508884E+03  0.82773303094E+03 -0.38110890148E+01  0.90142140229E+03  0.91668626502E+02 0.  0.
         11    1    3    3    0    0  0.14966553102E+03  0.36034199714E+03  0.43787933394E+02  0.39263661214E+03  0.00000000000E+00 0. -1.
        -11    1    3    3    0    0  0.19529955782E+03  0.46739103379E+03 -0.47599022408E+02  0.50878479015E+03  0.00000000000E+00 0.  1.
         22    1    1    2    0    0 -0.34496508884E+03 -0.82773303094E+03  0.68881237959E+03  0.11307543399E+04  0.00000000000E+00 0. -1.
<mgrwt>
<rscale>  0 0.19132463E+04</rscale>
<asrwt>0</asrwt>
<pdfrwt beam="1">  1        1 0.20901362E+00 0.19132463E+04</pdfrwt>
<pdfrwt beam="2">  1       -1 0.10362880E+00 0.19132463E+04</pdfrwt>
<totfact> 0.67415922E+00</totfact>
</mgrwt>
</event>
<event>
 6    1  0.1603085E-006  0.2452702E+04  0.7818608E-02  0.8420032E-01
         -1   -1    0    0    0  501 -0.00000000000E+00  0.00000000000E+00  0.21004126794E+04  0.21004126794E+04  0.00000000000E+00 0.  1.
          1   -1    0    0  501    0  0.00000000000E+00 -0.00000000000E+00 -0.71601990442E+03  0.71601990442E+03  0.00000000000E+00 0. -1.
         23    2    1    2    0    0 -0.74091433189E+03  0.94619023467E+03  0.42330168849E+03  0.12776258760E+04  0.94411610910E+02 0.  0.
         11    1    3    3    0    0 -0.28491151573E+03  0.42807642349E+03  0.20701333305E+03  0.55432708413E+03  0.00000000000E+00 0.  1.
        -11    1    3    3    0    0 -0.45600281616E+03  0.51811381118E+03  0.21628835544E+03  0.72329879192E+03  0.00000000000E+00 0. -1.
         22    1    1    2    0    0  0.74091433189E+03 -0.94619023467E+03  0.96109108654E+03  0.15388067078E+04  0.00000000000E+00 0. -1.
<mgrwt>
<rscale>  0 0.24527024E+04</rscale>
<asrwt>0</asrwt>
<pdfrwt beam="1">  1        1 0.11015691E+00 0.24527024E+04</pdfrwt>
<pdfrwt beam="2">  1       -1 0.32314041E+00 0.24527024E+04</pdfrwt>
<totfact> 0.54820945E-01</totfact>
</mgrwt>
</event>
<event>
 6    1  0.1603085E-006  0.2586145E+04  0.7818608E-02  0.8372923E-01
         -1   -1    0    0    0  501 -0.00000000000E+00  0.00000000000E+00  0.55955233027E+03  0.55955233027E+03  0.00000000000E+00 0.  1.
          1   -1    0    0  501    0  0.00000000000E+00 -0.00000000000E+00 -0.29881690729E+04  0.29881690729E+04  0.00000000000E+00 0. -1.
         23    2    1    2    0    0 -0.10550954760E+04 -0.47448689329E+03 -0.20030208304E+04  0.23150429553E+04  0.94695103325E+02 0.  0.
         13    1    3    3    0    0 -0.60217863364E+03 -0.22936682563E+03 -0.11689154059E+04  0.13347627031E+04  0.00000000000E+00 0. -1.
        -13    1    3    3    0    0 -0.45291684234E+03 -0.24512006766E+03 -0.83410542450E+03  0.98028025219E+03  0.00000000000E+00 0.  1.
         22    1    1    2    0    0  0.10550954760E+04  0.47448689329E+03 -0.42559591226E+03  0.12326784479E+04  0.00000000000E+00 0.  1.
<mgrwt>
<rscale>  0 0.25861454E+04</rscale>
<asrwt>0</asrwt>
<pdfrwt beam="1">  1        1 0.45971833E+00 0.25861454E+04</pdfrwt>
<pdfrwt beam="2">  1       -1 0.86084972E-01 0.25861454E+04</pdfrwt>
<totfact> 0.71591276E-01</totfact>
</mgrwt>
</event>
<event>
 6    1  0.1603085E-006  0.5747801E+04  0.7818608E-02  0.7722483E-01
         -2   -1    0    0    0  501 -0.00000000000E+00  0.00000000000E+00  0.32645095267E+04  0.32645095267E+04  0.00000000000E+00 0.  1.
          2   -1    0    0  501    0  0.00000000000E+00 -0.00000000000E+00 -0.25300287838E+04  0.25300287838E+04  0.00000000000E+00 0. -1.
         23    2    1    2    0    0 -0.61583080805E+03 -0.47732736536E+03  0.31553630490E+04  0.32513591706E+04  0.89058899224E+02 0.  0.
         13    1    3    3    0    0 -0.21633602855E+03 -0.18874401569E+03  0.13303071280E+04  0.13609344714E+04  0.00000000000E+00 0. -1.
        -13    1    3    3    0    0 -0.39949477950E+03 -0.28858334967E+03  0.18250559210E+04  0.18904246992E+04  0.00000000000E+00 0.  1.
         22    1    1    2    0    0  0.61583080805E+03  0.47732736536E+03 -0.24208823061E+04  0.25431791399E+04  0.00000000000E+00 0. -1.
<mgrwt>
<rscale>  0 0.57478006E+04</rscale>
<asrwt>0</asrwt>
<pdfrwt beam="1">  1        2 0.38923520E+00 0.57478006E+04</pdfrwt>
<pdfrwt beam="2">  1       -2 0.50223224E+00 0.57478006E+04</pdfrwt>
<totfact> 0.37071584E-03</totfact>
</mgrwt>
</event>
<event>
 6    1  0.1603085E-006  0.3938360E+04  0.7818608E-02  0.8017098E-01
          2   -1    0    0  501    0  0.00000000000E+00  0.00000000000E+00  0.46085285472E+04  0.46085285472E+04  0.00000000000E+00 0. -1.
         -2   -1    0    0    0  501 -0.00000000000E+00 -0.00000000000E+00 -0.84141187932E+03  0.84141187932E+03  0.00000000000E+00 0.  1.
         23    2    1    2    0    0  0.81285713415E+03 -0.15232103451E+04  0.57705537246E+03  0.18226277098E+04  0.89846478389E+02 0.  0.
         11    1    3    3    0    0  0.71070994110E+03 -0.12864006322E+04  0.46546660188E+03  0.15416206940E+04  0.00000000000E+00 0. -1.
        -11    1    3    3    0    0  0.10214719305E+03 -0.23680971297E+03  0.11158877057E+03  0.28100701579E+03  0.00000000000E+00 0.  1.
         22    1    1    2    0    0 -0.81285713415E+03  0.15232103451E+04  0.31900612954E+04  0.36273127166E+04  0.00000000000E+00 0. -1.
<mgrwt>
<rscale>  0 0.39383604E+04</rscale>
<asrwt>0</asrwt>
<pdfrwt beam="1">  1        2 0.70900438E+00 0.39383604E+04</pdfrwt>
<pdfrwt beam="2">  1       -2 0.12944798E+00 0.39383604E+04</pdfrwt>
<totfact> 0.33073553E-02</totfact>
</mgrwt>
</event>
<event>
 6    1  0.1603085E-006  0.1067500E+04  0.7818608E-02  0.9237461E-01
          1   -1    0    0  501    0  0.00000000000E+00  0.00000000000E+00  0.61213170517E+03  0.61213170517E+03  0.00000000000E+00 0. -1.
         -1   -1    0    0    0  501 -0.00000000000E+00 -0.00000000000E+00 -0.46540472274E+03  0.46540472274E+03  0.00000000000E+00 0.  1.
         23    2    1    2    0    0  0.24281028765E+03  0.26244795310E+03  0.46875404778E+03  0.59635330819E+03  0.89839562594E+02 0.  0.
         11    1    3    3    0    0  0.19254093806E+03  0.22959771137E+03  0.43265666700E+03  0.52628786172E+03  0.00000000000E+00 0. -1.
        -11    1    3    3    0    0  0.50269349597E+02  0.32850241730E+02  0.36097380784E+02  0.70065446478E+02  0.00000000000E+00 0.  1.
         22    1    1    2    0    0 -0.24281028765E+03 -0.26244795310E+03 -0.32202706535E+03  0.48118311971E+03  0.00000000000E+00 0.  1.
<mgrwt>
<rscale>  0 0.10674999E+04</rscale>
<asrwt>0</asrwt>
<pdfrwt beam="1">  1        1 0.94174108E-01 0.10674999E+04</pdfrwt>
<pdfrwt beam="2">  1       -1 0.71600727E-01 0.10674999E+04</pdfrwt>
<totfact> 0.65443188E+01</totfact>
</mgrwt>
</event>
<event>
 6    1  0.1603085E-006  0.6034425E+04  0.7818608E-02  0.7686148E-01
          2   -1    0    0  501    0  0.00000000000E+00  0.00000000000E+00  0.34778507688E+04  0.34778507688E+04  0.00000000000E+00 0. -1.
         -2   -1    0    0    0  501 -0.00000000000E+00 -0.00000000000E+00 -0.26175854708E+04  0.26175854708E+04  0.00000000000E+00 0.  1.
         23    2    1    2    0    0 -0.22936570300E+04  0.77234569509E+03 -0.13885130293E+04  0.27917436979E+04  0.92108622468E+02 0.  0.
         13    1    3    3    0    0 -0.71320210078E+03  0.27871880509E+03 -0.46492313560E+03  0.89582081405E+03  0.00000000000E+00 0. -1.
        -13    1    3    3    0    0 -0.15804549293E+04  0.49362689000E+03 -0.92358989368E+03  0.18959228839E+04  0.00000000000E+00 0.  1.
         22    1    1    2    0    0  0.22936570300E+04 -0.77234569509E+03  0.22487783274E+04  0.33036925417E+04  0.00000000000E+00 0. -1.
<mgrwt>
<rscale>  0 0.60344251E+04</rscale>
<asrwt>0</asrwt>
<pdfrwt beam="1">  1        2 0.53505397E+00 0.60344251E+04</pdfrwt>
<pdfrwt beam="2">  1       -2 0.40270545E+00 0.60344251E+04</pdfrwt>
<totfact> 0.40276558E-03</totfact>
</mgrwt>
</event>
<event>
 6    1  0.1603085E-006  0.1515778E+04  0.7818608E-02  0.8874028E-01
         -2   -1    0    0    0  501 -0.00000000000E+00  0.00000000000E+00  0.29628359028E+03  0.29628359028E+03  0.00000000000E+00 0.  1.
          2   -1    0    0  501    0  0.00000000000E+00 -0.00000000000E+00 -0.19386689754E+04  0.19386689754E+04  0.00000000000E+00 0. -1.
         23    2    1    2    0    0 -0.18402738751E+03  0.37123587299E+03  0.10685634117E+03  0.43730722531E+03  0.90206313036E+02 0.  0.
         13    1    3    3    0    0 -0.12755939045E+03  0.27061571557E+03  0.11753413191E+03  0.32143200801E+03  0.00000000000E+00 0. -1.
        -13    1    3    3    0    0 -0.56467997059E+02  0.10062015742E+03 -0.10677790734E+02  0.11587521731E+03  0.00000000000E+00 0.  1.
         22    1    1    2    0    0  0.18402738751E+03 -0.37123587299E+03 -0.17492417263E+04  0.17976453403E+04  0.00000000000E+00 0. -1.
<mgrwt>
<rscale>  0 0.15157781E+04</rscale>
<asrwt>0</asrwt>
<pdfrwt beam="1">  1        2 0.29825677E+00 0.15157781E+04</pdfrwt>
<pdfrwt beam="2">  1       -2 0.45582090E-01 0.15157781E+04</pdfrwt>
<totfact> 0.31837990E+01</totfact>
</mgrwt>
</event>
<event>
 6    1  0.1603085E-006  0.2116679E+04  0.7818608E-02  0.8553931E-01
          1   -1    0    0  501    0  0.00000000000E+00  0.00000000000E+00  0.99049126079E+03  0.99049126079E+03  0.00000000000E+00 0. -1.
         -1   -1    0    0    0  501 -0.00000000000E+00 -0.00000000000E+00 -0.11308354207E+04  0.11308354207E+04  0.00000000000E+00 0.  1.
         23    2    1    2    0    0  0.75460284353E+03 -0.57318139003E+03  0.39746857590E+03  0.10317373570E+04  0.92403179476E+02 0.  0.
         13    1    3    3    0    0  0.27042998015E+03 -0.21763472044E+03  0.19313440634E+03  0.39723814598E+03  0.00000000000E+00 0. -1.
        -13    1    3    3    0    0  0.48417286338E+03 -0.35554666959E+03  0.20433416956E+03  0.63449921098E+03  0.00000000000E+00 0.  1.
         22    1    1    2    0    0 -0.75460284353E+03  0.57318139003E+03 -0.53781273583E+03  0.10895893245E+04  0.00000000000E+00 0.  1.
<mgrwt>
<rscale>  0 0.21166791E+04</rscale>
<asrwt>0</asrwt>
<pdfrwt beam="1">  1        1 0.15238327E+00 0.21166791E+04</pdfrwt>
<pdfrwt beam="2">  1       -1 0.17397468E+00 0.21166791E+04</pdfrwt>
<totfact> 0.32530312E+00</totfact>
</mgrwt>
</event>
<event>
 6    1  0.1603085E-006  0.3458513E+04  0.7818608E-02  0.8123693E-01
         -2   -1    0    0    0  501 -0.00000000000E+00  0.00000000000E+00  0.14323528437E+04  0.14323528437E+04  0.00000000000E+00 0. -1.
          2   -1    0    0  501    0  0.00000000000E+00 -0.00000000000E+00 -0.20877028978E+04  0.20877028978E+04  0.00000000000E+00 0.  1.
         23    2    1    2    0    0  0.12637686602E+04 -0.11055051033E+04  0.87849173133E+02  0.16838646155E+04  0.91813976021E+02 0.  0.
         11    1    3    3    0    0  0.79414542140E+03 -0.73014910541E+03  0.21338650793E+02  0.10789995387E+04  0.00000000000E+00 0. -1.
        -11    1    3    3    0    0  0.46962323876E+03 -0.37535599788E+03  0.66510522340E+02  0.60486507678E+03  0.00000000000E+00 0.  1.
         22    1    1    2    0    0 -0.12637686602E+04  0.11055051033E+04 -0.74319922727E+03  0.18361911260E+04  0.00000000000E+00 0.  1.
<mgrwt>
<rscale>  0 0.34585125E+04</rscale>
<asrwt>0</asrwt>
<pdfrwt beam="1">  1        2 0.32118506E+00 0.34585125E+04</pdfrwt>
<pdfrwt beam="2">  1       -2 0.22036198E+00 0.34585125E+04</pdfrwt>
<totfact> 0.48392393E-01</totfact>
</mgrwt>
</event>
<event>
 6    1  0.1603085E-006  0.1491460E+04  0.7818608E-02  0.8890152E-01
          1   -1    0    0  501    0  0.00000000000E+00  0.00000000000E+00  0.17914516772E+04  0.17914516772E+04  0.00000000000E+00 0. -1.
         -1   -1    0    0    0  501 -0.00000000000E+00 -0.00000000000E+00 -0.31042605504E+03  0.31042605504E+03  0.00000000000E+00 0.  1.
         23    2    1    2    0    0  0.12172227930E+03 -0.73235345233E+03  0.78435623754E+03  0.10837882844E+04  0.90688728824E+02 0.  0.
         13    1    3    3    0    0  0.98295086008E+01 -0.22756117149E+03  0.28658047179E+03  0.36607249668E+03  0.00000000000E+00 0.  1.
        -13    1    3    3    0    0  0.11189277070E+03 -0.50479228084E+03  0.49777576575E+03  0.71771578769E+03  0.00000000000E+00 0. -1.
         22    1    1    2    0    0 -0.12172227930E+03  0.73235345233E+03  0.69666938464E+03  0.10180894479E+04  0.00000000000E+00 0.  1.
<mgrwt>
<rscale>  0 0.14914601E+04</rscale>
<asrwt>0</asrwt>
<pdfrwt beam="1">  1        1 0.27560794E+00 0.14914601E+04</pdfrwt>
<pdfrwt beam="2">  1       -1 0.47757856E-01 0.14914601E+04</pdfrwt>
<totfact> 0.17506636E+01</totfact>
</mgrwt>
</event>
<event>
 6    1  0.1603085E-006  0.3050665E+04  0.7818608E-02  0.8229409E-01
         -1   -1    0    0    0  501 -0.00000000000E+00  0.00000000000E+00  0.16444442364E+04  0.16444442364E+04  0.00000000000E+00 0.  1.
          1   -1    0    0  501    0  0.00000000000E+00 -0.00000000000E+00 -0.14148480691E+04  0.14148480691E+04  0.00000000000E+00 0. -1.
         23    2    1    2    0    0 -0.13084074546E+04  0.65718419996E+03 -0.30904308245E+03  0.14991790464E+04  0.90603788264E+02 0.  0.
         11    1    3    3    0    0 -0.12264896496E+04  0.59557500045E+03 -0.30162478452E+03  0.13964110972E+04  0.00000000000E+00 0. -1.
        -11    1    3    3    0    0 -0.81917804974E+02  0.61609199511E+02 -0.74182979238E+01  0.10276794919E+03  0.00000000000E+00 0.  1.
         22    1    1    2    0    0  0.13084074546E+04 -0.65718419996E+03  0.53863924981E+03  0.15601132591E+04  0.00000000000E+00 0.  1.
<mgrwt>
<rscale>  0 0.30506647E+04</rscale>
<asrwt>0</asrwt>
<pdfrwt beam="1">  1        1 0.21766893E+00 0.30506647E+04</pdfrwt>
<pdfrwt beam="2">  1       -1 0.25299142E+00 0.30506647E+04</pdfrwt>
<totfact> 0.42362228E-01</totfact>
</mgrwt>
</event>
<event>
 6    1  0.1603085E-006  0.2510137E+04  0.7818608E-02  0.8399383E-01
         -2   -1    0    0    0  501 -0.00000000000E+00  0.00000000000E+00  0.35943572914E+03  0.35943572914E+03  0.00000000000E+00 0.  1.
          2   -1    0    0  501    0  0.00000000000E+00 -0.00000000000E+00 -0.43824177754E+04  0.43824177754E+04  0.00000000000E+00 0. -1.
         23    2    1    2    0    0 -0.92461480933E+03 -0.34194519295E+02 -0.36115048224E+04  0.37292354539E+04  0.90267255494E+02 0.  0.
         11    1    3    3    0    0 -0.81261923698E+03 -0.58905954515E+02 -0.31399043574E+04  0.32438895341E+04  0.00000000000E+00 0. -1.
        -11    1    3    3    0    0 -0.11199557235E+03  0.24711435219E+02 -0.47160046498E+03  0.48534591976E+03  0.00000000000E+00 0.  1.
         22    1    1    2    0    0  0.92461480933E+03  0.34194519295E+02 -0.41147722385E+03  0.10126180507E+04  0.00000000000E+00 0.  1.
<mgrwt>
<rscale>  0 0.25101375E+04</rscale>
<asrwt>0</asrwt>
<pdfrwt beam="1">  1        2 0.67421811E+00 0.25101375E+04</pdfrwt>
<pdfrwt beam="2">  1       -2 0.55297805E-01 0.25101375E+04</pdfrwt>
<totfact> 0.43892962E-01</totfact>
</mgrwt>
</event>
<event>
 6    1  0.1603085E-006  0.6739539E+03  0.7818608E-02  0.9762841E-01
         -1   -1    0    0    0  501 -0.00000000000E+00  0.00000000000E+00  0.12272739714E+03  0.12272739714E+03  0.00000000000E+00 0.  1.
          1   -1    0    0  501    0  0.00000000000E+00 -0.00000000000E+00 -0.92524964749E+03  0.92524964749E+03  0.00000000000E+00 0. -1.
         23    2    1    2    0    0  0.23571864532E+03  0.46166989882E+02 -0.76237376612E+03  0.80444763883E+03  0.90705973551E+02 0.  0.
         13    1    3    3    0    0  0.89735671842E+02  0.61987384357E+02 -0.35767067477E+03  0.37392945619E+03  0.00000000000E+00 0.  1.
        -13    1    3    3    0    0  0.14598297348E+03 -0.15820394475E+02 -0.40470309136E+03  0.43051818264E+03  0.00000000000E+00 0. -1.
         22    1    1    2    0    0 -0.23571864532E+03 -0.46166989882E+02 -0.40148484224E+02  0.24352940580E+03  0.00000000000E+00 0.  1.
<mgrwt>
<rscale>  0 0.67395395E+03</rscale>
<asrwt>0</asrwt>
<pdfrwt beam="1">  1        1 0.14234610E+00 0.67395395E+03</pdfrwt>
<pdfrwt beam="2">  1       -1 0.18881138E-01 0.67395395E+03</pdfrwt>
<totfact> 0.39554806E+02</totfact>
</mgrwt>
</event>
<event>
 6    1  0.1603085E-006  0.2184180E+04  0.7818608E-02  0.8525042E-01
          2   -1    0    0  501    0  0.00000000000E+00  0.00000000000E+00  0.22548058836E+04  0.22548058836E+04  0.00000000000E+00 0. -1.
         -2   -1    0    0    0  501 -0.00000000000E+00 -0.00000000000E+00 -0.52894175845E+03  0.52894175845E+03  0.00000000000E+00 0.  1.
         23    2    1    2    0    0 -0.60973291200E+03 -0.54458311078E+03 -0.52423070760E+02  0.82654291600E+03  0.10990916758E+03 0.  0.
         11    1    3    3    0    0 -0.13527375377E+03 -0.15896928571E+03  0.25138947485E+02  0.21024316622E+03  0.00000000000E+00 0. -1.
        -11    1    3    3    0    0 -0.47445915822E+03 -0.38561382507E+03 -0.77562018246E+02  0.61629974978E+03  0.00000000000E+00 0.  1.
         22    1    1    2    0    0  0.60973291200E+03  0.54458311078E+03  0.17782871959E+04  0.19572047260E+04  0.00000000000E+00 0. -1.
<mgrwt>
<rscale>  0 0.21841804E+04</rscale>
<asrwt>0</asrwt>
<pdfrwt beam="1">  1        2 0.34689321E+00 0.21841804E+04</pdfrwt>
<pdfrwt beam="2">  1       -2 0.81375656E-01 0.21841804E+04</pdfrwt>
<totfact> 0.58538611E+00</totfact>
</mgrwt>
</event>
<event>
 6    1  0.1603085E-006  0.3420761E+04  0.7818608E-02  0.8132829E-01
          2   -1    0    0  501    0  0.00000000000E+00  0.00000000000E+00  0.30539572822E+04  0.30539572822E+04  0.00000000000E+00 0. -1.
         -2   -1    0    0    0  501 -0.00000000000E+00 -0.00000000000E+00 -0.95790543904E+03  0.95790543904E+03  0.00000000000E+00 0.  1.
         23    2    1    2    0    0  0.56963192379E+03 -0.79573778870E+03  0.26924039837E+04  0.28658631433E+04  0.80331735610E+02 0.  0.
         13    1    3    3    0    0  0.32358606803E+03 -0.45192423601E+03  0.16441443415E+04  0.17355558401E+04  0.00000000000E+00 0. -1.
        -13    1    3    3    0    0  0.24604585576E+03 -0.34381355269E+03  0.10482596422E+04  0.11303073032E+04  0.00000000000E+00 0.  1.
         22    1    1    2    0    0 -0.56963192379E+03  0.79573778870E+03 -0.59635214058E+03  0.11459995779E+04  0.00000000000E+00 0.  1.
<mgrwt>
<rscale>  0 0.34207615E+04</rscale>
<asrwt>0</asrwt>
<pdfrwt beam="1">  1        2 0.46983958E+00 0.34207615E+04</pdfrwt>
<pdfrwt beam="2">  1       -2 0.14737007E+00 0.34207615E+04</pdfrwt>
<totfact> 0.41772354E-01</totfact>
</mgrwt>
</event>
<event>
 6    1  0.1603085E-006  0.2380358E+04  0.7818608E-02  0.8446894E-01
         -2   -1    0    0    0  501 -0.00000000000E+00  0.00000000000E+00  0.41494453023E+03  0.41494453023E+03  0.00000000000E+00 0.  1.
          2   -1    0    0  501    0  0.00000000000E+00 -0.00000000000E+00 -0.34137734026E+04  0.34137734026E+04  0.00000000000E+00 0. -1.
         23    2    1    2    0    0  0.37449409365E+03  0.65986253274E+03 -0.29730990405E+04  0.30695562817E+04  0.84814345817E+02 0.  0.
         13    1    3    3    0    0  0.15929954301E+03  0.23623777560E+03 -0.12573679592E+04  0.12892473835E+04  0.00000000000E+00 0. -1.
        -13    1    3    3    0    0  0.21519455064E+03  0.42362475714E+03 -0.17157310813E+04  0.17803088982E+04  0.00000000000E+00 0.  1.
         22    1    1    2    0    0 -0.37449409365E+03 -0.65986253274E+03 -0.25729831821E+02  0.75916165113E+03  0.00000000000E+00 0.  1.
<mgrwt>
<rscale>  0 0.23803585E+04</rscale>
<asrwt>0</asrwt>
<pdfrwt beam="1">  1        2 0.52519590E+00 0.23803585E+04</pdfrwt>
<pdfrwt beam="2">  1       -2 0.63837621E-01 0.23803585E+04</pdfrwt>
<totfact> 0.19102789E+00</totfact>
</mgrwt>
</event>
<event>
 6    1  0.1603085E-006  0.3978359E+04  0.7818608E-02  0.8008926E-01
         -2   -1    0    0    0  501 -0.00000000000E+00  0.00000000000E+00  0.17831631366E+04  0.17831631366E+04  0.00000000000E+00 0.  1.
          2   -1    0    0  501    0  0.00000000000E+00 -0.00000000000E+00 -0.22189980056E+04  0.22189980056E+04  0.00000000000E+00 0. -1.
         23    2    1    2    0    0  0.19353406946E+04 -0.69032461183E+02 -0.67037114329E+03  0.20514391352E+04  0.93252188719E+02 0.  0.
         13    1    3    3    0    0  0.33648268594E+03  0.21611431927E+02 -0.12819807647E+03  0.36072482412E+03  0.00000000000E+00 0. -1.
        -13    1    3    3    0    0  0.15988580087E+04 -0.90643893110E+02 -0.54217306682E+03  0.16907143111E+04  0.00000000000E+00 0.  1.
         22    1    1    2    0    0 -0.19353406946E+04  0.69032461183E+02  0.23453627425E+03  0.19507220071E+04  0.00000000000E+00 0.  1.
<mgrwt>
<rscale>  0 0.39783592E+04</rscale>
<asrwt>0</asrwt>
<pdfrwt beam="1">  1        2 0.34138431E+00 0.39783592E+04</pdfrwt>
<pdfrwt beam="2">  1       -2 0.27433279E+00 0.39783592E+04</pdfrwt>
<totfact> 0.18157538E-01</totfact>
</mgrwt>
</event>
<event>
 6    1  0.1603085E-006  0.1203526E+04  0.7818608E-02  0.9109776E-01
         -1   -1    0    0    0  501 -0.00000000000E+00  0.00000000000E+00  0.15906297562E+03  0.15906297562E+03  0.00000000000E+00 0.  1.
          1   -1    0    0  501    0  0.00000000000E+00 -0.00000000000E+00 -0.22765734685E+04  0.22765734685E+04  0.00000000000E+00 0. -1.
         23    2    1    2    0    0 -0.16009668603E+03 -0.44163219166E+03 -0.31501273303E+03  0.57293192761E+03  0.91367555066E+02 0.  0.
         11    1    3    3    0    0 -0.10576026115E+03 -0.20062621094E+03 -0.11085774175E+03  0.25243919715E+03  0.00000000000E+00 0.  1.
        -11    1    3    3    0    0 -0.54336424883E+02 -0.24100598072E+03 -0.20415499128E+03  0.32049273046E+03  0.00000000000E+00 0. -1.
         22    1    1    2    0    0  0.16009668603E+03  0.44163219166E+03 -0.18024977599E+04  0.18627045165E+04  0.00000000000E+00 0. -1.
<mgrwt>
<rscale>  0 0.12035257E+04</rscale>
<asrwt>0</asrwt>
<pdfrwt beam="1">  1        1 0.35024207E+00 0.12035257E+04</pdfrwt>
<pdfrwt beam="2">  1       -1 0.24471227E-01 0.12035257E+04</pdfrwt>
<totfact> 0.27878387E+01</totfact>
</mgrwt>
</event>
<event>
 6    1  0.1603085E-006  0.3158609E+04  0.7818608E-02  0.8199835E-01
          1   -1    0    0  501    0  0.00000000000E+00  0.00000000000E+00  0.22285989250E+04  0.22285989250E+04  0.00000000000E+00 0. -1.
         -1   -1    0    0    0  501 -0.00000000000E+00 -0.00000000000E+00 -0.11191799130E+04  0.11191799130E+04  0.00000000000E+00 0.  1.
         23    2    1    2    0    0 -0.84925274616E+03  0.11371327956E+04  0.12860814742E+04  0.19175652710E+04  0.93540305159E+02 0.  0.
         13    1    3    3    0    0 -0.79510280611E+03  0.10222354416E+04  0.11817083347E+04  0.17531652400E+04  0.00000000000E+00 0. -1.
        -13    1    3    3    0    0 -0.54149940055E+02  0.11489735397E+03  0.10437313948E+03  0.16440003103E+03  0.00000000000E+00 0.  1.
         22    1    1    2    0    0  0.84925274616E+03 -0.11371327956E+04 -0.17666246228E+03  0.14302135670E+04  0.00000000000E+00 0.  1.
<mgrwt>
<rscale>  0 0.31586093E+04</rscale>
<asrwt>0</asrwt>
<pdfrwt beam="1">  1        1 0.34286137E+00 0.31586093E+04</pdfrwt>
<pdfrwt beam="2">  1       -1 0.17218153E+00 0.31586093E+04</pdfrwt>
<totfact> 0.41468131E-01</totfact>
</mgrwt>
</event>
<event>
 6    1  0.1603085E-006  0.4377944E+04  0.7818608E-02  0.7932361E-01
         -2   -1    0    0    0  501 -0.00000000000E+00  0.00000000000E+00  0.19016012030E+04  0.19016012030E+04  0.00000000000E+00 0.  1.
          2   -1    0    0  501    0  0.00000000000E+00 -0.00000000000E+00 -0.25197708572E+04  0.25197708572E+04  0.00000000000E+00 0. -1.
         23    2    1    2    0    0  0.20541940871E+04 -0.50464238015E+03  0.25592411146E+03  0.21326131847E+04  0.90357985589E+02 0.  0.
         13    1    3    3    0    0  0.59721666798E+03 -0.18755779930E+03  0.64346759971E+02  0.62927432977E+03  0.00000000000E+00 0. -1.
        -13    1    3    3    0    0  0.14569774191E+04 -0.31708458085E+03  0.19157735149E+03  0.15033388549E+04  0.00000000000E+00 0.  1.
         22    1    1    2    0    0 -0.20541940871E+04  0.50464238015E+03 -0.87409376564E+03  0.22887588755E+04  0.00000000000E+00 0. -1.
<mgrwt>
<rscale>  0 0.43779444E+04</rscale>
<asrwt>0</asrwt>
<pdfrwt beam="1">  1        2 0.38765705E+00 0.43779444E+04</pdfrwt>
<pdfrwt beam="2">  1       -2 0.29255403E+00 0.43779444E+04</pdfrwt>
<totfact> 0.91572625E-02</totfact>
</mgrwt>
</event>
<event>
 6    1  0.1603085E-006  0.2529436E+04  0.7818608E-02  0.8392573E-01
         -2   -1    0    0    0  501 -0.00000000000E+00  0.00000000000E+00  0.54372508065E+03  0.54372508065E+03  0.00000000000E+00 0. -1.
          2   -1    0    0  501    0  0.00000000000E+00 -0.00000000000E+00 -0.29417642294E+04  0.29417642294E+04  0.00000000000E+00 0.  1.
         23    2    1    2    0    0 -0.71556273691E+03  0.75599873450E+03 -0.21862684735E+04  0.24232224246E+04  0.93128748354E+02 0.  0.
         11    1    3    3    0    0 -0.65099795329E+03  0.72153278663E+03 -0.20241152705E+04  0.22453174666E+04  0.00000000000E+00 0.  1.
        -11    1    3    3    0    0 -0.64564783618E+02  0.34465947867E+02 -0.16215320297E+03  0.17790495799E+03  0.00000000000E+00 0. -1.
         22    1    1    2    0    0  0.71556273691E+03 -0.75599873450E+03 -0.21177067523E+03  0.10622668854E+04  0.00000000000E+00 0. -1.
<mgrwt>
<rscale>  0 0.25294355E+04</rscale>
<asrwt>0</asrwt>
<pdfrwt beam="1">  1        2 0.45257911E+00 0.25294355E+04</pdfrwt>
<pdfrwt beam="2">  1       -2 0.83650013E-01 0.25294355E+04</pdfrwt>
<totfact> 0.21048041E+00</totfact>
</mgrwt>
</event>
<event>
 6    1  0.1603085E-006  0.1552112E+04  0.7818608E-02  0.8850520E-01
          1   -1    0    0  501    0  0.00000000000E+00  0.00000000000E+00  0.97462250211E+03  0.97462250211E+03  0.00000000000E+00 0. -1.
         -1   -1    0    0    0  501 -0.00000000000E+00 -0.00000000000E+00 -0.61794456949E+03  0.61794456949E+03  0.00000000000E+00 0.  1.
         23    2    1    2    0    0  0.74047950713E+03  0.18490295479E+03  0.30756811136E+03  0.82777247322E+03  0.90056211004E+02 0.  0.
         11    1    3    3    0    0  0.12616387735E+02 -0.61322514704E+01  0.14579309041E+02  0.20232004342E+02  0.00000000000E+00 0. -1.
        -11    1    3    3    0    0  0.72786311939E+03  0.19103520626E+03  0.29298880232E+03  0.80754046888E+03  0.00000000000E+00 0.  1.
         22    1    1    2    0    0 -0.74047950713E+03 -0.18490295479E+03  0.49109821258E+02  0.76479459838E+03  0.00000000000E+00 0. -1.
<mgrwt>
<rscale>  0 0.15521117E+04</rscale>
<asrwt>0</asrwt>
<pdfrwt beam="1">  1        1 0.14994192E+00 0.15521117E+04</pdfrwt>
<pdfrwt beam="2">  1       -1 0.95068396E-01 0.15521117E+04</pdfrwt>
<totfact> 0.16319256E+01</totfact>
</mgrwt>
</event>
<event>
 6    1  0.1713040E-006  0.2423841E+04  0.7818608E-02  0.8430631E-01
          3   -1    0    0  501    0  0.00000000000E+00  0.00000000000E+00  0.14943444927E+04  0.14943444927E+04  0.00000000000E+00 0. -1.
         -3   -1    0    0    0  501 -0.00000000000E+00 -0.00000000000E+00 -0.98287336117E+03  0.98287336117E+03  0.00000000000E+00 0.  1.
         23    2    1    2    0    0  0.18936789450E+03 -0.29125585393E+03  0.14411176667E+04  0.14847800208E+04  0.84032190639E+02 0.  0.
         13    1    3    3    0    0  0.40077896419E+02 -0.13018672527E+03  0.62124498236E+03  0.63600326204E+03  0.00000000000E+00 0.  1.
        -13    1    3    3    0    0  0.14928999808E+03 -0.16106912866E+03  0.81987268434E+03  0.84877675879E+03  0.00000000000E+00 0. -1.
         22    1    1    2    0    0 -0.18936789450E+03  0.29125585393E+03 -0.92964653521E+03  0.99243783299E+03  0.00000000000E+00 0.  1.
<mgrwt>
<rscale>  0 0.24238411E+04</rscale>
<asrwt>0</asrwt>
<pdfrwt beam="1">  1        3 0.22989915E+00 0.24238411E+04</pdfrwt>
<pdfrwt beam="2">  1       -3 0.15121129E+00 0.24238411E+04</pdfrwt>
<totfact> 0.71489433E-02</totfact>
</mgrwt>
</event>
<event>
 6    1  0.1603085E-006  0.3626919E+04  0.7818608E-02  0.8084353E-01
          2   -1    0    0  501    0  0.00000000000E+00  0.00000000000E+00  0.17786050190E+04  0.17786050190E+04  0.00000000000E+00 0. -1.
         -2   -1    0    0    0  501 -0.00000000000E+00 -0.00000000000E+00 -0.18489968255E+04  0.18489968255E+04  0.00000000000E+00 0.  1.
         23    2    1    2    0    0  0.11909288742E+04  0.12851983155E+04 -0.49849779128E+03  0.18239053546E+04  0.89913298656E+02 0.  0.
         13    1    3    3    0    0  0.10715812487E+04  0.11761943883E+04 -0.42895054510E+03  0.16479436221E+04  0.00000000000E+00 0. -1.
        -13    1    3    3    0    0  0.11934762550E+03  0.10900392721E+03 -0.69547246180E+02  0.17596173251E+03  0.00000000000E+00 0.  1.
         22    1    1    2    0    0 -0.11909288742E+04 -0.12851983155E+04  0.42810598476E+03  0.18036964899E+04  0.00000000000E+00 0.  1.
<mgrwt>
<rscale>  0 0.36269188E+04</rscale>
<asrwt>0</asrwt>
<pdfrwt beam="1">  1        2 0.27363154E+00 0.36269188E+04</pdfrwt>
<pdfrwt beam="2">  1       -2 0.28446105E+00 0.36269188E+04</pdfrwt>
<totfact> 0.28526151E-01</totfact>
</mgrwt>
</event>
<event>
 6    1  0.1603085E-006  0.1397155E+04  0.7818608E-02  0.8955880E-01
          1   -1    0    0  501    0  0.00000000000E+00  0.00000000000E+00  0.69111948386E+03  0.69111948386E+03  0.00000000000E+00 0. -1.
         -1   -1    0    0    0  501 -0.00000000000E+00 -0.00000000000E+00 -0.70611639392E+03  0.70611639392E+03  0.00000000000E+00 0.  1.
         23    2    1    2    0    0 -0.28567238683E+03 -0.32059136645E+03  0.53985359352E+03  0.69563298571E+03  0.89865519145E+02 0.  0.
         13    1    3    3    0    0 -0.15045324546E+03 -0.12174217023E+03  0.29183925977E+03  0.35018207924E+03  0.00000000000E+00 0.  1.
        -13    1    3    3    0    0 -0.13521914137E+03 -0.19884919623E+03  0.24801433375E+03  0.34545090646E+03  0.00000000000E+00 0. -1.
         22    1    1    2    0    0  0.28567238683E+03  0.32059136645E+03 -0.55485050358E+03  0.70160289207E+03  0.00000000000E+00 0.  1.
<mgrwt>
<rscale>  0 0.13971554E+04</rscale>
<asrwt>0</asrwt>
<pdfrwt beam="1">  1        1 0.10632607E+00 0.13971554E+04</pdfrwt>
<pdfrwt beam="2">  1       -1 0.10863329E+00 0.13971554E+04</pdfrwt>
<totfact> 0.21304644E+01</totfact>
</mgrwt>
</event>
<event>
 6    1  0.1732015E-006  0.2441485E+04  0.7818608E-02  0.8424134E-01
         -1   -1    0    0    0  501 -0.00000000000E+00  0.00000000000E+00  0.98664999562E+03  0.98664999562E+03  0.00000000000E+00 0.  1.
          1   -1    0    0  501    0  0.00000000000E+00 -0.00000000000E+00 -0.15103756462E+04  0.15103756462E+04  0.00000000000E+00 0. -1.
         23    2    1    2    0    0  0.87546982550E+03 -0.69934419706E+03 -0.75318559103E+03  0.13532679815E+04  0.92282034022E+02 0.  0.
         13    1    3    3    0    0  0.36748814386E+03 -0.25491641509E+03 -0.26000336108E+03  0.51733128877E+03  0.00000000000E+00 0. -1.
        -13    1    3    3    0    0  0.50798168163E+03 -0.44442778196E+03 -0.49318222995E+03  0.83593669269E+03  0.00000000000E+00 0.  1.
         22    1    1    2    0    0 -0.87546982550E+03  0.69934419706E+03  0.22945994047E+03  0.11437576603E+04  0.00000000000E+00 0.  1.
<mgrwt>
<rscale>  0 0.24414849E+04</rscale>
<asrwt>0</asrwt>
<pdfrwt beam="1">  1        1 0.23236548E+00 0.24414849E+04</pdfrwt>
<pdfrwt beam="2">  1       -1 0.15179231E+00 0.24414849E+04</pdfrwt>
<totfact> 0.19411317E+00</totfact>
</mgrwt>
</event>
<event>
 6    1  0.1603085E-006  0.1400025E+04  0.7818608E-02  0.8953801E-01
         -1   -1    0    0    0  501 -0.00000000000E+00  0.00000000000E+00  0.18932629473E+03  0.18932629473E+03  0.00000000000E+00 0.  1.
          1   -1    0    0  501    0  0.00000000000E+00 -0.00000000000E+00 -0.25882158376E+04  0.25882158376E+04  0.00000000000E+00 0. -1.
         23    2    1    2    0    0  0.48300639685E+03 -0.21363700586E+03 -0.30173737053E+03  0.61490874139E+03  0.90174108210E+02 0.  0.
         13    1    3    3    0    0  0.30595527226E+03 -0.17915885827E+03 -0.18338150229E+03  0.39916826089E+03  0.00000000000E+00 0. -1.
        -13    1    3    3    0    0  0.17705112459E+03 -0.34478147598E+02 -0.11835586824E+03  0.21574048050E+03  0.00000000000E+00 0.  1.
         22    1    1    2    0    0 -0.48300639685E+03  0.21363700586E+03 -0.20971521723E+04  0.21626333909E+04  0.00000000000E+00 0. -1.
<mgrwt>
<rscale>  0 0.14000247E+04</rscale>
<asrwt>0</asrwt>
<pdfrwt beam="1">  1        1 0.39818704E+00 0.14000247E+04</pdfrwt>
<pdfrwt beam="2">  1       -1 0.29127123E-01 0.14000247E+04</pdfrwt>
<totfact> 0.12373537E+01</totfact>
</mgrwt>
</event>
<event>
 6    1  0.1603085E-006  0.2020206E+04  0.7818608E-02  0.8597232E-01
         -4   -1    0    0    0  501 -0.00000000000E+00  0.00000000000E+00  0.60734809793E+03  0.60734809793E+03  0.00000000000E+00 0.  1.
          4   -1    0    0  501    0  0.00000000000E+00 -0.00000000000E+00 -0.16799394016E+04  0.16799394016E+04  0.00000000000E+00 0. -1.
         23    2    1    2    0    0  0.45822703009E+03 -0.90576741820E+02  0.47404902615E+03  0.67165373315E+03  0.90664771547E+02 0.  0.
         11    1    3    3    0    0  0.14024942699E+03 -0.59700973773E+02  0.19472775022E+03  0.24729133577E+03  0.00000000000E+00 0.  1.
        -11    1    3    3    0    0  0.31797760310E+03 -0.30875768047E+02  0.27932127593E+03  0.42436239738E+03  0.00000000000E+00 0. -1.
         22    1    1    2    0    0 -0.45822703009E+03  0.90576741820E+02 -0.15466403298E+04  0.16156337664E+04  0.00000000000E+00 0. -1.
<mgrwt>
<rscale>  0 0.20202059E+04</rscale>
<asrwt>0</asrwt>
<pdfrwt beam="1">  1        4 0.25845221E+00 0.20202059E+04</pdfrwt>
<pdfrwt beam="2">  1       -4 0.93438171E-01 0.20202059E+04</pdfrwt>
<totfact> 0.10069052E-01</totfact>
</mgrwt>
</event>
<event>
 6    1  0.1603085E-006  0.1295756E+04  0.7818608E-02  0.9032937E-01
         -2   -1    0    0    0  501 -0.00000000000E+00  0.00000000000E+00  0.23589668465E+03  0.23589668465E+03  0.00000000000E+00 0.  1.
          2   -1    0    0  501    0  0.00000000000E+00 -0.00000000000E+00 -0.17793633672E+04  0.17793633672E+04  0.00000000000E+00 0. -1.
         23    2    1    2    0    0  0.73753234733E+02  0.95097356256E+02 -0.17605815529E+04  0.17670224364E+04  0.90762543478E+02 0.  0.
         13    1    3    3    0    0  0.57915717064E+02  0.11277021709E+03 -0.14454706489E+04  0.14510192104E+04  0.00000000000E+00 0.  1.
        -13    1    3    3    0    0  0.15837517669E+02 -0.17672860830E+02 -0.31511090405E+03  0.31600322598E+03  0.00000000000E+00 0. -1.
         22    1    1    2    0    0 -0.73753234733E+02 -0.95097356256E+02  0.21711487039E+03  0.24823761549E+03  0.00000000000E+00 0.  1.
<mgrwt>
<rscale>  0 0.12957560E+04</rscale>
<asrwt>0</asrwt>
<pdfrwt beam="1">  1        2 0.27374822E+00 0.12957560E+04</pdfrwt>
<pdfrwt beam="2">  1       -2 0.36291796E-01 0.12957560E+04</pdfrwt>
<totfact> 0.62070106E+01</totfact>
</mgrwt>
</event>
<event>
 6    1  0.1603085E-006  0.1166410E+04  0.7818608E-02  0.9142777E-01
          2   -1    0    0  501    0  0.00000000000E+00  0.00000000000E+00  0.17064748146E+03  0.17064748146E+03  0.00000000000E+00 0. -1.
         -2   -1    0    0    0  501 -0.00000000000E+00 -0.00000000000E+00 -0.19931614195E+04  0.19931614195E+04  0.00000000000E+00 0.  1.
         23    2    1    2    0    0  0.15369735280E+03  0.27223742230E+03 -0.18221284395E+04  0.18511809448E+04  0.94777370890E+02 0.  0.
         11    1    3    3    0    0 -0.81908761332E+01  0.36136589117E+02 -0.30868986403E+03  0.31090573439E+03  0.00000000000E+00 0.  1.
        -11    1    3    3    0    0  0.16188822893E+03  0.23610083318E+03 -0.15134385754E+04  0.15402752104E+04  0.00000000000E+00 0. -1.
         22    1    1    2    0    0 -0.15369735280E+03 -0.27223742230E+03 -0.38549854789E+00  0.31262795615E+03  0.00000000000E+00 0. -1.
<mgrwt>
<rscale>  0 0.11664098E+04</rscale>
<asrwt>0</asrwt>
<pdfrwt beam="1">  1        2 0.26253459E-01 0.11664098E+04</pdfrwt>
<pdfrwt beam="2">  1       -2 0.30664021E+00 0.11664098E+04</pdfrwt>
<totfact> 0.59946228E+00</totfact>
</mgrwt>
</event>
<event>
 6    1  0.1603085E-006  0.4710335E+03  0.7818608E-02  0.1021629E+00
         -2   -1    0    0    0  501 -0.00000000000E+00  0.00000000000E+00  0.79276364074E+02  0.79276364074E+02  0.00000000000E+00 0.  1.
          2   -1    0    0  501    0  0.00000000000E+00 -0.00000000000E+00 -0.69968064385E+03  0.69968064385E+03  0.00000000000E+00 0. -1.
         23    2    1    2    0    0 -0.26021952857E+02  0.12266628068E+02 -0.69353026748E+03  0.70037569799E+03  0.93350277045E+02 0.  0.
         11    1    3    3    0    0 -0.85929743693E+01  0.52766423573E+02 -0.36199412060E+03  0.36592058977E+03  0.00000000000E+00 0. -1.
        -11    1    3    3    0    0 -0.17428978488E+02 -0.40499795506E+02 -0.33153614688E+03  0.33445510822E+03  0.00000000000E+00 0.  1.
         22    1    1    2    0    0  0.26021952857E+02 -0.12266628068E+02  0.73125987701E+02  0.78581309940E+02  0.00000000000E+00 0.  1.
<mgrwt>
<rscale>  0 0.47103349E+03</rscale>
<asrwt>0</asrwt>
<pdfrwt beam="1">  1        2 0.10764317E+00 0.47103349E+03</pdfrwt>
<pdfrwt beam="2">  1       -2 0.12196364E-01 0.47103349E+03</pdfrwt>
<totfact> 0.20290593E+03</totfact>
</mgrwt>
</event>
<event>
 6    1  0.1603085E-006  0.2193451E+04  0.7818608E-02  0.8521159E-01
          1   -1    0    0  501    0  0.00000000000E+00  0.00000000000E+00  0.12230946972E+04  0.12230946972E+04  0.00000000000E+00 0. -1.
         -1   -1    0    0    0  501 -0.00000000000E+00 -0.00000000000E+00 -0.98341309290E+03  0.98341309290E+03  0.00000000000E+00 0.  1.
         23    2    1    2    0    0 -0.86297220013E+03 -0.10838176750E+03 -0.54897781241E+03  0.10324331326E+04  0.89854933880E+02 0.  0.
         11    1    3    3    0    0 -0.89060968106E+02 -0.28002985918E+02 -0.86600746200E+02  0.12734093019E+03  0.00000000000E+00 0.  1.
        -11    1    3    3    0    0 -0.77391123203E+03 -0.80378781578E+02 -0.46237706621E+03  0.90509220245E+03  0.00000000000E+00 0. -1.
         22    1    1    2    0    0  0.86297220013E+03  0.10838176750E+03  0.78865941672E+03  0.11740746575E+04  0.00000000000E+00 0. -1.
<mgrwt>
<rscale>  0 0.21934515E+04</rscale>
<asrwt>0</asrwt>
<pdfrwt beam="1">  1        1 0.18816841E+00 0.21934515E+04</pdfrwt>
<pdfrwt beam="2">  1       -1 0.15129432E+00 0.21934515E+04</pdfrwt>
<totfact> 0.31966293E+00</totfact>
</mgrwt>
</event>
<event>
 6    1  0.1603085E-006  0.2606341E+04  0.7818608E-02  0.8366051E-01
          2   -1    0    0  501    0  0.00000000000E+00  0.00000000000E+00  0.10163901730E+04  0.10163901730E+04  0.00000000000E+00 0. -1.
         -2   -1    0    0    0  501 -0.00000000000E+00 -0.00000000000E+00 -0.16708674779E+04  0.16708674779E+04  0.00000000000E+00 0.  1.
         23    2    1    2    0    0  0.80175634073E+03  0.97628548702E+03 -0.52155173508E+01  0.12668747973E+04  0.94857621675E+02 0.  0.
         11    1    3    3    0    0  0.49177012024E+03  0.66770975403E+03 -0.14443048598E+02  0.82938698352E+03  0.00000000000E+00 0. -1.
        -11    1    3    3    0    0  0.30998622049E+03  0.30857573299E+03  0.92275312469E+01  0.43748781380E+03  0.00000000000E+00 0.  1.
         22    1    1    2    0    0 -0.80175634073E+03 -0.97628548702E+03 -0.64926178751E+03  0.14203828536E+04  0.00000000000E+00 0.  1.
<mgrwt>
<rscale>  0 0.26063409E+04</rscale>
<asrwt>0</asrwt>
<pdfrwt beam="1">  1        2 0.15636772E+00 0.26063409E+04</pdfrwt>
<pdfrwt beam="2">  1       -2 0.25705653E+00 0.26063409E+04</pdfrwt>
<totfact> 0.12640596E+00</totfact>
</mgrwt>
</event>
<event>
 6    1  0.1603085E-006  0.6116266E+03  0.7818608E-02  0.9881574E-01
         -2   -1    0    0    0  501 -0.00000000000E+00  0.00000000000E+00  0.17280553703E+02  0.17280553703E+02  0.00000000000E+00 0. -1.
          2   -1    0    0  501    0  0.00000000000E+00 -0.00000000000E+00 -0.54119669652E+04  0.54119669652E+04  0.00000000000E+00 0.  1.
         23    2    1    2    0    0 -0.12429224611E+03 -0.10493826305E+03 -0.49844670120E+04  0.49879533344E+04  0.91139846316E+02 0.  0.
         13    1    3    3    0    0 -0.65405919494E+02 -0.69539871372E+02 -0.39772817628E+04  0.39784273210E+04  0.00000000000E+00 0.  1.
        -13    1    3    3    0    0 -0.58886326616E+02 -0.35398391679E+02 -0.10071852492E+04  0.10095260134E+04  0.00000000000E+00 0. -1.
         22    1    1    2    0    0  0.12429224611E+03  0.10493826305E+03 -0.41021939949E+03  0.44129418444E+03  0.00000000000E+00 0. -1.
<mgrwt>
<rscale>  0 0.61162664E+03</rscale>
<asrwt>0</asrwt>
<pdfrwt beam="1">  1        2 0.83260958E+00 0.61162664E+03</pdfrwt>
<pdfrwt beam="2">  1       -2 0.26585490E-02 0.61162664E+03</pdfrwt>
<totfact> 0.59118831E+00</totfact>
</mgrwt>
</event>
<event>
 6    1  0.1603085E-006  0.2308982E+04  0.7818608E-02  0.8474388E-01
         -2   -1    0    0    0  501 -0.00000000000E+00  0.00000000000E+00  0.95434008411E+03  0.95434008411E+03  0.00000000000E+00 0.  1.
          2   -1    0    0  501    0  0.00000000000E+00 -0.00000000000E+00 -0.13966192187E+04  0.13966192187E+04  0.00000000000E+00 0. -1.
         23    2    1    2    0    0 -0.29321289266E+03 -0.11118547351E+04 -0.13934569460E+03  0.11618573637E+04  0.91107401167E+02 0.  0.
         13    1    3    3    0    0 -0.57108728121E+02 -0.36645371351E+03 -0.63684969673E+02  0.37630507084E+03  0.00000000000E+00 0. -1.
        -13    1    3    3    0    0 -0.23610416454E+03 -0.74540102163E+03 -0.75660724924E+02  0.78555229288E+03  0.00000000000E+00 0.  1.
         22    1    1    2    0    0  0.29321289266E+03  0.11118547351E+04 -0.30293343999E+03  0.11891019391E+04  0.00000000000E+00 0. -1.
<mgrwt>
<rscale>  0 0.23089822E+04</rscale>
<asrwt>0</asrwt>
<pdfrwt beam="1">  1        2 0.21486450E+00 0.23089822E+04</pdfrwt>
<pdfrwt beam="2">  1       -2 0.14682155E+00 0.23089822E+04</pdfrwt>
<totfact> 0.41761364E+00</totfact>
</mgrwt>
</event>
<event>
 6    1  0.1757584E-006  0.2929877E+04  0.7818608E-02  0.8264043E-01
          2   -1    0    0  501    0  0.00000000000E+00  0.00000000000E+00  0.15889900397E+04  0.15889900397E+04  0.00000000000E+00 0. -1.
         -2   -1    0    0    0  501 -0.00000000000E+00 -0.00000000000E+00 -0.13505715442E+04  0.13505715442E+04  0.00000000000E+00 0.  1.
         23    2    1    2    0    0  0.45077504198E+03  0.68667180107E+03  0.13346078270E+04  0.15697632953E+04  0.90898022715E+02 0.  0.
         11    1    3    3    0    0  0.36332025699E+03  0.50713017904E+03  0.95247872610E+03  0.11385949022E+04  0.00000000000E+00 0. -1.
        -11    1    3    3    0    0  0.87454784993E+02  0.17954162203E+03  0.38212910095E+03  0.43116839315E+03  0.00000000000E+00 0.  1.
         22    1    1    2    0    0 -0.45077504198E+03 -0.68667180107E+03 -0.10961893316E+04  0.13697982886E+04  0.00000000000E+00 0.  1.
<mgrwt>
<rscale>  0 0.29298769E+04</rscale>
<asrwt>0</asrwt>
<pdfrwt beam="1">  1        2 0.24446000E+00 0.29298769E+04</pdfrwt>
<pdfrwt beam="2">  1       -2 0.20778024E+00 0.29298769E+04</pdfrwt>
<totfact> 0.11526463E+00</totfact>
</mgrwt>
</event>
<event>
 6    1  0.1603085E-006  0.2302274E+04  0.7818608E-02  0.8477025E-01
         -2   -1    0    0    0  501 -0.00000000000E+00  0.00000000000E+00  0.40741971315E+03  0.40741971315E+03  0.00000000000E+00 0.  1.
          2   -1    0    0  501    0  0.00000000000E+00 -0.00000000000E+00 -0.32524601633E+04  0.32524601633E+04  0.00000000000E+00 0. -1.
         23    2    1    2    0    0  0.10503884640E+04  0.35674249167E+03 -0.19027598864E+04  0.22043820952E+04  0.90686854182E+02 0.  0.
         11    1    3    3    0    0  0.27514685506E+03  0.11616307740E+03 -0.58120748499E+03  0.65345374206E+03  0.00000000000E+00 0. -1.
        -11    1    3    3    0    0  0.77524160890E+03  0.24057941427E+03 -0.13215524014E+04  0.15509283531E+04  0.00000000000E+00 0.  1.
         22    1    1    2    0    0 -0.10503884640E+04 -0.35674249167E+03 -0.94228056376E+03  0.14554977813E+04  0.00000000000E+00 0.  1.
<mgrwt>
<rscale>  0 0.23022740E+04</rscale>
<asrwt>0</asrwt>
<pdfrwt beam="1">  1        2 0.50037850E+00 0.23022740E+04</pdfrwt>
<pdfrwt beam="2">  1       -2 0.62679954E-01 0.23022740E+04</pdfrwt>
<totfact> 0.25666809E+00</totfact>
</mgrwt>
</event>
<event>
 6    1  0.1603085E-006  0.1034750E+04  0.7818608E-02  0.9271232E-01
          2   -1    0    0  501    0  0.00000000000E+00  0.00000000000E+00  0.17716313978E+04  0.17716313978E+04  0.00000000000E+00 0. -1.
         -2   -1    0    0    0  501 -0.00000000000E+00 -0.00000000000E+00 -0.15109056323E+03  0.15109056323E+03  0.00000000000E+00 0.  1.
         23    2    1    2    0    0  0.56468427436E+02  0.38879300405E+03  0.14304925581E+04  0.14862966746E+04  0.91761444766E+02 0.  0.
         13    1    3    3    0    0  0.19940606995E+02  0.34075705837E+03  0.12609783506E+04  0.13063611298E+04  0.00000000000E+00 0. -1.
        -13    1    3    3    0    0  0.36527820441E+02  0.48035945682E+02  0.16951420748E+03  0.17993554480E+03  0.00000000000E+00 0.  1.
         22    1    1    2    0    0 -0.56468427436E+02 -0.38879300405E+03  0.19004827651E+03  0.43642528650E+03  0.00000000000E+00 0.  1.
<mgrwt>
<rscale>  0 0.10347498E+04</rscale>
<asrwt>0</asrwt>
<pdfrwt beam="1">  1        2 0.27255866E+00 0.10347498E+04</pdfrwt>
<pdfrwt beam="2">  1       -2 0.23244703E-01 0.10347498E+04</pdfrwt>
<totfact> 0.14600383E+02</totfact>
</mgrwt>
</event>
<event>
 6    1  0.1603085E-006  0.3733060E+04  0.7818608E-02  0.8060675E-01
         -2   -1    0    0    0  501 -0.00000000000E+00  0.00000000000E+00  0.30590212585E+04  0.30590212585E+04  0.00000000000E+00 0.  1.
          2   -1    0    0  501    0  0.00000000000E+00 -0.00000000000E+00 -0.11389048330E+04  0.11389048330E+04  0.00000000000E+00 0. -1.
         23    2    1    2    0    0 -0.14388644089E+04  0.67881002955E+03  0.20559093965E+04  0.26011939366E+04  0.91283106266E+02 0.  0.
         11    1    3    3    0    0 -0.71089901783E+03  0.36611721493E+03  0.97360802576E+03  0.12598935735E+04  0.00000000000E+00 0. -1.
        -11    1    3    3    0    0 -0.72796539110E+03  0.31269281462E+03  0.10823013708E+04  0.13413003631E+04  0.00000000000E+00 0.  1.
         22    1    1    2    0    0  0.14388644089E+04 -0.67881002955E+03 -0.13579297100E+03  0.15967321549E+04  0.00000000000E+00 0. -1.
<mgrwt>
<rscale>  0 0.37330599E+04</rscale>
<asrwt>0</asrwt>
<pdfrwt beam="1">  1        2 0.17521613E+00 0.37330599E+04</pdfrwt>
<pdfrwt beam="2">  1       -2 0.47061865E+00 0.37330599E+04</pdfrwt>
<totfact> 0.42213022E-02</totfact>
</mgrwt>
</event>
<event>
 6    1  0.1603085E-006  0.1575503E+04  0.7818608E-02  0.8835741E-01
          1   -1    0    0  501    0  0.00000000000E+00  0.00000000000E+00  0.50178570545E+03  0.50178570545E+03  0.00000000000E+00 0. -1.
         -1   -1    0    0    0  501 -0.00000000000E+00 -0.00000000000E+00 -0.12366876490E+04  0.12366876490E+04  0.00000000000E+00 0.  1.
         23    2    1    2    0    0 -0.35592102270E+03  0.20938010556E+03  0.36803970509E+03  0.56076367745E+03  0.92102521245E+02 0.  0.
         11    1    3    3    0    0 -0.10419418111E+03  0.17142274117E+02  0.77830260520E+02  0.13117863542E+03  0.00000000000E+00 0.  1.
        -11    1    3    3    0    0 -0.25172684159E+03  0.19223783144E+03  0.29020944457E+03  0.42958504203E+03  0.00000000000E+00 0. -1.
         22    1    1    2    0    0  0.35592102270E+03 -0.20938010556E+03 -0.11029416487E+04  0.11777096770E+04  0.00000000000E+00 0.  1.
<mgrwt>
<rscale>  0 0.15755027E+04</rscale>
<asrwt>0</asrwt>
<pdfrwt beam="1">  1        1 0.77197802E-01 0.15755027E+04</pdfrwt>
<pdfrwt beam="2">  1       -1 0.19025964E+00 0.15755027E+04</pdfrwt>
<totfact> 0.74600247E+00</totfact>
</mgrwt>
</event>
<event>
 6    1  0.1603085E-006  0.4022275E+04  0.7818608E-02  0.8000068E-01
         -2   -1    0    0    0  501 -0.00000000000E+00  0.00000000000E+00  0.21617751359E+04  0.21617751359E+04  0.00000000000E+00 0.  1.
          2   -1    0    0  501    0  0.00000000000E+00 -0.00000000000E+00 -0.18709967286E+04  0.18709967286E+04  0.00000000000E+00 0. -1.
         23    2    1    2    0    0 -0.61784241948E+03 -0.64760992711E+03  0.19499784264E+04  0.21475470567E+04  0.91731259896E+02 0.  0.
         13    1    3    3    0    0 -0.16095265003E+03 -0.19781785107E+03  0.64468705865E+03  0.69329579643E+03  0.00000000000E+00 0. -1.
        -13    1    3    3    0    0 -0.45688976944E+03 -0.44979207604E+03  0.13052913678E+04  0.14542512602E+04  0.00000000000E+00 0.  1.
         22    1    1    2    0    0  0.61784241948E+03  0.64760992711E+03 -0.16592000191E+04  0.18852248079E+04  0.00000000000E+00 0. -1.
<mgrwt>
<rscale>  0 0.40222751E+04</rscale>
<asrwt>0</asrwt>
<pdfrwt beam="1">  1        2 0.28784565E+00 0.40222751E+04</pdfrwt>
<pdfrwt beam="2">  1       -2 0.33258079E+00 0.40222751E+04</pdfrwt>
<totfact> 0.12412316E-01</totfact>
</mgrwt>
</event>
<event>
 6    1  0.1603085E-006  0.1871892E+04  0.7818608E-02  0.8668975E-01
         -1   -1    0    0    0  501 -0.00000000000E+00  0.00000000000E+00  0.34313471558E+03  0.34313471558E+03  0.00000000000E+00 0.  1.
          1   -1    0    0  501    0  0.00000000000E+00 -0.00000000000E+00 -0.25529193343E+04  0.25529193343E+04  0.00000000000E+00 0. -1.
         23    2    1    2    0    0 -0.33043316391E+03 -0.24956071702E+03 -0.24022596783E+04  0.24394215107E+04  0.91973462032E+02 0.  0.
         13    1    3    3    0    0 -0.15191038232E+03 -0.58828675576E+02 -0.90911995028E+03  0.92359983831E+03  0.00000000000E+00 0.  1.
        -13    1    3    3    0    0 -0.17852278159E+03 -0.19073204144E+03 -0.14931397280E+04  0.15158216724E+04  0.00000000000E+00 0. -1.
         22    1    1    2    0    0  0.33043316391E+03  0.24956071702E+03  0.19247505956E+03  0.45663253918E+03  0.00000000000E+00 0.  1.
<mgrwt>
<rscale>  0 0.18718924E+04</rscale>
<asrwt>0</asrwt>
<pdfrwt beam="1">  1        1 0.39275683E+00 0.18718924E+04</pdfrwt>
<pdfrwt beam="2">  1       -1 0.52789955E-01 0.18718924E+04</pdfrwt>
<totfact> 0.42262517E+00</totfact>
</mgrwt>
</event>
<event>
 6    1  0.1603085E-006  0.2851592E+04  0.7818608E-02  0.8287428E-01
         -1   -1    0    0    0  501 -0.00000000000E+00  0.00000000000E+00  0.19013069400E+04  0.19013069400E+04  0.00000000000E+00 0.  1.
          1   -1    0    0  501    0  0.00000000000E+00 -0.00000000000E+00 -0.10692087719E+04  0.10692087719E+04  0.00000000000E+00 0. -1.
         23    2    1    2    0    0 -0.76573076477E+03  0.11193554746E+04 -0.31684322919E+02  0.13625914368E+04  0.12787198485E+03 0.  0.
         11    1    3    3    0    0 -0.69171771566E+03  0.93402199125E+03 -0.15533201863E+02  0.11623733302E+04  0.00000000000E+00 0. -1.
        -11    1    3    3    0    0 -0.74013049109E+02  0.18533348338E+03 -0.16151121057E+02  0.20021810660E+03  0.00000000000E+00 0.  1.
         22    1    1    2    0    0  0.76573076477E+03 -0.11193554746E+04  0.86378249103E+03  0.16079242751E+04  0.00000000000E+00 0.  1.
<mgrwt>
<rscale>  0 0.28515919E+04</rscale>
<asrwt>0</asrwt>
<pdfrwt beam="1">  1        1 0.16449366E+00 0.28515919E+04</pdfrwt>
<pdfrwt beam="2">  1       -1 0.29250876E+00 0.28515919E+04</pdfrwt>
<totfact> 0.42584417E-01</totfact>
</mgrwt>
</event>
<event>
 6    1  0.1603085E-006  0.1739783E+04  0.7818608E-02  0.8738995E-01
          1   -1    0    0  501    0  0.00000000000E+00  0.00000000000E+00  0.35809645791E+04  0.35809645791E+04  0.00000000000E+00 0. -1.
         -1   -1    0    0    0  501 -0.00000000000E+00 -0.00000000000E+00 -0.21131481634E+03  0.21131481634E+03  0.00000000000E+00 0.  1.
         23    2    1    2    0    0  0.76492420901E+03 -0.11802162974E+03  0.83993003936E+03  0.11468077873E+04  0.10318662375E+03 0.  0.
         11    1    3    3    0    0  0.45348783564E+03 -0.10912930788E+03  0.45518238359E+03  0.65172956450E+03  0.00000000000E+00 0.  1.
        -11    1    3    3    0    0  0.31143637337E+03 -0.88923218544E+01  0.38474765577E+03  0.49507822277E+03  0.00000000000E+00 0. -1.
         22    1    1    2    0    0 -0.76492420901E+03  0.11802162974E+03  0.25297197234E+04  0.26454716082E+04  0.00000000000E+00 0. -1.
<mgrwt>
<rscale>  0 0.17397826E+04</rscale>
<asrwt>0</asrwt>
<pdfrwt beam="1">  1        1 0.55091758E+00 0.17397826E+04</pdfrwt>
<pdfrwt beam="2">  1       -1 0.32509974E-01 0.17397826E+04</pdfrwt>
<totfact> 0.18240635E+00</totfact>
</mgrwt>
</event>
<event>
 6    1  0.1603085E-006  0.2583058E+04  0.7818608E-02  0.8373979E-01
         -1   -1    0    0    0  501 -0.00000000000E+00  0.00000000000E+00  0.37829187559E+04  0.37829187559E+04  0.00000000000E+00 0.  1.
          1   -1    0    0  501    0  0.00000000000E+00 -0.00000000000E+00 -0.44094199242E+03  0.44094199242E+03  0.00000000000E+00 0. -1.
         23    2    1    2    0    0  0.95723950243E+03  0.17855965525E+03  0.28968252435E+03  0.10200050809E+04  0.91122909530E+02 0.  0.
         11    1    3    3    0    0  0.38242142506E+03  0.49554054339E+02  0.74045061252E+02  0.39266324215E+03  0.00000000000E+00 0.  1.
        -11    1    3    3    0    0  0.57481807737E+03  0.12900560091E+03  0.21563746310E+03  0.62734183874E+03  0.00000000000E+00 0. -1.
         22    1    1    2    0    0 -0.95723950243E+03 -0.17855965525E+03  0.30522942392E+04  0.32038556675E+04  0.00000000000E+00 0.  1.
<mgrwt>
<rscale>  0 0.25830584E+04</rscale>
<asrwt>0</asrwt>
<pdfrwt beam="1">  1        1 0.67837232E-01 0.25830584E+04</pdfrwt>
<pdfrwt beam="2">  1       -1 0.58198748E+00 0.25830584E+04</pdfrwt>
<totfact> 0.23999285E-02</totfact>
</mgrwt>
</event>
<event>
 6    1  0.1603085E-006  0.1568353E+04  0.7818608E-02  0.8840229E-01
          2   -1    0    0  501    0  0.00000000000E+00  0.00000000000E+00  0.12278571699E+04  0.12278571699E+04  0.00000000000E+00 0. -1.
         -2   -1    0    0    0  501 -0.00000000000E+00 -0.00000000000E+00 -0.50081794699E+03  0.50081794699E+03  0.00000000000E+00 0.  1.
         23    2    1    2    0    0 -0.38281580894E+03  0.34938239215E+03 -0.28000732469E+03  0.59608571709E+03  0.91093801763E+02 0.  0.
         13    1    3    3    0    0 -0.15832841811E+03  0.15479029185E+03 -0.17049401313E+03  0.27945684989E+03  0.00000000000E+00 0.  1.
        -13    1    3    3    0    0 -0.22448739083E+03  0.19459210030E+03 -0.10951331156E+03  0.31662886720E+03  0.00000000000E+00 0. -1.
         22    1    1    2    0    0  0.38281580894E+03 -0.34938239215E+03  0.10070465476E+04  0.11325893998E+04  0.00000000000E+00 0. -1.
<mgrwt>
<rscale>  0 0.15683532E+04</rscale>
<asrwt>0</asrwt>
<pdfrwt beam="1">  1        2 0.18890110E+00 0.15683532E+04</pdfrwt>
<pdfrwt beam="2">  1       -2 0.77048915E-01 0.15683532E+04</pdfrwt>
<totfact> 0.26354981E+01</totfact>
</mgrwt>
</event>
<event>
 6    1  0.1603085E-006  0.1947148E+04  0.7818608E-02  0.8631737E-01
          1   -1    0    0  501    0  0.00000000000E+00  0.00000000000E+00  0.11300629349E+04  0.11300629349E+04  0.00000000000E+00 0. -1.
         -1   -1    0    0    0  501 -0.00000000000E+00 -0.00000000000E+00 -0.83875522418E+03  0.83875522418E+03  0.00000000000E+00 0.  1.
         23    2    1    2    0    0  0.84327229503E+03  0.49610212886E+02 -0.33984009818E+03  0.91434345883E+03  0.83446579193E+02 0.  0.
         11    1    3    3    0    0  0.58768596648E+03  0.72154589459E+02 -0.22880649047E+03  0.63477042311E+03  0.00000000000E+00 0. -1.
        -11    1    3    3    0    0  0.25558632856E+03 -0.22544376573E+02 -0.11103360772E+03  0.27957303572E+03  0.00000000000E+00 0.  1.
         22    1    1    2    0    0 -0.84327229503E+03 -0.49610212886E+02  0.63114780889E+03  0.10544747002E+04  0.00000000000E+00 0. -1.
<mgrwt>
<rscale>  0 0.19471479E+04</rscale>
<asrwt>0</asrwt>
<pdfrwt beam="1">  1        1 0.17385584E+00 0.19471479E+04</pdfrwt>
<pdfrwt beam="2">  1       -1 0.12903927E+00 0.19471479E+04</pdfrwt>
<totfact> 0.57967283E+00</totfact>
</mgrwt>
</event>
<event>
 6    1  0.1603085E-006  0.2050868E+04  0.7818608E-02  0.8583201E-01
          1   -1    0    0  501    0  0.00000000000E+00  0.00000000000E+00  0.15014646743E+04  0.15014646743E+04  0.00000000000E+00 0. -1.
         -1   -1    0    0    0  501 -0.00000000000E+00 -0.00000000000E+00 -0.70032591766E+03  0.70032591766E+03  0.00000000000E+00 0.  1.
         23    2    1    2    0    0  0.80987279739E+03 -0.19448360835E+03 -0.23679202169E+03  0.87099454355E+03  0.94038351206E+02 0.  0.
         13    1    3    3    0    0  0.14875718134E+03 -0.71358740562E+02 -0.32421490580E+02  0.16814256423E+03  0.00000000000E+00 0. -1.
        -13    1    3    3    0    0  0.66111561605E+03 -0.12312486779E+03 -0.20437053111E+03  0.70285197932E+03  0.00000000000E+00 0.  1.
         22    1    1    2    0    0 -0.80987279739E+03  0.19448360835E+03  0.10379307784E+04  0.13307960484E+04  0.00000000000E+00 0.  1.
<mgrwt>
<rscale>  0 0.20508677E+04</rscale>
<asrwt>0</asrwt>
<pdfrwt beam="1">  1        1 0.23099457E+00 0.20508677E+04</pdfrwt>
<pdfrwt beam="2">  1       -1 0.10774245E+00 0.20508677E+04</pdfrwt>
<totfact> 0.48308449E+00</totfact>
</mgrwt>
</event>
<event>
 6    1  0.1603085E-006  0.1654916E+04  0.7818608E-02  0.8787503E-01
          1   -1    0    0  501    0  0.00000000000E+00  0.00000000000E+00  0.57685176871E+03  0.57685176871E+03  0.00000000000E+00 0. -1.
         -1   -1    0    0    0  501 -0.00000000000E+00 -0.00000000000E+00 -0.11869372096E+04  0.11869372096E+04  0.00000000000E+00 0.  1.
         23    2    1    2    0    0 -0.22948990468E+03 -0.25873438390E+03  0.49224764930E+03  0.60847631956E+03  0.91250125802E+02 0.  0.
         11    1    3    3    0    0 -0.12798174445E+03 -0.12817550743E+03  0.18124914504E+03  0.25624117584E+03  0.00000000000E+00 0. -1.
        -11    1    3    3    0    0 -0.10150816023E+03 -0.13055887646E+03  0.31099850426E+03  0.35223514372E+03  0.00000000000E+00 0.  1.
         22    1    1    2    0    0  0.22948990468E+03  0.25873438390E+03 -0.11023330902E+04  0.11553126588E+04  0.00000000000E+00 0.  1.
<mgrwt>
<rscale>  0 0.16549161E+04</rscale>
<asrwt>0</asrwt>
<pdfrwt beam="1">  1        1 0.88746426E-01 0.16549161E+04</pdfrwt>
<pdfrwt beam="2">  1       -1 0.18260572E+00 0.16549161E+04</pdfrwt>
<totfact> 0.69008260E+00</totfact>
</mgrwt>
</event>
<event>
 6    1  0.1603085E-006  0.2168489E+04  0.7818608E-02  0.8531659E-01
         -2   -1    0    0    0  501 -0.00000000000E+00  0.00000000000E+00  0.11459864375E+04  0.11459864375E+04  0.00000000000E+00 0. -1.
          2   -1    0    0  501    0  0.00000000000E+00 -0.00000000000E+00 -0.10258288839E+04  0.10258288839E+04  0.00000000000E+00 0.  1.
         23    2    1    2    0    0 -0.72132938703E+03 -0.10419521184E+02  0.86838814206E+03  0.11324531783E+04  0.89036985821E+02 0.  0.
         11    1    3    3    0    0 -0.30179572603E+03 -0.40083324677E+02  0.40486735996E+03  0.50656185439E+03  0.00000000000E+00 0. -1.
        -11    1    3    3    0    0 -0.41953366100E+03  0.29663803493E+02  0.46352078210E+03  0.62589132394E+03  0.00000000000E+00 0.  1.
         22    1    1    2    0    0  0.72132938703E+03  0.10419521184E+02 -0.74823058839E+03  0.10393621431E+04  0.00000000000E+00 0.  1.
<mgrwt>
<rscale>  0 0.21684889E+04</rscale>
<asrwt>0</asrwt>
<pdfrwt beam="1">  1        2 0.15781983E+00 0.21684889E+04</pdfrwt>
<pdfrwt beam="2">  1       -2 0.17630560E+00 0.21684889E+04</pdfrwt>
<totfact> 0.42741537E+00</totfact>
</mgrwt>
</event>
<event>
 6    1  0.1603085E-006  0.9929022E+03  0.7818608E-02  0.9316364E-01
          2   -1    0    0  501    0  0.00000000000E+00  0.00000000000E+00  0.23388655358E+04  0.23388655358E+04  0.00000000000E+00 0. -1.
         -2   -1    0    0    0  501 -0.00000000000E+00 -0.00000000000E+00 -0.10537746289E+03  0.10537746289E+03  0.00000000000E+00 0.  1.
         23    2    1    2    0    0  0.17144958371E+03 -0.43110938249E+03  0.15316512380E+04  0.16029195161E+04  0.90250767451E+02 0.  0.
         13    1    3    3    0    0  0.10222416911E+03 -0.34927152930E+03  0.11262846761E+04  0.11836205277E+04  0.00000000000E+00 0.  1.
        -13    1    3    3    0    0  0.69225414600E+02 -0.81837853187E+02  0.40536656185E+03  0.41929898844E+03  0.00000000000E+00 0. -1.
         22    1    1    2    0    0 -0.17144958371E+03  0.43110938249E+03  0.70183683497E+03  0.84132348258E+03  0.00000000000E+00 0.  1.
<mgrwt>
<rscale>  0 0.99290224E+03</rscale>
<asrwt>0</asrwt>
<pdfrwt beam="1">  1        2 0.35982543E+00 0.99290224E+03</pdfrwt>
<pdfrwt beam="2">  1       -2 0.16211919E-01 0.99290224E+03</pdfrwt>
<totfact> 0.13363800E+02</totfact>
</mgrwt>
</event>
<event>
 6    1  0.1603085E-006  0.2341476E+04  0.7818608E-02  0.8461745E-01
          2   -1    0    0  501    0  0.00000000000E+00  0.00000000000E+00  0.90947550572E+03  0.90947550572E+03  0.00000000000E+00 0. -1.
         -2   -1    0    0    0  501 -0.00000000000E+00 -0.00000000000E+00 -0.15070522589E+04  0.15070522589E+04  0.00000000000E+00 0.  1.
         23    2    1    2    0    0 -0.81141762148E+03 -0.35914403245E+03  0.48626839885E+03  0.10157767853E+04  0.89233005654E+02 0.  0.
         11    1    3    3    0    0 -0.47204389433E+03 -0.25375858039E+03  0.30953493181E+03  0.61889476432E+03  0.00000000000E+00 0.  1.
        -11    1    3    3    0    0 -0.33937372716E+03 -0.10538545206E+03  0.17673346703E+03  0.39688202096E+03  0.00000000000E+00 0. -1.
         22    1    1    2    0    0  0.81141762148E+03  0.35914403245E+03 -0.10838451520E+04  0.14007509793E+04  0.00000000000E+00 0.  1.
<mgrwt>
<rscale>  0 0.23414757E+04</rscale>
<asrwt>0</asrwt>
<pdfrwt beam="1">  1        2 0.13991931E+00 0.23414757E+04</pdfrwt>
<pdfrwt beam="2">  1       -2 0.23185419E+00 0.23414757E+04</pdfrwt>
<totfact> 0.21726431E+00</totfact>
</mgrwt>
</event>
<event>
 6    1  0.1603085E-006  0.1161272E+04  0.7818608E-02  0.9147447E-01
          2   -1    0    0  501    0  0.00000000000E+00  0.00000000000E+00  0.50221779284E+03  0.50221779284E+03  0.00000000000E+00 0.  1.
         -2   -1    0    0    0  501 -0.00000000000E+00 -0.00000000000E+00 -0.67129878220E+03  0.67129878220E+03  0.00000000000E+00 0. -1.
         23    2    1    2    0    0 -0.20501325059E+03  0.19998548379E+03  0.42141665120E+03  0.51722998357E+03  0.88939503883E+02 0.  0.
         11    1    3    3    0    0 -0.11346128574E+03  0.15865947767E+03  0.23437193951E+03  0.30492048021E+03  0.00000000000E+00 0. -1.
        -11    1    3    3    0    0 -0.91551964845E+02  0.41326006119E+02  0.18704471168E+03  0.21230950336E+03  0.00000000000E+00 0.  1.
         22    1    1    2    0    0  0.20501325059E+03 -0.19998548379E+03 -0.59049764056E+03  0.65628659148E+03  0.00000000000E+00 0. -1.
<mgrwt>
<rscale>  0 0.11612720E+04</rscale>
<asrwt>0</asrwt>
<pdfrwt beam="1">  1        2 0.77264276E-01 0.11612720E+04</pdfrwt>
<pdfrwt beam="2">  1       -2 0.10327674E+00 0.11612720E+04</pdfrwt>
<totfact> 0.46356993E+01</totfact>
</mgrwt>
</event>
<event>
 6    1  0.1603085E-006  0.2435188E+04  0.7818608E-02  0.8426446E-01
          2   -1    0    0  501    0  0.00000000000E+00  0.00000000000E+00  0.28705568311E+04  0.28705568311E+04  0.00000000000E+00 0. -1.
         -2   -1    0    0    0  501 -0.00000000000E+00 -0.00000000000E+00 -0.51646251914E+03  0.51646251914E+03  0.00000000000E+00 0.  1.
         23    2    1    2    0    0  0.86940594356E+03  0.61885889211E+03  0.19891466054E+04  0.22591719086E+04  0.91106925951E+02 0.  0.
         13    1    3    3    0    0  0.19813735588E+03  0.17222294695E+03  0.55374525942E+03  0.61282376551E+03  0.00000000000E+00 0.  1.
        -13    1    3    3    0    0  0.67126858767E+03  0.44663594516E+03  0.14354013460E+04  0.16463481431E+04  0.00000000000E+00 0. -1.
         22    1    1    2    0    0 -0.86940594356E+03 -0.61885889211E+03  0.36494770657E+03  0.11278474416E+04  0.00000000000E+00 0.  1.
<mgrwt>
<rscale>  0 0.24351879E+04</rscale>
<asrwt>0</asrwt>
<pdfrwt beam="1">  1        2 0.44162412E+00 0.24351879E+04</pdfrwt>
<pdfrwt beam="2">  1       -2 0.79455774E-01 0.24351879E+04</pdfrwt>
<totfact> 0.26365702E+00</totfact>
</mgrwt>
</event>
<event>
 6    1  0.1603085E-006  0.8767249E+03  0.7818608E-02  0.9455153E-01
          2   -1    0    0  501    0  0.00000000000E+00  0.00000000000E+00  0.17422206624E+04  0.17422206624E+04  0.00000000000E+00 0. -1.
         -2   -1    0    0    0  501 -0.00000000000E+00 -0.00000000000E+00 -0.11029695825E+03  0.11029695825E+03  0.00000000000E+00 0.  1.
         23    2    1    2    0    0 -0.41696733258E+03 -0.92870456123E+02  0.66540362959E+03  0.79580208061E+03  0.89734514924E+02 0.  0.
         13    1    3    3    0    0 -0.94244845275E+02  0.15267244302E+02  0.16467007565E+03  0.19034551065E+03  0.00000000000E+00 0.  1.
        -13    1    3    3    0    0 -0.32272248731E+03 -0.10813770042E+03  0.50073355395E+03  0.60545656996E+03  0.00000000000E+00 0. -1.
         22    1    1    2    0    0  0.41696733258E+03  0.92870456123E+02  0.96652007457E+03  0.10567155401E+04  0.00000000000E+00 0.  1.
<mgrwt>
<rscale>  0 0.87672490E+03</rscale>
<asrwt>0</asrwt>
<pdfrwt beam="1">  1        2 0.26803393E+00 0.87672490E+03</pdfrwt>
<pdfrwt beam="2">  1       -2 0.16968764E-01 0.87672490E+03</pdfrwt>
<totfact> 0.26609538E+02</totfact>
</mgrwt>
</event>
<event>
 6    1  0.1603085E-006  0.3619865E+04  0.7818608E-02  0.8085957E-01
         -2   -1    0    0    0  501 -0.00000000000E+00  0.00000000000E+00  0.24456740805E+04  0.24456740805E+04  0.00000000000E+00 0.  1.
          2   -1    0    0  501    0  0.00000000000E+00 -0.00000000000E+00 -0.13394486764E+04  0.13394486764E+04  0.00000000000E+00 0. -1.
         23    2    1    2    0    0 -0.15008891734E+04 -0.34976296770E+03 -0.43668581772E+03  0.16043940983E+04  0.91561318176E+02 0.  0.
         11    1    3    3    0    0 -0.44206817408E+03 -0.10254621997E+03 -0.17228996309E+03  0.48541098993E+03  0.00000000000E+00 0.  1.
        -11    1    3    3    0    0 -0.10588209993E+04 -0.24721674773E+03 -0.26439585463E+03  0.11189831084E+04  0.00000000000E+00 0. -1.
         22    1    1    2    0    0  0.15008891734E+04  0.34976296770E+03  0.15429112218E+04  0.21807286586E+04  0.00000000000E+00 0.  1.
<mgrwt>
<rscale>  0 0.36198646E+04</rscale>
<asrwt>0</asrwt>
<pdfrwt beam="1">  1        2 0.20606903E+00 0.36198646E+04</pdfrwt>
<pdfrwt beam="2">  1       -2 0.37625755E+00 0.36198646E+04</pdfrwt>
<totfact> 0.13496576E-01</totfact>
</mgrwt>
</event>
<event>
 6    1  0.1603085E-006  0.3192882E+04  0.7818608E-02  0.8190700E-01
          2   -1    0    0  501    0  0.00000000000E+00  0.00000000000E+00  0.23575337828E+04  0.23575337828E+04  0.00000000000E+00 0. -1.
         -2   -1    0    0    0  501 -0.00000000000E+00 -0.00000000000E+00 -0.10810548547E+04  0.10810548547E+04  0.00000000000E+00 0.  1.
         23    2    1    2    0    0  0.10162614100E+04  0.35479765510E+03  0.19065325859E+04  0.21913371627E+04  0.91779247240E+02 0.  0.
         11    1    3    3    0    0  0.66705164337E+03  0.21057657553E+03  0.13142393190E+04  0.14887999787E+04  0.00000000000E+00 0. -1.
        -11    1    3    3    0    0  0.34920976665E+03  0.14422107957E+03  0.59229326690E+03  0.70253718402E+03  0.00000000000E+00 0.  1.
         22    1    1    2    0    0 -0.10162614100E+04 -0.35479765510E+03 -0.63005365780E+03  0.12472514747E+04  0.00000000000E+00 0.  1.
<mgrwt>
<rscale>  0 0.31928817E+04</rscale>
<asrwt>0</asrwt>
<pdfrwt beam="1">  1        2 0.36269750E+00 0.31928817E+04</pdfrwt>
<pdfrwt beam="2">  1       -2 0.16631613E+00 0.31928817E+04</pdfrwt>
<totfact> 0.80225022E-01</totfact>
</mgrwt>
</event>
<event>
 6    1  0.1603085E-006  0.1713674E+04  0.7818608E-02  0.8753604E-01
          1   -1    0    0  501    0  0.00000000000E+00  0.00000000000E+00  0.28206526932E+04  0.28206526932E+04  0.00000000000E+00 0. -1.
         -1   -1    0    0    0  501 -0.00000000000E+00 -0.00000000000E+00 -0.26028347977E+03  0.26028347977E+03  0.00000000000E+00 0.  1.
         23    2    1    2    0    0  0.46849491812E+03 -0.65002916926E+03  0.74987019124E+03  0.11010543284E+04  0.89386358918E+02 0.  0.
         11    1    3    3    0    0  0.24546575512E+03 -0.29091868792E+03  0.40171995086E+03  0.55341308156E+03  0.00000000000E+00 0. -1.
        -11    1    3    3    0    0  0.22302916299E+03 -0.35911048134E+03  0.34815024038E+03  0.54764124683E+03  0.00000000000E+00 0.  1.
         22    1    1    2    0    0 -0.46849491812E+03  0.65002916926E+03  0.18104990221E+04  0.19798818446E+04  0.00000000000E+00 0. -1.
<mgrwt>
<rscale>  0 0.17136736E+04</rscale>
<asrwt>0</asrwt>
<pdfrwt beam="1">  1        1 0.43394655E+00 0.17136736E+04</pdfrwt>
<pdfrwt beam="2">  1       -1 0.40043614E-01 0.17136736E+04</pdfrwt>
<totfact> 0.46678749E+00</totfact>
</mgrwt>
</event>
<event>
 6    1  0.1603085E-006  0.1380845E+04  0.7818608E-02  0.8967801E-01
         -2   -1    0    0    0  501 -0.00000000000E+00  0.00000000000E+00  0.38443487696E+03  0.38443487696E+03  0.00000000000E+00 0.  1.
          2   -1    0    0  501    0  0.00000000000E+00 -0.00000000000E+00 -0.12399591253E+04  0.12399591253E+04  0.00000000000E+00 0. -1.
         23    2    1    2    0    0 -0.18009972637E+03  0.57163070978E+02 -0.12070852472E+04  0.12252716351E+04  0.92370220221E+02 0.  0.
         13    1    3    3    0    0 -0.13439767399E+03 -0.15925404757E+01 -0.84393094570E+03  0.85456697343E+03  0.00000000000E+00 0. -1.
        -13    1    3    3    0    0 -0.45702052374E+02  0.58755611454E+02 -0.36315430149E+03  0.37070466164E+03  0.00000000000E+00 0.  1.
         22    1    1    2    0    0  0.18009972637E+03 -0.57163070978E+02  0.35156099882E+03  0.39912236722E+03  0.00000000000E+00 0.  1.
<mgrwt>
<rscale>  0 0.13808454E+04</rscale>
<asrwt>0</asrwt>
<pdfrwt beam="1">  1        2 0.19076294E+00 0.13808454E+04</pdfrwt>
<pdfrwt beam="2">  1       -2 0.59143828E-01 0.13808454E+04</pdfrwt>
<totfact> 0.46657437E+01</totfact>
</mgrwt>
</event>
<event>
 6    1  0.2319484E-006  0.3037428E+04  0.7818608E-02  0.8233123E-01
         -2   -1    0    0    0  501 -0.00000000000E+00  0.00000000000E+00  0.21524430849E+04  0.21524430849E+04  0.00000000000E+00 0.  1.
          2   -1    0    0  501    0  0.00000000000E+00 -0.00000000000E+00 -0.10715691139E+04  0.10715691139E+04  0.00000000000E+00 0. -1.
         23    2    1    2    0    0  0.70996575170E+03 -0.22396900970E+03 -0.86235480641E+03  0.11430625196E+04  0.93394997989E+02 0.  0.
         13    1    3    3    0    0  0.31751920702E+03 -0.10231044383E+03 -0.31641692267E+03  0.45978858478E+03  0.00000000000E+00 0.  1.
        -13    1    3    3    0    0  0.39244654468E+03 -0.12165856586E+03 -0.54593788374E+03  0.68327393480E+03  0.00000000000E+00 0. -1.
         22    1    1    2    0    0 -0.70996575170E+03  0.22396900970E+03  0.19432287775E+04  0.20809496792E+04  0.00000000000E+00 0.  1.
<mgrwt>
<rscale>  0 0.30374275E+04</rscale>
<asrwt>0</asrwt>
<pdfrwt beam="1">  1        2 0.16485679E+00 0.30374275E+04</pdfrwt>
<pdfrwt beam="2">  1       -2 0.33114509E+00 0.30374275E+04</pdfrwt>
<totfact> 0.39535237E-01</totfact>
</mgrwt>
</event>
<event>
 6    1  0.1603085E-006  0.3222347E+04  0.7818608E-02  0.8182940E-01
         -1   -1    0    0    0  501 -0.00000000000E+00  0.00000000000E+00  0.24247142164E+04  0.24247142164E+04  0.00000000000E+00 0.  1.
          1   -1    0    0  501    0  0.00000000000E+00 -0.00000000000E+00 -0.10705920329E+04  0.10705920329E+04  0.00000000000E+00 0. -1.
         23    2    1    2    0    0  0.55913453074E+03  0.15095609788E+04  0.68449621248E+03  0.17518026751E+04  0.94190103002E+02 0.  0.
         13    1    3    3    0    0  0.21393850226E+03  0.70526663186E+03  0.32957084526E+03  0.80733366511E+03  0.00000000000E+00 0. -1.
        -13    1    3    3    0    0  0.34519602849E+03  0.80429434692E+03  0.35492536722E+03  0.94446901001E+03  0.00000000000E+00 0.  1.
         22    1    1    2    0    0 -0.55913453074E+03 -0.15095609788E+04  0.66962597105E+03  0.17435035742E+04  0.00000000000E+00 0.  1.
<mgrwt>
<rscale>  0 0.32223468E+04</rscale>
<asrwt>0</asrwt>
<pdfrwt beam="1">  1        1 0.16470647E+00 0.32223468E+04</pdfrwt>
<pdfrwt beam="2">  1       -1 0.37303295E+00 0.32223468E+04</pdfrwt>
<totfact> 0.12143230E-01</totfact>
</mgrwt>
</event>
<event>
 6    1  0.1603085E-006  0.1240886E+04  0.7818608E-02  0.9077803E-01
         -1   -1    0    0    0  501 -0.00000000000E+00  0.00000000000E+00  0.35092636641E+03  0.35092636641E+03  0.00000000000E+00 0. -1.
          1   -1    0    0  501    0  0.00000000000E+00 -0.00000000000E+00 -0.10969529555E+04  0.10969529555E+04  0.00000000000E+00 0.  1.
         23    2    1    2    0    0 -0.13389428284E+03 -0.22951954800E+03 -0.10248198834E+04  0.10627396033E+04  0.92481182760E+02 0.  0.
         11    1    3    3    0    0 -0.77684702093E+02 -0.20167109417E+03 -0.72993521478E+03  0.76125656709E+03  0.00000000000E+00 0. -1.
        -11    1    3    3    0    0 -0.56209580746E+02 -0.27848453836E+02 -0.29488466860E+03  0.30148303621E+03  0.00000000000E+00 0.  1.
         22    1    1    2    0    0  0.13389428284E+03  0.22951954800E+03  0.27879329430E+03  0.38513971859E+03  0.00000000000E+00 0. -1.
<mgrwt>
<rscale>  0 0.12408863E+04</rscale>
<asrwt>0</asrwt>
<pdfrwt beam="1">  1        1 0.16876199E+00 0.12408863E+04</pdfrwt>
<pdfrwt beam="2">  1       -1 0.53988674E-01 0.12408863E+04</pdfrwt>
<totfact> 0.43557347E+01</totfact>
</mgrwt>
</event>
<event>
 6    1  0.1603085E-006  0.2050933E+04  0.7818608E-02  0.8583171E-01
          2   -1    0    0  501    0  0.00000000000E+00  0.00000000000E+00  0.52414773724E+03  0.52414773724E+03  0.00000000000E+00 0. -1.
         -2   -1    0    0    0  501 -0.00000000000E+00 -0.00000000000E+00 -0.20062693657E+04  0.20062693657E+04  0.00000000000E+00 0.  1.
         23    2    1    2    0    0  0.18786497794E+03  0.17316194487E+03 -0.19652447164E+04  0.19838951664E+04  0.91514625071E+02 0.  0.
         11    1    3    3    0    0  0.11179628210E+03  0.55724411727E+02 -0.11459709747E+04  0.11527589053E+04  0.00000000000E+00 0. -1.
        -11    1    3    3    0    0  0.76068695838E+02  0.11743753314E+03 -0.81927374170E+03  0.83113626110E+03  0.00000000000E+00 0.  1.
         22    1    1    2    0    0 -0.18786497794E+03 -0.17316194487E+03  0.48312308794E+03  0.54652193660E+03  0.00000000000E+00 0. -1.
<mgrwt>
<rscale>  0 0.20509330E+04</rscale>
<asrwt>0</asrwt>
<pdfrwt beam="1">  1        2 0.80638115E-01 0.20509330E+04</pdfrwt>
<pdfrwt beam="2">  1       -2 0.30865682E+00 0.20509330E+04</pdfrwt>
<totfact> 0.15181038E+00</totfact>
</mgrwt>
</event>
<event>
 6    1  0.1603085E-006  0.2523334E+04  0.7818608E-02  0.8394720E-01
          1   -1    0    0  501    0  0.00000000000E+00  0.00000000000E+00  0.26527811110E+04  0.26527811110E+04  0.00000000000E+00 0. -1.
         -1   -1    0    0    0  501 -0.00000000000E+00 -0.00000000000E+00 -0.60005078562E+03  0.60005078562E+03  0.00000000000E+00 0.  1.
         23    2    1    2    0    0  0.51692002826E+03  0.11230058971E+04  0.13419737452E+04  0.18268152498E+04  0.89509014082E+02 0.  0.
         11    1    3    3    0    0  0.33177372423E+03  0.72851137292E+03  0.80505098484E+03  0.11353015955E+04  0.00000000000E+00 0. -1.
        -11    1    3    3    0    0  0.18514630403E+03  0.39449452423E+03  0.53692276036E+03  0.69151365434E+03  0.00000000000E+00 0.  1.
         22    1    1    2    0    0 -0.51692002826E+03 -0.11230058971E+04  0.71075658019E+03  0.14260166468E+04  0.00000000000E+00 0.  1.
<mgrwt>
<rscale>  0 0.25233338E+04</rscale>
<asrwt>0</asrwt>
<pdfrwt beam="1">  1        1 0.40812016E+00 0.25233338E+04</pdfrwt>
<pdfrwt beam="2">  1       -1 0.92315508E-01 0.25233338E+04</pdfrwt>
<totfact> 0.10722046E+00</totfact>
</mgrwt>
</event>
<event>
 6    1  0.1603085E-006  0.9590509E+03  0.7818608E-02  0.9354634E-01
          1   -1    0    0  501    0  0.00000000000E+00  0.00000000000E+00  0.14829481905E+03  0.14829481905E+03  0.00000000000E+00 0. -1.
         -1   -1    0    0    0  501 -0.00000000000E+00 -0.00000000000E+00 -0.15505912832E+04  0.15505912832E+04  0.00000000000E+00 0.  1.
         23    2    1    2    0    0 -0.15144900102E+03 -0.24880622914E+03 -0.42759243992E+02  0.30849666308E+03  0.92198148668E+02 0.  0.
         11    1    3    3    0    0 -0.19773293094E+02 -0.43900583115E+02  0.26914957784E+02  0.55160305204E+02  0.00000000000E+00 0. -1.
        -11    1    3    3    0    0 -0.13167570793E+03 -0.20490564602E+03 -0.69674201776E+02  0.25333635788E+03  0.00000000000E+00 0.  1.
         22    1    1    2    0    0  0.15144900102E+03  0.24880622914E+03 -0.13595372201E+04  0.13903894391E+04  0.00000000000E+00 0.  1.
<mgrwt>
<rscale>  0 0.95905089E+03</rscale>
<asrwt>0</asrwt>
<pdfrwt beam="1">  1        1 0.22814589E-01 0.95905089E+03</pdfrwt>
<pdfrwt beam="2">  1       -1 0.23855249E+00 0.95905089E+03</pdfrwt>
<totfact> 0.18464014E+01</totfact>
</mgrwt>
</event>
<event>
 6    1  0.1603085E-006  0.1998073E+04  0.7818608E-02  0.8607522E-01
         -1   -1    0    0    0  501 -0.00000000000E+00  0.00000000000E+00  0.40398119941E+03  0.40398119941E+03  0.00000000000E+00 0.  1.
          1   -1    0    0  501    0  0.00000000000E+00 -0.00000000000E+00 -0.24705956222E+04  0.24705956222E+04  0.00000000000E+00 0. -1.
         23    2    1    2    0    0 -0.40880578278E+03 -0.69521464751E+03 -0.19220402792E+03  0.83402299911E+03  0.90589185598E+02 0.  0.
         13    1    3    3    0    0 -0.31451461873E+03 -0.45530208758E+03 -0.11850410854E+03  0.56591753824E+03  0.00000000000E+00 0.  1.
        -13    1    3    3    0    0 -0.94291164050E+02 -0.23991255993E+03 -0.73699919378E+02  0.26810546086E+03  0.00000000000E+00 0. -1.
         22    1    1    2    0    0  0.40880578278E+03  0.69521464751E+03 -0.18744103949E+04  0.20405538225E+04  0.00000000000E+00 0. -1.
<mgrwt>
<rscale>  0 0.19980733E+04</rscale>
<asrwt>0</asrwt>
<pdfrwt beam="1">  1        1 0.38009164E+00 0.19980733E+04</pdfrwt>
<pdfrwt beam="2">  1       -1 0.62150952E-01 0.19980733E+04</pdfrwt>
<totfact> 0.34606628E+00</totfact>
</mgrwt>
</event>
<event>
 6    1  0.1603085E-006  0.2378109E+04  0.7818608E-02  0.8447745E-01
          2   -1    0    0  501    0  0.00000000000E+00  0.00000000000E+00  0.86204867901E+03  0.86204867901E+03  0.00000000000E+00 0.  1.
         -2   -1    0    0    0  501 -0.00000000000E+00 -0.00000000000E+00 -0.16401048689E+04  0.16401048689E+04  0.00000000000E+00 0. -1.
         23    2    1    2    0    0  0.75635780612E+03 -0.35357624965E+03  0.49846824119E+03  0.97683131366E+03  0.92927566796E+02 0.  0.
         11    1    3    3    0    0  0.64283812635E+03 -0.33551649645E+03  0.42995859356E+03  0.84301635113E+03  0.00000000000E+00 0.  1.
        -11    1    3    3    0    0  0.11351967976E+03 -0.18059753202E+02  0.68509647626E+02  0.13381496253E+03  0.00000000000E+00 0. -1.
         22    1    1    2    0    0 -0.75635780612E+03  0.35357624965E+03 -0.12765244311E+04  0.15253222343E+04  0.00000000000E+00 0. -1.
<mgrwt>
<rscale>  0 0.23781087E+04</rscale>
<asrwt>0</asrwt>
<pdfrwt beam="1">  1        2 0.13262288E+00 0.23781087E+04</pdfrwt>
<pdfrwt beam="2">  1       -2 0.25232382E+00 0.23781087E+04</pdfrwt>
<totfact> 0.17435941E+00</totfact>
</mgrwt>
</event>
<event>
 6    1  0.1603085E-006  0.2967371E+04  0.7818608E-02  0.8253110E-01
          2   -1    0    0  501    0  0.00000000000E+00  0.00000000000E+00  0.26179586653E+04  0.26179586653E+04  0.00000000000E+00 0. -1.
         -2   -1    0    0    0  501 -0.00000000000E+00 -0.00000000000E+00 -0.84085473264E+03  0.84085473264E+03  0.00000000000E+00 0.  1.
         23    2    1    2    0    0  0.90887498501E+03 -0.11612297972E+04  0.71316259927E+03  0.16404406251E+04  0.89085190338E+02 0.  0.
         11    1    3    3    0    0  0.39814880399E+03 -0.52011915646E+03  0.26838087110E+03  0.70786630023E+03  0.00000000000E+00 0. -1.
        -11    1    3    3    0    0  0.51072618102E+03 -0.64111064074E+03  0.44478172817E+03  0.93257432485E+03  0.00000000000E+00 0.  1.
         22    1    1    2    0    0 -0.90887498501E+03  0.11612297972E+04  0.10639413334E+04  0.18183727729E+04  0.00000000000E+00 0. -1.
<mgrwt>
<rscale>  0 0.29673712E+04</rscale>
<asrwt>0</asrwt>
<pdfrwt beam="1">  1        2 0.40276287E+00 0.29673712E+04</pdfrwt>
<pdfrwt beam="2">  1       -2 0.12936227E+00 0.29673712E+04</pdfrwt>
<totfact> 0.11206795E+00</totfact>
</mgrwt>
</event>
<event>
 6    1  0.1603085E-006  0.8878748E+03  0.7818608E-02  0.9440867E-01
          3   -1    0    0  501    0  0.00000000000E+00  0.00000000000E+00  0.10413560312E+03  0.10413560312E+03  0.00000000000E+00 0. -1.
         -3   -1    0    0    0  501 -0.00000000000E+00 -0.00000000000E+00 -0.18925362580E+04  0.18925362580E+04  0.00000000000E+00 0.  1.
         23    2    1    2    0    0  0.23856913948E+02  0.25325204678E+03 -0.17089477956E+04  0.17301788811E+04  0.91162717403E+02 0.  0.
         11    1    3    3    0    0  0.34564004842E+01  0.10892050410E+01 -0.21004756953E+03  0.21007882934E+03  0.00000000000E+00 0. -1.
        -11    1    3    3    0    0  0.20400513463E+02  0.25216284174E+03 -0.14989002261E+04  0.15201000518E+04  0.00000000000E+00 0.  1.
         22    1    1    2    0    0 -0.23856913948E+02 -0.25325204678E+03 -0.79452859273E+02  0.26649298000E+03  0.00000000000E+00 0. -1.
<mgrwt>
<rscale>  0 0.88787478E+03</rscale>
<asrwt>0</asrwt>
<pdfrwt beam="1">  1        3 0.16020862E-01 0.88787478E+03</pdfrwt>
<pdfrwt beam="2">  1       -3 0.29115942E+00 0.88787478E+03</pdfrwt>
<totfact> 0.38910020E+00</totfact>
</mgrwt>
</event>
<event>
 6    1  0.1603085E-006  0.3970142E+04  0.7818608E-02  0.8010597E-01
         -2   -1    0    0    0  501 -0.00000000000E+00  0.00000000000E+00  0.10466695844E+04  0.10466695844E+04  0.00000000000E+00 0.  1.
          2   -1    0    0  501    0  0.00000000000E+00 -0.00000000000E+00 -0.37648055285E+04  0.37648055285E+04  0.00000000000E+00 0. -1.
         23    2    1    2    0    0  0.15533603550E+04 -0.11587367586E+04 -0.84517262962E+03  0.21163701342E+04  0.95427997947E+02 0.  0.
         13    1    3    3    0    0  0.75955321722E+03 -0.55416551512E+03 -0.46093150311E+03  0.10471286256E+04  0.00000000000E+00 0. -1.
        -13    1    3    3    0    0  0.79380713782E+03 -0.60457124347E+03 -0.38424112651E+03  0.10692415086E+04  0.00000000000E+00 0.  1.
         22    1    1    2    0    0 -0.15533603550E+04  0.11587367586E+04 -0.18729633146E+04  0.26951049787E+04  0.00000000000E+00 0. -1.
<mgrwt>
<rscale>  0 0.39701423E+04</rscale>
<asrwt>0</asrwt>
<pdfrwt beam="1">  1        2 0.57920084E+00 0.39701423E+04</pdfrwt>
<pdfrwt beam="2">  1       -2 0.16102609E+00 0.39701423E+04</pdfrwt>
<totfact> 0.10194346E-01</totfact>
</mgrwt>
</event>
<event>
 6    1  0.1603085E-006  0.4915706E+04  0.7818608E-02  0.7841644E-01
          2   -1    0    0  501    0  0.00000000000E+00  0.00000000000E+00  0.24598310300E+04  0.24598310300E+04  0.00000000000E+00 0. -1.
         -2   -1    0    0    0  501 -0.00000000000E+00 -0.00000000000E+00 -0.24558763421E+04  0.24558763421E+04  0.00000000000E+00 0.  1.
         23    2    1    2    0    0  0.18141581827E+04  0.13763266852E+04 -0.92069681977E+03  0.24579796682E+04  0.92392418113E+02 0.  0.
         13    1    3    3    0    0  0.14389244046E+03  0.79402856571E+02 -0.69144390409E+02  0.17829973297E+03  0.00000000000E+00 0. -1.
        -13    1    3    3    0    0  0.16702657423E+04  0.12969238286E+04 -0.85155242936E+03  0.22796799352E+04  0.00000000000E+00 0.  1.
         22    1    1    2    0    0 -0.18141581827E+04 -0.13763266852E+04  0.92465150764E+03  0.24577277040E+04  0.00000000000E+00 0. -1.
<mgrwt>
<rscale>  0 0.49157058E+04</rscale>
<asrwt>0</asrwt>
<pdfrwt beam="1">  1        2 0.37843554E+00 0.49157058E+04</pdfrwt>
<pdfrwt beam="2">  1       -2 0.37782713E+00 0.49157058E+04</pdfrwt>
<totfact> 0.27840966E-02</totfact>
</mgrwt>
</event>
<event>
 6    1  0.1603085E-006  0.2965998E+04  0.7818608E-02  0.8253508E-01
          1   -1    0    0  501    0  0.00000000000E+00  0.00000000000E+00  0.12911917817E+04  0.12911917817E+04  0.00000000000E+00 0. -1.
         -1   -1    0    0    0  501 -0.00000000000E+00 -0.00000000000E+00 -0.17032989929E+04  0.17032989929E+04  0.00000000000E+00 0.  1.
         23    2    1    2    0    0 -0.13691699452E+04  0.54137146497E+03 -0.39191785202E+02  0.14756835726E+04  0.91633010007E+02 0.  0.
         13    1    3    3    0    0 -0.90024216026E+03  0.37193595735E+03  0.14858789471E+02  0.97416276212E+03  0.00000000000E+00 0. -1.
        -13    1    3    3    0    0 -0.46892778493E+03  0.16943550762E+03 -0.54050574674E+02  0.50152081048E+03  0.00000000000E+00 0.  1.
         22    1    1    2    0    0  0.13691699452E+04 -0.54137146497E+03 -0.37291542608E+03  0.15188072020E+04  0.00000000000E+00 0. -1.
<mgrwt>
<rscale>  0 0.29659977E+04</rscale>
<asrwt>0</asrwt>
<pdfrwt beam="1">  1        1 0.19864489E+00 0.29659977E+04</pdfrwt>
<pdfrwt beam="2">  1       -1 0.26204600E+00 0.29659977E+04</pdfrwt>
<totfact> 0.45584293E-01</totfact>
</mgrwt>
</event>
<event>
 6    1  0.1603085E-006  0.2147686E+04  0.7818608E-02  0.8540523E-01
         -1   -1    0    0    0  501 -0.00000000000E+00  0.00000000000E+00  0.41414113710E+03  0.41414113710E+03  0.00000000000E+00 0.  1.
          1   -1    0    0  501    0  0.00000000000E+00 -0.00000000000E+00 -0.27844096335E+04  0.27844096335E+04  0.00000000000E+00 0. -1.
         23    2    1    2    0    0 -0.90834784153E+03  0.19172138122E+03 -0.19851815407E+04  0.21934911442E+04  0.92761849683E+02 0.  0.
         11    1    3    3    0    0 -0.51090225539E+03  0.70304844647E+02 -0.11645064864E+04  0.12735930443E+04  0.00000000000E+00 0. -1.
        -11    1    3    3    0    0 -0.39744558614E+03  0.12141653657E+03 -0.82067505435E+03  0.91989809986E+03  0.00000000000E+00 0.  1.
         22    1    1    2    0    0  0.90834784153E+03 -0.19172138122E+03 -0.38508695569E+03  0.10050596264E+04  0.00000000000E+00 0.  1.
<mgrwt>
<rscale>  0 0.21476858E+04</rscale>
<asrwt>0</asrwt>
<pdfrwt beam="1">  1        1 0.42837073E+00 0.21476858E+04</pdfrwt>
<pdfrwt beam="2">  1       -1 0.63714019E-01 0.21476858E+04</pdfrwt>
<totfact> 0.19575519E+00</totfact>
</mgrwt>
</event>
<event>
 6    1  0.1603085E-006  0.4506387E+04  0.7818608E-02  0.7909520E-01
          2   -1    0    0  501    0  0.00000000000E+00  0.00000000000E+00  0.14188062380E+04  0.14188062380E+04  0.00000000000E+00 0. -1.
         -2   -1    0    0    0  501 -0.00000000000E+00 -0.00000000000E+00 -0.35782760979E+04  0.35782760979E+04  0.00000000000E+00 0.  1.
         23    2    1    2    0    0 -0.10633368069E+04 -0.19604139411E+04 -0.73166471780E+03  0.23489630959E+04  0.91577187785E+02 0.  0.
         11    1    3    3    0    0 -0.29851150231E+03 -0.52168002321E+03 -0.23769208353E+03  0.64634100149E+03  0.00000000000E+00 0.  1.
        -11    1    3    3    0    0 -0.76482530460E+03 -0.14387339179E+04 -0.49397263426E+03  0.17026220944E+04  0.00000000000E+00 0. -1.
         22    1    1    2    0    0  0.10633368069E+04  0.19604139411E+04 -0.14278051421E+04  0.26481192400E+04  0.00000000000E+00 0. -1.
<mgrwt>
<rscale>  0 0.45063868E+04</rscale>
<asrwt>0</asrwt>
<pdfrwt beam="1">  1        2 0.21827789E+00 0.45063868E+04</pdfrwt>
<pdfrwt beam="2">  1       -2 0.55050400E+00 0.45063868E+04</pdfrwt>
<totfact> 0.91226692E-03</totfact>
</mgrwt>
</event>
<event>
 6    1  0.1603085E-006  0.2519880E+04  0.7818608E-02  0.8395937E-01
         -1   -1    0    0    0  501 -0.00000000000E+00  0.00000000000E+00  0.79095932338E+03  0.79095932338E+03  0.00000000000E+00 0.  1.
          1   -1    0    0  501    0  0.00000000000E+00 -0.00000000000E+00 -0.20069917747E+04  0.20069917747E+04  0.00000000000E+00 0. -1.
         23    2    1    2    0    0 -0.37970034458E+03 -0.11369113322E+04 -0.18376157859E+03  0.12160778782E+04  0.91309141556E+02 0.  0.
         11    1    3    3    0    0 -0.23956067559E+03 -0.84026953561E+03 -0.12181616901E+03  0.88220257809E+03  0.00000000000E+00 0.  1.
        -11    1    3    3    0    0 -0.14013966899E+03 -0.29664179655E+03 -0.61945409574E+02  0.33387530015E+03  0.00000000000E+00 0. -1.
         22    1    1    2    0    0  0.37970034458E+03  0.11369113322E+04 -0.10322708727E+04  0.15818732198E+04  0.00000000000E+00 0.  1.
<mgrwt>
<rscale>  0 0.25198800E+04</rscale>
<asrwt>0</asrwt>
<pdfrwt beam="1">  1        1 0.30876796E+00 0.25198800E+04</pdfrwt>
<pdfrwt beam="2">  1       -1 0.12168605E+00 0.25198800E+04</pdfrwt>
<totfact> 0.15634856E+00</totfact>
</mgrwt>
</event>
<event>
 6    1  0.1603085E-006  0.2362739E+04  0.7818608E-02  0.8453587E-01
          2   -1    0    0  501    0  0.00000000000E+00  0.00000000000E+00  0.14438671505E+04  0.14438671505E+04  0.00000000000E+00 0. -1.
         -2   -1    0    0    0  501 -0.00000000000E+00 -0.00000000000E+00 -0.96659413334E+03  0.96659413334E+03  0.00000000000E+00 0.  1.
         23    2    1    2    0    0  0.25509738024E+03  0.54281154210E+03 -0.79726990744E+03  0.10018524985E+04  0.91378770623E+02 0.  0.
         13    1    3    3    0    0  0.21238952508E+03  0.35411073205E+03 -0.55726103896E+03  0.69357305776E+03  0.00000000000E+00 0. -1.
        -13    1    3    3    0    0  0.42707855161E+02  0.18870081005E+03 -0.24000886848E+03  0.30827944069E+03  0.00000000000E+00 0.  1.
         22    1    1    2    0    0 -0.25509738024E+03 -0.54281154210E+03  0.12745429246E+04  0.14086087854E+04  0.00000000000E+00 0. -1.
<mgrwt>
<rscale>  0 0.23627387E+04</rscale>
<asrwt>0</asrwt>
<pdfrwt beam="1">  1        2 0.22213341E+00 0.23627387E+04</pdfrwt>
<pdfrwt beam="2">  1       -2 0.14870679E+00 0.23627387E+04</pdfrwt>
<totfact> 0.37777752E+00</totfact>
</mgrwt>
</event>
<event>
 6    1  0.1603085E-006  0.6320764E+04  0.7818608E-02  0.7651855E-01
          2   -1    0    0  501    0  0.00000000000E+00  0.00000000000E+00  0.39715719306E+04  0.39715719306E+04  0.00000000000E+00 0. -1.
         -2   -1    0    0    0  501 -0.00000000000E+00 -0.00000000000E+00 -0.25148765194E+04  0.25148765194E+04  0.00000000000E+00 0.  1.
         23    2    1    2    0    0 -0.24068640025E+04 -0.14686080194E+04 -0.73533663793E+03  0.29150609962E+04  0.84004755884E+02 0.  0.
         11    1    3    3    0    0 -0.89242592789E+03 -0.50088321234E+03 -0.25070926147E+03  0.10536428062E+04  0.00000000000E+00 0. -1.
        -11    1    3    3    0    0 -0.15144380746E+04 -0.96772480706E+03 -0.48462737646E+03  0.18614181900E+04  0.00000000000E+00 0.  1.
         22    1    1    2    0    0  0.24068640025E+04  0.14686080194E+04  0.21920320491E+04  0.35713874539E+04  0.00000000000E+00 0. -1.
<mgrwt>
<rscale>  0 0.63207636E+04</rscale>
<asrwt>0</asrwt>
<pdfrwt beam="1">  1        2 0.61101107E+00 0.63207636E+04</pdfrwt>
<pdfrwt beam="2">  1       -2 0.38690408E+00 0.63207636E+04</pdfrwt>
<totfact> 0.21301526E-03</totfact>
</mgrwt>
</event>
<event>
 6    1  0.1603085E-006  0.1563265E+04  0.7818608E-02  0.8843439E-01
          1   -1    0    0  501    0  0.00000000000E+00  0.00000000000E+00  0.12197361250E+04  0.12197361250E+04  0.00000000000E+00 0. -1.
         -1   -1    0    0    0  501 -0.00000000000E+00 -0.00000000000E+00 -0.50088622285E+03  0.50088622285E+03  0.00000000000E+00 0.  1.
         23    2    1    2    0    0  0.50966810286E+03  0.58148456726E+03  0.25169015873E+03  0.81722647509E+03  0.81395936967E+02 0.  0.
         13    1    3    3    0    0  0.21727611587E+03  0.22319540541E+03  0.63207224270E+02  0.31783683349E+03  0.00000000000E+00 0. -1.
        -13    1    3    3    0    0  0.29239198698E+03  0.35828916185E+03  0.18848293446E+03  0.49938964160E+03  0.00000000000E+00 0.  1.
         22    1    1    2    0    0 -0.50966810286E+03 -0.58148456726E+03  0.46715974341E+03  0.90339587274E+03  0.00000000000E+00 0. -1.
<mgrwt>
<rscale>  0 0.15632646E+04</rscale>
<asrwt>0</asrwt>
<pdfrwt beam="1">  1        1 0.18765171E+00 0.15632646E+04</pdfrwt>
<pdfrwt beam="2">  1       -1 0.77059419E-01 0.15632646E+04</pdfrwt>
<totfact> 0.16802813E+01</totfact>
</mgrwt>
</event>
<event>
 6    1  0.1603085E-006  0.4235631E+04  0.7818608E-02  0.7958629E-01
         -2   -1    0    0    0  501 -0.00000000000E+00  0.00000000000E+00  0.17893302133E+04  0.17893302133E+04  0.00000000000E+00 0.  1.
          2   -1    0    0  501    0  0.00000000000E+00 -0.00000000000E+00 -0.25066040897E+04  0.25066040897E+04  0.00000000000E+00 0. -1.
         23    2    1    2    0    0 -0.14852087357E+04 -0.28903033462E+03 -0.18602444962E+04  0.23996839607E+04  0.92682266716E+02 0.  0.
         11    1    3    3    0    0 -0.50455023774E+03 -0.58887268810E+02 -0.59121783992E+03  0.77947237736E+03  0.00000000000E+00 0. -1.
        -11    1    3    3    0    0 -0.98065849798E+03 -0.23014306581E+03 -0.12690266563E+04  0.16202115834E+04  0.00000000000E+00 0.  1.
         22    1    1    2    0    0  0.14852087357E+04  0.28903033462E+03  0.11429706198E+04  0.18962503423E+04  0.00000000000E+00 0.  1.
<mgrwt>
<rscale>  0 0.42356310E+04</rscale>
<asrwt>0</asrwt>
<pdfrwt beam="1">  1        2 0.38563140E+00 0.42356310E+04</pdfrwt>
<pdfrwt beam="2">  1       -2 0.27528157E+00 0.42356310E+04</pdfrwt>
<totfact> 0.12018535E-01</totfact>
</mgrwt>
</event>
<event>
 6    1  0.1603085E-006  0.1539083E+04  0.7818608E-02  0.8858871E-01
          4   -1    0    0  501    0  0.00000000000E+00  0.00000000000E+00  0.12315865676E+04  0.12315865676E+04  0.00000000000E+00 0. -1.
         -4   -1    0    0    0  501 -0.00000000000E+00 -0.00000000000E+00 -0.48083832358E+03  0.48083832358E+03  0.00000000000E+00 0.  1.
         23    2    1    2    0    0  0.41820959607E+03  0.52799254958E+03 -0.31728650042E+02  0.67997853016E+03  0.87685207294E+02 0.  0.
         11    1    3    3    0    0  0.28086502370E+03  0.38552199169E+03  0.12734740177E+02  0.47715253455E+03  0.00000000000E+00 0. -1.
        -11    1    3    3    0    0  0.13734457237E+03  0.14247055789E+03 -0.44463390218E+02  0.20282599561E+03  0.00000000000E+00 0.  1.
         22    1    1    2    0    0 -0.41820959607E+03 -0.52799254958E+03  0.78247689407E+03  0.10324463610E+04  0.00000000000E+00 0.  1.
<mgrwt>
<rscale>  0 0.15390829E+04</rscale>
<asrwt>0</asrwt>
<pdfrwt beam="1">  1        4 0.18947486E+00 0.15390829E+04</pdfrwt>
<pdfrwt beam="2">  1       -4 0.73975127E-01 0.15390829E+04</pdfrwt>
<totfact> 0.49372045E-01</totfact>
</mgrwt>
</event>
<event>
 6    1  0.1617259E-006  0.2843384E+04  0.7818608E-02  0.8289924E-01
          2   -1    0    0  501    0  0.00000000000E+00  0.00000000000E+00  0.18419122296E+04  0.18419122296E+04  0.00000000000E+00 0. -1.
         -2   -1    0    0    0  501 -0.00000000000E+00 -0.00000000000E+00 -0.10973425695E+04  0.10973425695E+04  0.00000000000E+00 0.  1.
         23    2    1    2    0    0  0.62834211150E+03  0.10840312958E+04  0.10639205945E+04  0.16462263080E+04  0.90533785156E+02 0.  0.
         11    1    3    3    0    0  0.25334719301E+03  0.51659904309E+03  0.45998841780E+03  0.73664694124E+03  0.00000000000E+00 0. -1.
        -11    1    3    3    0    0  0.37499491849E+03  0.56743225275E+03  0.60393217672E+03  0.90957936676E+03  0.00000000000E+00 0.  1.
         22    1    1    2    0    0 -0.62834211150E+03 -0.10840312958E+04 -0.31935093445E+03  0.12930284911E+04  0.00000000000E+00 0.  1.
<mgrwt>
<rscale>  0 0.28433844E+04</rscale>
<asrwt>0</asrwt>
<pdfrwt beam="1">  1        2 0.28337111E+00 0.28433844E+04</pdfrwt>
<pdfrwt beam="2">  1       -2 0.16882193E+00 0.28433844E+04</pdfrwt>
<totfact> 0.15411847E+00</totfact>
</mgrwt>
</event>
<event>
 6    1  0.1603085E-006  0.1737411E+04  0.7818608E-02  0.8740310E-01
          2   -1    0    0  501    0  0.00000000000E+00  0.00000000000E+00  0.61506390382E+03  0.61506390382E+03  0.00000000000E+00 0.  1.
         -2   -1    0    0    0  501 -0.00000000000E+00 -0.00000000000E+00 -0.12269450332E+04  0.12269450332E+04  0.00000000000E+00 0. -1.
         23    2    1    2    0    0  0.77272692865E+03 -0.33854747257E+03 -0.51558131357E+03  0.99289472088E+03  0.91074356530E+02 0.  0.
         13    1    3    3    0    0  0.24907317442E+03 -0.12489555474E+03 -0.21827201879E+03  0.35394776450E+03  0.00000000000E+00 0. -1.
        -13    1    3    3    0    0  0.52365375422E+03 -0.21365191783E+03 -0.29730929479E+03  0.63894695638E+03  0.00000000000E+00 0.  1.
         22    1    1    2    0    0 -0.77272692865E+03  0.33854747257E+03 -0.96299815762E+02  0.84911421608E+03  0.00000000000E+00 0.  1.
<mgrwt>
<rscale>  0 0.17374114E+04</rscale>
<asrwt>0</asrwt>
<pdfrwt beam="1">  1        2 0.94625216E-01 0.17374114E+04</pdfrwt>
<pdfrwt beam="2">  1       -2 0.18876077E+00 0.17374114E+04</pdfrwt>
<totfact> 0.72077281E+00</totfact>
</mgrwt>
</event>
<event>
 6    1  0.1603085E-006  0.4648101E+04  0.7818608E-02  0.7885210E-01
          1   -1    0    0  501    0  0.00000000000E+00  0.00000000000E+00  0.29996779787E+04  0.29996779787E+04  0.00000000000E+00 0. -1.
         -1   -1    0    0    0  501 -0.00000000000E+00 -0.00000000000E+00 -0.18005970702E+04  0.18005970702E+04  0.00000000000E+00 0.  1.
         23    2    1    2    0    0 -0.19022643235E+03  0.14875712542E+04 -0.12325908036E+04  0.19433393396E+04  0.90737906904E+02 0.  0.
         11    1    3    3    0    0 -0.68931540511E+02  0.81661068113E+03 -0.63611302488E+03  0.10374219692E+04  0.00000000000E+00 0.  1.
        -11    1    3    3    0    0 -0.12129489184E+03  0.67096057311E+03 -0.59647777872E+03  0.90591737038E+03  0.00000000000E+00 0. -1.
         22    1    1    2    0    0  0.19022643235E+03 -0.14875712542E+04  0.24316717121E+04  0.28569357094E+04  0.00000000000E+00 0. -1.
<mgrwt>
<rscale>  0 0.46481013E+04</rscale>
<asrwt>0</asrwt>
<pdfrwt beam="1">  1        1 0.46148892E+00 0.46481013E+04</pdfrwt>
<pdfrwt beam="2">  1       -1 0.27701493E+00 0.46481013E+04</pdfrwt>
<totfact> 0.20658267E-02</totfact>
</mgrwt>
</event>
<event>
 6    1  0.1603085E-006  0.4684843E+04  0.7818608E-02  0.7879052E-01
         -2   -1    0    0    0  501 -0.00000000000E+00  0.00000000000E+00  0.29354937114E+04  0.29354937114E+04  0.00000000000E+00 0.  1.
          2   -1    0    0  501    0  0.00000000000E+00 -0.00000000000E+00 -0.18691707836E+04  0.18691707836E+04  0.00000000000E+00 0. -1.
         23    2    1    2    0    0  0.23022468613E+04  0.42260834031E+03  0.59535427389E+03  0.24170401751E+04  0.93263480150E+02 0.  0.
         13    1    3    3    0    0  0.17555077020E+04  0.36241701876E+03  0.45647986416E+03  0.18497370769E+04  0.00000000000E+00 0. -1.
        -13    1    3    3    0    0  0.54673915931E+03  0.60191321557E+02  0.13887440973E+03  0.56730309817E+03  0.00000000000E+00 0.  1.
         22    1    1    2    0    0 -0.23022468613E+04 -0.42260834031E+03  0.47096865391E+03  0.23876243199E+04  0.00000000000E+00 0. -1.
<mgrwt>
<rscale>  0 0.46848433E+04</rscale>
<asrwt>0</asrwt>
<pdfrwt beam="1">  1        2 0.28756474E+00 0.46848433E+04</pdfrwt>
<pdfrwt beam="2">  1       -2 0.45161442E+00 0.46848433E+04</pdfrwt>
<totfact> 0.20007001E-02</totfact>
</mgrwt>
</event>
<event>
 6    1  0.1603085E-006  0.3988365E+04  0.7818608E-02  0.8006898E-01
          2   -1    0    0  501    0  0.00000000000E+00  0.00000000000E+00  0.20798617679E+04  0.20798617679E+04  0.00000000000E+00 0. -1.
         -2   -1    0    0    0  501 -0.00000000000E+00 -0.00000000000E+00 -0.19120325313E+04  0.19120325313E+04  0.00000000000E+00 0.  1.
         23    2    1    2    0    0  0.68552895945E+03 -0.18652715837E+04  0.23640059445E+03  0.20034551962E+04  0.93591915672E+02 0.  0.
         11    1    3    3    0    0  0.36694657699E+03 -0.11296624346E+04  0.13347828070E+03  0.11952420081E+04  0.00000000000E+00 0.  1.
        -11    1    3    3    0    0  0.31858238247E+03 -0.73560914916E+03  0.10292231375E+03  0.80821318810E+03  0.00000000000E+00 0. -1.
         22    1    1    2    0    0 -0.68552895945E+03  0.18652715837E+04 -0.68571357865E+02  0.19884391030E+04  0.00000000000E+00 0. -1.
<mgrwt>
<rscale>  0 0.39883648E+04</rscale>
<asrwt>0</asrwt>
<pdfrwt beam="1">  1        2 0.31997873E+00 0.39883648E+04</pdfrwt>
<pdfrwt beam="2">  1       -2 0.29415885E+00 0.39883648E+04</pdfrwt>
<totfact> 0.16432557E-01</totfact>
</mgrwt>
</event>
<event>
 6    1  0.1603085E-006  0.2600926E+04  0.7818608E-02  0.8367887E-01
         -2   -1    0    0    0  501 -0.00000000000E+00  0.00000000000E+00  0.12778412862E+04  0.12778412862E+04  0.00000000000E+00 0.  1.
          2   -1    0    0  501    0  0.00000000000E+00 -0.00000000000E+00 -0.13234856932E+04  0.13234856932E+04  0.00000000000E+00 0. -1.
         23    2    1    2    0    0 -0.70561244373E+02  0.74234157659E+03  0.10407526784E+04  0.12836363736E+04  0.92229585597E+02 0.  0.
         13    1    3    3    0    0  0.13655162162E+02  0.28691904387E+03  0.36682020060E+03  0.46590348868E+03  0.00000000000E+00 0.  1.
        -13    1    3    3    0    0 -0.84216406535E+02  0.45542253272E+03  0.67393247778E+03  0.81773288489E+03  0.00000000000E+00 0. -1.
         22    1    1    2    0    0  0.70561244373E+02 -0.74234157659E+03 -0.10863970854E+04  0.13176906058E+04  0.00000000000E+00 0. -1.
<mgrwt>
<rscale>  0 0.26009265E+04</rscale>
<asrwt>0</asrwt>
<pdfrwt beam="1">  1        2 0.20361318E+00 0.26009265E+04</pdfrwt>
<pdfrwt beam="2">  1       -2 0.19659097E+00 0.26009265E+04</pdfrwt>
<totfact> 0.19846985E+00</totfact>
</mgrwt>
</event>
<event>
 6    1  0.1603085E-006  0.2352120E+04  0.7818608E-02  0.8457650E-01
         -2   -1    0    0    0  501 -0.00000000000E+00  0.00000000000E+00  0.81405150136E+03  0.81405150136E+03  0.00000000000E+00 0.  1.
          2   -1    0    0  501    0  0.00000000000E+00 -0.00000000000E+00 -0.16990537229E+04  0.16990537229E+04  0.00000000000E+00 0. -1.
         23    2    1    2    0    0  0.27417219619E+03  0.91256951331E+03 -0.11763142319E+04  0.15167035998E+04  0.93386977966E+02 0.  0.
         11    1    3    3    0    0  0.79223290107E+02  0.38855865845E+03 -0.53402291345E+03  0.66515760001E+03  0.00000000000E+00 0. -1.
        -11    1    3    3    0    0  0.19494890608E+03  0.52401085486E+03 -0.64229131844E+03  0.85154599978E+03  0.00000000000E+00 0.  1.
         22    1    1    2    0    0 -0.27417219619E+03 -0.91256951331E+03  0.29131201040E+03  0.99640162444E+03  0.00000000000E+00 0.  1.
<mgrwt>
<rscale>  0 0.23521201E+04</rscale>
<asrwt>0</asrwt>
<pdfrwt beam="1">  1        2 0.26139288E+00 0.23521201E+04</pdfrwt>
<pdfrwt beam="2">  1       -2 0.12523869E+00 0.23521201E+04</pdfrwt>
<totfact> 0.42303581E+00</totfact>
</mgrwt>
</event>
<event>
 6    1  0.1603085E-006  0.1878420E+04  0.7818608E-02  0.8665673E-01
         -1   -1    0    0    0  501 -0.00000000000E+00  0.00000000000E+00  0.49456795643E+03  0.49456795643E+03  0.00000000000E+00 0.  1.
          1   -1    0    0  501    0  0.00000000000E+00 -0.00000000000E+00 -0.17836089900E+04  0.17836089900E+04  0.00000000000E+00 0. -1.
         23    2    1    2    0    0 -0.44909576647E+03 -0.30076841769E+03 -0.15743802836E+04  0.16669755588E+04  0.89362116443E+02 0.  0.
         11    1    3    3    0    0 -0.27511458034E+03 -0.23011959006E+03 -0.10886554562E+04  0.11462171524E+04  0.00000000000E+00 0. -1.
        -11    1    3    3    0    0 -0.17398118614E+03 -0.70648827622E+02 -0.48572482738E+03  0.52075840647E+03  0.00000000000E+00 0.  1.
         22    1    1    2    0    0  0.44909576647E+03  0.30076841769E+03  0.28533925005E+03  0.61120138756E+03  0.00000000000E+00 0.  1.
<mgrwt>
<rscale>  0 0.18784205E+04</rscale>
<asrwt>0</asrwt>
<pdfrwt beam="1">  1        1 0.27440138E+00 0.18784205E+04</pdfrwt>
<pdfrwt beam="2">  1       -1 0.76087378E-01 0.18784205E+04</pdfrwt>
<totfact> 0.67960034E+00</totfact>
</mgrwt>
</event>
<event>
 6    1  0.1603085E-006  0.6805662E+04  0.7818608E-02  0.7597816E-01
         -2   -1    0    0    0  501 -0.00000000000E+00  0.00000000000E+00  0.40196617259E+04  0.40196617259E+04  0.00000000000E+00 0.  1.
          2   -1    0    0  501    0  0.00000000000E+00 -0.00000000000E+00 -0.28806546863E+04  0.28806546863E+04  0.00000000000E+00 0. -1.
         23    2    1    2    0    0  0.30455771829E+04 -0.11476046178E+04 -0.43548931307E+03  0.32848530255E+04  0.89842762871E+02 0.  0.
         11    1    3    3    0    0  0.25786970093E+04 -0.95621255913E+03 -0.33850068607E+03  0.27710293103E+04  0.00000000000E+00 0.  1.
        -11    1    3    3    0    0  0.46688017353E+03 -0.19139205866E+03 -0.96988627002E+02  0.51382371522E+03  0.00000000000E+00 0. -1.
         22    1    1    2    0    0 -0.30455771829E+04  0.11476046178E+04  0.15744963527E+04  0.36154633867E+04  0.00000000000E+00 0.  1.
<mgrwt>
<rscale>  0 0.68056616E+04</rscale>
<asrwt>0</asrwt>
<pdfrwt beam="1">  1        2 0.44317764E+00 0.68056616E+04</pdfrwt>
<pdfrwt beam="2">  1       -2 0.61840950E+00 0.68056616E+04</pdfrwt>
<totfact> 0.58123452E-04</totfact>
</mgrwt>
</event>
<event>
 6    1  0.1603085E-006  0.2462356E+04  0.7818608E-02  0.8416520E-01
          1   -1    0    0  501    0  0.00000000000E+00  0.00000000000E+00  0.71569083258E+03  0.71569083258E+03  0.00000000000E+00 0. -1.
         -1   -1    0    0    0  501 -0.00000000000E+00 -0.00000000000E+00 -0.21179528864E+04  0.21179528864E+04  0.00000000000E+00 0.  1.
         23    2    1    2    0    0 -0.70653771175E+03  0.77402897852E+03 -0.14418627713E+04  0.17848898801E+04  0.92451258834E+02 0.  0.
         11    1    3    3    0    0 -0.52740393676E+03  0.56528901050E+03 -0.99337248627E+03  0.12587674425E+04  0.00000000000E+00 0. -1.
        -11    1    3    3    0    0 -0.17913377498E+03  0.20873996801E+03 -0.44849028499E+03  0.52612243757E+03  0.00000000000E+00 0.  1.
         22    1    1    2    0    0  0.70653771175E+03 -0.77402897852E+03  0.39600717450E+02  0.10487538389E+04  0.00000000000E+00 0.  1.
<mgrwt>
<rscale>  0 0.24623562E+04</rscale>
<asrwt>0</asrwt>
<pdfrwt beam="1">  1        1 0.11010628E+00 0.24623562E+04</pdfrwt>
<pdfrwt beam="2">  1       -1 0.32583890E+00 0.24623562E+04</pdfrwt>
<totfact> 0.52629947E-01</totfact>
</mgrwt>
</event>
<event>
 6    1  0.1603085E-006  0.2939354E+04  0.7818608E-02  0.8261264E-01
         -1   -1    0    0    0  501 -0.00000000000E+00  0.00000000000E+00  0.11270050253E+04  0.11270050253E+04  0.00000000000E+00 0.  1.
          1   -1    0    0  501    0  0.00000000000E+00 -0.00000000000E+00 -0.19165400687E+04  0.19165400687E+04  0.00000000000E+00 0. -1.
         23    2    1    2    0    0  0.83772398547E+03  0.78043766677E+03 -0.13471051542E+04  0.17700660576E+04  0.87046678020E+02 0.  0.
         13    1    3    3    0    0  0.48450198437E+03  0.39538649213E+03 -0.75571807664E+03  0.98090899801E+03  0.00000000000E+00 0.  1.
        -13    1    3    3    0    0  0.35322200110E+03  0.38505117464E+03 -0.59138707760E+03  0.78915705959E+03  0.00000000000E+00 0. -1.
         22    1    1    2    0    0 -0.83772398547E+03 -0.78043766677E+03  0.55757011085E+03  0.12734790364E+04  0.00000000000E+00 0.  1.
<mgrwt>
<rscale>  0 0.29393539E+04</rscale>
<asrwt>0</asrwt>
<pdfrwt beam="1">  1        1 0.29485232E+00 0.29393539E+04</pdfrwt>
<pdfrwt beam="2">  1       -1 0.17338539E+00 0.29393539E+04</pdfrwt>
<totfact> 0.67502675E-01</totfact>
</mgrwt>
</event>
<event>
 6    1  0.1603085E-006  0.1587379E+04  0.7818608E-02  0.8828339E-01
         -2   -1    0    0    0  501 -0.00000000000E+00  0.00000000000E+00  0.83605190020E+03  0.83605190020E+03  0.00000000000E+00 0.  1.
          2   -1    0    0  501    0  0.00000000000E+00 -0.00000000000E+00 -0.75347346998E+03  0.75347346998E+03  0.00000000000E+00 0. -1.
         23    2    1    2    0    0  0.35964219660E+03 -0.15945472412E+03  0.72827738106E+03  0.83341991872E+03  0.97121050930E+02 0.  0.
         11    1    3    3    0    0  0.24205521036E+03 -0.11794406287E+03  0.58155796996E+03  0.64086753643E+03  0.00000000000E+00 0. -1.
        -11    1    3    3    0    0  0.11758698624E+03 -0.41510661247E+02  0.14671941110E+03  0.19255238228E+03  0.00000000000E+00 0.  1.
         22    1    1    2    0    0 -0.35964219660E+03  0.15945472412E+03 -0.64569895085E+03  0.75610545147E+03  0.00000000000E+00 0. -1.
<mgrwt>
<rscale>  0 0.15873789E+04</rscale>
<asrwt>0</asrwt>
<pdfrwt beam="1">  1        2 0.11591899E+00 0.15873789E+04</pdfrwt>
<pdfrwt beam="2">  1       -2 0.12862337E+00 0.15873789E+04</pdfrwt>
<totfact> 0.15959825E+01</totfact>
</mgrwt>
</event>
<event>
 6    1  0.1603085E-006  0.7972643E+03  0.7818608E-02  0.9563985E-01
         -2   -1    0    0    0  501 -0.00000000000E+00  0.00000000000E+00  0.19048392910E+03  0.19048392910E+03  0.00000000000E+00 0.  1.
          2   -1    0    0  501    0  0.00000000000E+00 -0.00000000000E+00 -0.83423103092E+03  0.83423103092E+03  0.00000000000E+00 0. -1.
         23    2    1    2    0    0  0.48256517380E+02  0.26534057081E+03  0.42035778930E+02  0.28780759168E+03  0.91279204269E+02 0.  0.
         13    1    3    3    0    0  0.57711899257E+02  0.26819606330E+03  0.37318604738E+02  0.27686182464E+03  0.00000000000E+00 0. -1.
        -13    1    3    3    0    0 -0.94553818765E+01 -0.28554924865E+01  0.47171741916E+01  0.10945767041E+02  0.00000000000E+00 0.  1.
         22    1    1    2    0    0 -0.48256517380E+02 -0.26534057081E+03 -0.68578288075E+03  0.73690736834E+03  0.00000000000E+00 0. -1.
<mgrwt>
<rscale>  0 0.79726433E+03</rscale>
<asrwt>0</asrwt>
<pdfrwt beam="1">  1        2 0.12834323E+00 0.79726433E+03</pdfrwt>
<pdfrwt beam="2">  1       -2 0.29305220E-01 0.79726433E+03</pdfrwt>
<totfact> 0.35026994E+02</totfact>
</mgrwt>
</event>
<event>
 6    1  0.1603085E-006  0.2461821E+04  0.7818608E-02  0.8416715E-01
         -2   -1    0    0    0  501 -0.00000000000E+00  0.00000000000E+00  0.57631061298E+03  0.57631061298E+03  0.00000000000E+00 0.  1.
          2   -1    0    0  501    0  0.00000000000E+00 -0.00000000000E+00 -0.26290339802E+04  0.26290339802E+04  0.00000000000E+00 0. -1.
         23    2    1    2    0    0 -0.10376462857E+04 -0.46281841678E+03 -0.16388675114E+04  0.19961351942E+04  0.88081171264E+02 0.  0.
         11    1    3    3    0    0 -0.14049140592E+03 -0.81486260777E+02 -0.19157832928E+03  0.25115752444E+03  0.00000000000E+00 0.  1.
        -11    1    3    3    0    0 -0.89715487976E+03 -0.38133215601E+03 -0.14472891821E+04  0.17449776698E+04  0.00000000000E+00 0. -1.
         22    1    1    2    0    0  0.10376462857E+04  0.46281841678E+03 -0.41385585586E+03  0.12092093990E+04  0.00000000000E+00 0.  1.
<mgrwt>
<rscale>  0 0.24618206E+04</rscale>
<asrwt>0</asrwt>
<pdfrwt beam="1">  1        2 0.40446677E+00 0.24618206E+04</pdfrwt>
<pdfrwt beam="2">  1       -2 0.88663171E-01 0.24618206E+04</pdfrwt>
<totfact> 0.28631346E+00</totfact>
</mgrwt>
</event>
<event>
 6    1  0.1603085E-006  0.3197386E+04  0.7818608E-02  0.8189508E-01
          1   -1    0    0  501    0  0.00000000000E+00  0.00000000000E+00  0.20238084202E+04  0.20238084202E+04  0.00000000000E+00 0. -1.
         -1   -1    0    0    0  501 -0.00000000000E+00 -0.00000000000E+00 -0.12628762385E+04  0.12628762385E+04  0.00000000000E+00 0.  1.
         23    2    1    2    0    0  0.66169014197E+03 -0.98072668899E+03 -0.72254184810E+03  0.13892248095E+04  0.90665134716E+02 0.  0.
         11    1    3    3    0    0  0.43564729590E+03 -0.58398331807E+03 -0.47615959804E+03  0.87037523230E+03  0.00000000000E+00 0.  1.
        -11    1    3    3    0    0  0.22604284607E+03 -0.39674337092E+03 -0.24638225006E+03  0.51884957721E+03  0.00000000000E+00 0. -1.
         22    1    1    2    0    0 -0.66169014197E+03  0.98072668899E+03  0.14834740298E+04  0.18974598493E+04  0.00000000000E+00 0. -1.
<mgrwt>
<rscale>  0 0.31973862E+04</rscale>
<asrwt>0</asrwt>
<pdfrwt beam="1">  1        1 0.31135514E+00 0.31973862E+04</pdfrwt>
<pdfrwt beam="2">  1       -1 0.19428865E+00 0.31973862E+04</pdfrwt>
<totfact> 0.39618904E-01</totfact>
</mgrwt>
</event>
<event>
 6    1  0.1603085E-006  0.2932307E+04  0.7818608E-02  0.8263329E-01
          1   -1    0    0  501    0  0.00000000000E+00  0.00000000000E+00  0.27792361539E+04  0.27792361539E+04  0.00000000000E+00 0. -1.
         -1   -1    0    0    0  501 -0.00000000000E+00 -0.00000000000E+00 -0.77345236843E+03  0.77345236843E+03  0.00000000000E+00 0.  1.
         23    2    1    2    0    0 -0.76780707443E+02  0.69129632489E+03 -0.55790424774E+03  0.89632216631E+03  0.91380470195E+02 0.  0.
         11    1    3    3    0    0  0.14693412285E+02  0.26393121932E+03 -0.21894486068E+03  0.34323816354E+03  0.00000000000E+00 0.  1.
        -11    1    3    3    0    0 -0.91474119728E+02  0.42736510557E+03 -0.33895938706E+03  0.55308400276E+03  0.00000000000E+00 0. -1.
         22    1    1    2    0    0  0.76780707443E+02 -0.69129632489E+03  0.25636880332E+04  0.26563663560E+04  0.00000000000E+00 0. -1.
<mgrwt>
<rscale>  0 0.29323075E+04</rscale>
<asrwt>0</asrwt>
<pdfrwt beam="1">  1        1 0.42757479E+00 0.29323075E+04</pdfrwt>
<pdfrwt beam="2">  1       -1 0.11899267E+00 0.29323075E+04</pdfrwt>
<totfact> 0.46620754E-01</totfact>
</mgrwt>
</event>
<event>
 6    1  0.1603085E-006  0.2607033E+04  0.7818608E-02  0.8365816E-01
         -1   -1    0    0    0  501 -0.00000000000E+00  0.00000000000E+00  0.64812543782E+03  0.64812543782E+03  0.00000000000E+00 0.  1.
          1   -1    0    0  501    0  0.00000000000E+00 -0.00000000000E+00 -0.26216449182E+04  0.26216449182E+04  0.00000000000E+00 0. -1.
         23    2    1    2    0    0 -0.14193914549E+03  0.54995653125E+03  0.48118488803E+03  0.75021237027E+03  0.93170793429E+02 0.  0.
         13    1    3    3    0    0  0.72132157130E-01  0.67359954253E+02  0.27376895000E+02  0.72710817764E+02  0.00000000000E+00 0.  1.
        -13    1    3    3    0    0 -0.14201127765E+03  0.48259657700E+03  0.45380799303E+03  0.67750155251E+03  0.00000000000E+00 0. -1.
         22    1    1    2    0    0  0.14193914549E+03 -0.54995653125E+03 -0.24547043684E+04  0.25195579858E+04  0.00000000000E+00 0. -1.
<mgrwt>
<rscale>  0 0.26070326E+04</rscale>
<asrwt>0</asrwt>
<pdfrwt beam="1">  1        1 0.40332999E+00 0.26070326E+04</pdfrwt>
<pdfrwt beam="2">  1       -1 0.99711605E-01 0.26070326E+04</pdfrwt>
<totfact> 0.94061467E-01</totfact>
</mgrwt>
</event>
<event>
 6    1  0.1603085E-006  0.4031069E+04  0.7818608E-02  0.7998308E-01
         -2   -1    0    0    0  501 -0.00000000000E+00  0.00000000000E+00  0.16210401492E+04  0.16210401492E+04  0.00000000000E+00 0.  1.
          2   -1    0    0  501    0  0.00000000000E+00 -0.00000000000E+00 -0.25060330366E+04  0.25060330366E+04  0.00000000000E+00 0. -1.
         23    2    1    2    0    0 -0.14933208467E+04 -0.10886116102E+04  0.37834390060E+03  0.18885240510E+04  0.91085644976E+02 0.  0.
         13    1    3    3    0    0 -0.86133061096E+03 -0.63682083681E+03  0.26452700023E+03  0.11033611074E+04  0.00000000000E+00 0. -1.
        -13    1    3    3    0    0 -0.63199023579E+03 -0.45179077344E+03  0.11381690037E+03  0.78516294353E+03  0.00000000000E+00 0.  1.
         22    1    1    2    0    0  0.14933208467E+04  0.10886116102E+04 -0.12633367880E+04  0.22385491348E+04  0.00000000000E+00 0. -1.
<mgrwt>
<rscale>  0 0.40310694E+04</rscale>
<asrwt>0</asrwt>
<pdfrwt beam="1">  1        2 0.38554355E+00 0.40310694E+04</pdfrwt>
<pdfrwt beam="2">  1       -2 0.24939079E+00 0.40310694E+04</pdfrwt>
<totfact> 0.17613513E-01</totfact>
</mgrwt>
</event>
<event>
 6    1  0.1603085E-006  0.4072907E+04  0.7818608E-02  0.7989998E-01
         -1   -1    0    0    0  501 -0.00000000000E+00  0.00000000000E+00  0.18544232717E+04  0.18544232717E+04  0.00000000000E+00 0.  1.
          1   -1    0    0  501    0  0.00000000000E+00 -0.00000000000E+00 -0.22363522651E+04  0.22363522651E+04  0.00000000000E+00 0. -1.
         23    2    1    2    0    0  0.14522022076E+04 -0.13598004945E+04  0.24102069971E+03  0.20060657353E+04  0.90885203281E+02 0.  0.
         11    1    3    3    0    0  0.11102206133E+04 -0.10101362242E+04  0.14875173633E+03  0.15083408371E+04  0.00000000000E+00 0. -1.
        -11    1    3    3    0    0  0.34198159421E+03 -0.34966427034E+03  0.92268963382E+02  0.49772489825E+03  0.00000000000E+00 0.  1.
         22    1    1    2    0    0 -0.14522022076E+04  0.13598004945E+04 -0.62294969312E+03  0.20847098016E+04  0.00000000000E+00 0. -1.
<mgrwt>
<rscale>  0 0.40729074E+04</rscale>
<asrwt>0</asrwt>
<pdfrwt beam="1">  1        1 0.34405420E+00 0.40729074E+04</pdfrwt>
<pdfrwt beam="2">  1       -1 0.28529589E+00 0.40729074E+04</pdfrwt>
<totfact> 0.65838932E-02</totfact>
</mgrwt>
</event>
<event>
 6    1  0.1603085E-006  0.2591152E+04  0.7818608E-02  0.8371213E-01
         -1   -1    0    0    0  501 -0.00000000000E+00  0.00000000000E+00  0.34387689896E+03  0.34387689896E+03  0.00000000000E+00 0.  1.
          1   -1    0    0  501    0  0.00000000000E+00 -0.00000000000E+00 -0.48811584883E+04  0.48811584883E+04  0.00000000000E+00 0. -1.
         23    2    1    2    0    0  0.52387779080E+03 -0.59634427832E+03 -0.43321318950E+04  0.44051812325E+04  0.90446103143E+02 0.  0.
         11    1    3    3    0    0  0.20574766118E+03 -0.29423534504E+03 -0.18327006450E+04  0.18675380030E+04  0.00000000000E+00 0. -1.
        -11    1    3    3    0    0  0.31813012963E+03 -0.30210893328E+03 -0.24994312500E+04  0.25376432295E+04  0.00000000000E+00 0.  1.
         22    1    1    2    0    0 -0.52387779080E+03  0.59634427832E+03 -0.20514969434E+03  0.81985415476E+03  0.00000000000E+00 0.  1.
<mgrwt>
<rscale>  0 0.25911524E+04</rscale>
<asrwt>0</asrwt>
<pdfrwt beam="1">  1        1 0.75094741E+00 0.25911524E+04</pdfrwt>
<pdfrwt beam="2">  1       -1 0.52904142E-01 0.25911524E+04</pdfrwt>
<totfact> 0.38801161E-02</totfact>
</mgrwt>
</event>
<event>
 6    1  0.1603085E-006  0.2586446E+04  0.7818608E-02  0.8372820E-01
         -1   -1    0    0    0  501 -0.00000000000E+00  0.00000000000E+00  0.10096726785E+04  0.10096726785E+04  0.00000000000E+00 0.  1.
          1   -1    0    0  501    0  0.00000000000E+00 -0.00000000000E+00 -0.16564035779E+04  0.16564035779E+04  0.00000000000E+00 0. -1.
         23    2    1    2    0    0  0.10968203276E+04  0.38774685862E+03  0.25446265759E+03  0.11945082884E+04  0.93468441814E+02 0.  0.
         13    1    3    3    0    0  0.14636963790E+03  0.20521242677E+02  0.42196121200E+02  0.15370655466E+03  0.00000000000E+00 0.  1.
        -13    1    3    3    0    0  0.95045068968E+03  0.36722561595E+03  0.21226653639E+03  0.10408017338E+04  0.00000000000E+00 0. -1.
         22    1    1    2    0    0 -0.10968203276E+04 -0.38774685862E+03 -0.90119355703E+03  0.14715679680E+04  0.00000000000E+00 0. -1.
<mgrwt>
<rscale>  0 0.25864458E+04</rscale>
<asrwt>0</asrwt>
<pdfrwt beam="1">  1        1 0.25483132E+00 0.25864458E+04</pdfrwt>
<pdfrwt beam="2">  1       -1 0.15533426E+00 0.25864458E+04</pdfrwt>
<totfact> 0.14279516E+00</totfact>
</mgrwt>
</event>
<event>
 6    1  0.1702918E-006  0.2311430E+04  0.7818608E-02  0.8473428E-01
          2   -1    0    0  501    0  0.00000000000E+00  0.00000000000E+00  0.18937950647E+04  0.18937950647E+04  0.00000000000E+00 0.  1.
         -2   -1    0    0    0  501 -0.00000000000E+00 -0.00000000000E+00 -0.70529148143E+03  0.70529148143E+03  0.00000000000E+00 0. -1.
         23    2    1    2    0    0 -0.31761175279E+03 -0.56838962515E+03  0.16663770230E+04  0.17914312880E+04  0.92030894345E+02 0.  0.
         13    1    3    3    0    0 -0.16230067134E+03 -0.21644418466E+03  0.76365456528E+03  0.81015917452E+03  0.00000000000E+00 0. -1.
        -13    1    3    3    0    0 -0.15531108145E+03 -0.35194544049E+03  0.90272245773E+03  0.98127211353E+03  0.00000000000E+00 0.  1.
         22    1    1    2    0    0  0.31761175279E+03  0.56838962515E+03 -0.47787343974E+03  0.80765525807E+03  0.00000000000E+00 0. -1.
<mgrwt>
<rscale>  0 0.23114303E+04</rscale>
<asrwt>0</asrwt>
<pdfrwt beam="1">  1        2 0.29135308E+00 0.23114303E+04</pdfrwt>
<pdfrwt beam="2">  1       -2 0.10850638E+00 0.23114303E+04</pdfrwt>
<totfact> 0.47081770E+00</totfact>
</mgrwt>
</event>
<event>
 6    1  0.1603085E-006  0.4371742E+04  0.7818608E-02  0.7933484E-01
         -2   -1    0    0    0  501 -0.00000000000E+00  0.00000000000E+00  0.18623048548E+04  0.18623048548E+04  0.00000000000E+00 0.  1.
          2   -1    0    0  501    0  0.00000000000E+00 -0.00000000000E+00 -0.25656547177E+04  0.25656547177E+04  0.00000000000E+00 0. -1.
         23    2    1    2    0    0 -0.22679839012E+03  0.21456803684E+04 -0.34853840724E+01  0.21596579961E+04  0.93427829848E+02 0.  0.
         11    1    3    3    0    0 -0.15395563577E+03  0.10701911268E+04  0.21341398871E+02  0.10814189017E+04  0.00000000000E+00 0.  1.
        -11    1    3    3    0    0 -0.72842754352E+02  0.10754892416E+04 -0.24826782943E+02  0.10782390944E+04  0.00000000000E+00 0. -1.
         22    1    1    2    0    0  0.22679839012E+03 -0.21456803684E+04 -0.69986447881E+03  0.22683015764E+04  0.00000000000E+00 0. -1.
<mgrwt>
<rscale>  0 0.43717416E+04</rscale>
<asrwt>0</asrwt>
<pdfrwt beam="1">  1        2 0.39471611E+00 0.43717416E+04</pdfrwt>
<pdfrwt beam="2">  1       -2 0.28650844E+00 0.43717416E+04</pdfrwt>
<totfact> 0.93788508E-02</totfact>
</mgrwt>
</event>
<event>
 6    1  0.1603085E-006  0.5087007E+04  0.7818608E-02  0.7815224E-01
          3   -1    0    0  501    0  0.00000000000E+00  0.00000000000E+00  0.37237024416E+04  0.37237024416E+04  0.00000000000E+00 0. -1.
         -3   -1    0    0    0  501 -0.00000000000E+00 -0.00000000000E+00 -0.17373598096E+04  0.17373598096E+04  0.00000000000E+00 0.  1.
         23    2    1    2    0    0 -0.45768781396E+03 -0.25493658404E+03  0.36645854248E+04  0.37029468772E+04  0.90324099538E+02 0.  0.
         11    1    3    3    0    0 -0.19243954052E+03 -0.15489665171E+03  0.15877283247E+04  0.16068314107E+04  0.00000000000E+00 0.  1.
        -11    1    3    3    0    0 -0.26524827344E+03 -0.10003993233E+03  0.20768571001E+04  0.20961154665E+04  0.00000000000E+00 0. -1.
         22    1    1    2    0    0  0.45768781396E+03  0.25493658404E+03 -0.16782427928E+04  0.17581153740E+04  0.00000000000E+00 0.  1.
<mgrwt>
<rscale>  0 0.50870074E+04</rscale>
<asrwt>0</asrwt>
<pdfrwt beam="1">  1        3 0.57287730E+00 0.50870074E+04</pdfrwt>
<pdfrwt beam="2">  1       -3 0.26728613E+00 0.50870074E+04</pdfrwt>
<totfact> 0.16482752E-04</totfact>
</mgrwt>
</event>
<event>
 6    1  0.1603085E-006  0.6298823E+03  0.7818608E-02  0.9845279E-01
          1   -1    0    0  501    0  0.00000000000E+00  0.00000000000E+00  0.24781276491E+03  0.24781276491E+03  0.00000000000E+00 0. -1.
         -1   -1    0    0    0  501 -0.00000000000E+00 -0.00000000000E+00 -0.40025347438E+03  0.40025347438E+03  0.00000000000E+00 0.  1.
         23    2    1    2    0    0 -0.41180800204E+02 -0.18234821524E+03 -0.32994952057E+03  0.39027541725E+03  0.92203499267E+02 0.  0.
         13    1    3    3    0    0  0.81817303036E+01 -0.94830380738E+01 -0.87791579013E+02  0.88680494290E+02  0.00000000000E+00 0.  1.
        -13    1    3    3    0    0 -0.49362530507E+02 -0.17286517717E+03 -0.24215794156E+03  0.30159492296E+03  0.00000000000E+00 0. -1.
         22    1    1    2    0    0  0.41180800204E+02  0.18234821524E+03  0.17750881110E+03  0.25779082204E+03  0.00000000000E+00 0. -1.
<mgrwt>
<rscale>  0 0.62988228E+03</rscale>
<asrwt>0</asrwt>
<pdfrwt beam="1">  1        1 0.38125041E-01 0.62988228E+03</pdfrwt>
<pdfrwt beam="2">  1       -1 0.61577457E-01 0.62988228E+03</pdfrwt>
<totfact> 0.30521791E+02</totfact>
</mgrwt>
</event>
<event>
 6    1  0.1603085E-006  0.5890834E+03  0.7818608E-02  0.9928317E-01
          1   -1    0    0  501    0  0.00000000000E+00  0.00000000000E+00  0.16658849821E+04  0.16658849821E+04  0.00000000000E+00 0. -1.
         -1   -1    0    0    0  501 -0.00000000000E+00 -0.00000000000E+00 -0.52077304271E+02  0.52077304271E+02  0.00000000000E+00 0.  1.
         23    2    1    2    0    0  0.17125187315E+03 -0.48881489080E+02  0.14844083597E+04  0.14978241761E+04  0.91063057196E+02 0.  0.
         11    1    3    3    0    0  0.10003301249E+03 -0.36486606894E+02  0.52458684747E+03  0.53528425776E+03  0.00000000000E+00 0.  1.
        -11    1    3    3    0    0  0.71218860666E+02 -0.12394882187E+02  0.95982151218E+03  0.96253991838E+03  0.00000000000E+00 0. -1.
         22    1    1    2    0    0 -0.17125187315E+03  0.48881489080E+02  0.12939931819E+03  0.22013811024E+03  0.00000000000E+00 0.  1.
<mgrwt>
<rscale>  0 0.58908335E+03</rscale>
<asrwt>0</asrwt>
<pdfrwt beam="1">  1        1 0.25628996E+00 0.58908335E+03</pdfrwt>
<pdfrwt beam="2">  1       -1 0.80118942E-02 0.58908335E+03</pdfrwt>
<totfact> 0.46419535E+02</totfact>
</mgrwt>
</event>
<event>
 6    1  0.1603085E-006  0.2065235E+04  0.7818608E-02  0.8576714E-01
         -1   -1    0    0    0  501 -0.00000000000E+00  0.00000000000E+00  0.45463978806E+03  0.45463978806E+03  0.00000000000E+00 0.  1.
          1   -1    0    0  501    0  0.00000000000E+00 -0.00000000000E+00 -0.23453706339E+04  0.23453706339E+04  0.00000000000E+00 0. -1.
         23    2    1    2    0    0 -0.42255564935E+03 -0.65321669146E+03 -0.18636303207E+04  0.20215634030E+04  0.91407315554E+02 0.  0.
         11    1    3    3    0    0 -0.12998294698E+03 -0.23905048195E+03 -0.55476627873E+03  0.61790478509E+03  0.00000000000E+00 0. -1.
        -11    1    3    3    0    0 -0.29257270237E+03 -0.41416620951E+03 -0.13088640420E+04  0.14036586179E+04  0.00000000000E+00 0.  1.
         22    1    1    2    0    0  0.42255564935E+03  0.65321669146E+03 -0.27100525097E+02  0.77844701891E+03  0.00000000000E+00 0.  1.
<mgrwt>
<rscale>  0 0.20652349E+04</rscale>
<asrwt>0</asrwt>
<pdfrwt beam="1">  1        1 0.36082625E+00 0.20652349E+04</pdfrwt>
<pdfrwt beam="2">  1       -1 0.69944583E-01 0.20652349E+04</pdfrwt>
<totfact> 0.33028734E+00</totfact>
</mgrwt>
</event>
<event>
 6    1  0.1603085E-006  0.3454881E+04  0.7818608E-02  0.8124567E-01
         -3   -1    0    0    0  501 -0.00000000000E+00  0.00000000000E+00  0.94450140234E+03  0.94450140234E+03  0.00000000000E+00 0.  1.
          3   -1    0    0  501    0  0.00000000000E+00 -0.00000000000E+00 -0.31593930295E+04  0.31593930295E+04  0.00000000000E+00 0. -1.
         23    2    1    2    0    0  0.11866579285E+04  0.27744350055E+03 -0.25607622549E+04  0.28371038310E+04  0.80764389254E+02 0.  0.
         11    1    3    3    0    0  0.78977658554E+03  0.22202944765E+03 -0.16955936210E+04  0.18836352774E+04  0.00000000000E+00 0.  1.
        -11    1    3    3    0    0  0.39688134293E+03  0.55414052902E+02 -0.86516863388E+03  0.95346855358E+03  0.00000000000E+00 0. -1.
         22    1    1    2    0    0 -0.11866579285E+04 -0.27744350055E+03  0.34587062775E+03  0.12667906008E+04  0.00000000000E+00 0.  1.
<mgrwt>
<rscale>  0 0.34548813E+04</rscale>
<asrwt>0</asrwt>
<pdfrwt beam="1">  1        3 0.48606046E+00 0.34548813E+04</pdfrwt>
<pdfrwt beam="2">  1       -3 0.14530791E+00 0.34548813E+04</pdfrwt>
<totfact> 0.30010448E-03</totfact>
</mgrwt>
</event>
<event>
 6    1  0.1603085E-006  0.3232460E+04  0.7818608E-02  0.8180297E-01
          2   -1    0    0  501    0  0.00000000000E+00  0.00000000000E+00  0.29170228754E+04  0.29170228754E+04  0.00000000000E+00 0.  1.
         -2   -1    0    0    0  501 -0.00000000000E+00 -0.00000000000E+00 -0.89550171044E+03  0.89550171044E+03  0.00000000000E+00 0. -1.
         23    2    1    2    0    0 -0.11910752591E+03 -0.95866076256E+03  0.25373478334E+04  0.27174016647E+04  0.11366934060E+03 0.  0.
         11    1    3    3    0    0 -0.82635611855E+02 -0.26081280956E+03  0.68365898791E+03  0.73637054377E+03  0.00000000000E+00 0.  1.
        -11    1    3    3    0    0 -0.36471914056E+02 -0.69784795299E+03  0.18536888455E+04  0.19810311209E+04  0.00000000000E+00 0. -1.
         22    1    1    2    0    0  0.11910752591E+03  0.95866076256E+03 -0.51582666852E+03  0.10951229211E+04  0.00000000000E+00 0. -1.
<mgrwt>
<rscale>  0 0.32324597E+04</rscale>
<asrwt>0</asrwt>
<pdfrwt beam="1">  1        2 0.44877274E+00 0.32324597E+04</pdfrwt>
<pdfrwt beam="2">  1       -2 0.13776950E+00 0.32324597E+04</pdfrwt>
<totfact> 0.61630204E-01</totfact>
</mgrwt>
</event>
<event>
 6    1  0.1603085E-006  0.7552775E+03  0.7818608E-02  0.9627107E-01
         -2   -1    0    0    0  501 -0.00000000000E+00  0.00000000000E+00  0.92174443482E+02  0.92174443482E+02  0.00000000000E+00 0.  1.
          2   -1    0    0  501    0  0.00000000000E+00 -0.00000000000E+00 -0.15471860403E+04  0.15471860403E+04  0.00000000000E+00 0. -1.
         23    2    1    2    0    0 -0.70278871763E+02  0.34547209216E+03 -0.99570463358E+03  0.10603501447E+04  0.92868863260E+02 0.  0.
         13    1    3    3    0    0 -0.21304288012E+02  0.14672887732E+02 -0.38236932389E+02  0.46165239311E+02  0.00000000000E+00 0. -1.
        -13    1    3    3    0    0 -0.48974583751E+02  0.33079920443E+03 -0.95746770119E+03  0.10141849054E+04  0.00000000000E+00 0.  1.
         22    1    1    2    0    0  0.70278871763E+02 -0.34547209216E+03 -0.45930696323E+03  0.57901033907E+03  0.00000000000E+00 0.  1.
<mgrwt>
<rscale>  0 0.75527746E+03</rscale>
<asrwt>0</asrwt>
<pdfrwt beam="1">  1        2 0.23802862E+00 0.75527746E+03</pdfrwt>
<pdfrwt beam="2">  1       -2 0.14180684E-01 0.75527746E+03</pdfrwt>
<totfact> 0.46590449E+02</totfact>
</mgrwt>
</event>
<event>
 6    1  0.1603085E-006  0.4805645E+04  0.7818608E-02  0.7859208E-01
          1   -1    0    0  501    0  0.00000000000E+00  0.00000000000E+00  0.35562436419E+04  0.35562436419E+04  0.00000000000E+00 0. -1.
         -1   -1    0    0    0  501 -0.00000000000E+00 -0.00000000000E+00 -0.16234985136E+04  0.16234985136E+04  0.00000000000E+00 0.  1.
         23    2    1    2    0    0 -0.38792916716E+03  0.22706608374E+04  0.23324996173E+03  0.23171081414E+04  0.90525781077E+02 0.  0.
         11    1    3    3    0    0 -0.32406524886E+03  0.17526342011E+04  0.15112122701E+03  0.17887376983E+04  0.00000000000E+00 0. -1.
        -11    1    3    3    0    0 -0.63863918298E+02  0.51802663638E+03  0.82128734714E+02  0.52837044308E+03  0.00000000000E+00 0.  1.
         22    1    1    2    0    0  0.38792916716E+03 -0.22706608374E+04  0.16994951666E+04  0.28626340141E+04  0.00000000000E+00 0. -1.
<mgrwt>
<rscale>  0 0.48056451E+04</rscale>
<asrwt>0</asrwt>
<pdfrwt beam="1">  1        1 0.54711440E+00 0.48056451E+04</pdfrwt>
<pdfrwt beam="2">  1       -1 0.24976900E+00 0.48056451E+04</pdfrwt>
<totfact> 0.11550173E-02</totfact>
</mgrwt>
</event>
<event>
 6    1  0.1603085E-006  0.2545282E+04  0.7818608E-02  0.8387029E-01
          1   -1    0    0  501    0  0.00000000000E+00  0.00000000000E+00  0.10405349937E+04  0.10405349937E+04  0.00000000000E+00 0. -1.
         -1   -1    0    0    0  501 -0.00000000000E+00 -0.00000000000E+00 -0.15565209981E+04  0.15565209981E+04  0.00000000000E+00 0.  1.
         23    2    1    2    0    0 -0.95867914516E+03 -0.18176469013E+03 -0.10893830211E+04  0.14652926576E+04  0.90681309191E+02 0.  0.
         11    1    3    3    0    0 -0.56914575619E+03 -0.64711751008E+02 -0.65783978499E+03  0.87227729836E+03  0.00000000000E+00 0. -1.
        -11    1    3    3    0    0 -0.38953338897E+03 -0.11705293912E+03 -0.43154323613E+03  0.59301535927E+03  0.00000000000E+00 0.  1.
         22    1    1    2    0    0  0.95867914516E+03  0.18176469013E+03  0.57339701666E+03  0.11317633342E+04  0.00000000000E+00 0. -1.
<mgrwt>
<rscale>  0 0.25452816E+04</rscale>
<asrwt>0</asrwt>
<pdfrwt beam="1">  1        1 0.16008231E+00 0.25452816E+04</pdfrwt>
<pdfrwt beam="2">  1       -1 0.23946477E+00 0.25452816E+04</pdfrwt>
<totfact> 0.10178413E+00</totfact>
</mgrwt>
</event>
<event>
 6    1  0.1603085E-006  0.4202604E+04  0.7818608E-02  0.7964877E-01
          1   -1    0    0  501    0  0.00000000000E+00  0.00000000000E+00  0.28645307178E+04  0.28645307178E+04  0.00000000000E+00 0. -1.
         -1   -1    0    0    0  501 -0.00000000000E+00 -0.00000000000E+00 -0.15414288006E+04  0.15414288006E+04  0.00000000000E+00 0.  1.
         23    2    1    2    0    0 -0.15907531668E+04 -0.13644161932E+04  0.51741689856E+03  0.21606854738E+04  0.93350328698E+02 0.  0.
         13    1    3    3    0    0 -0.20058239630E+03 -0.13612829971E+03  0.72304219791E+02  0.25296662208E+03  0.00000000000E+00 0. -1.
        -13    1    3    3    0    0 -0.13901707706E+04 -0.12282878934E+04  0.44511267877E+03  0.19077188517E+04  0.00000000000E+00 0.  1.
         22    1    1    2    0    0  0.15907531668E+04  0.13644161932E+04  0.80568501871E+03  0.22452740446E+04  0.00000000000E+00 0. -1.
<mgrwt>
<rscale>  0 0.42026040E+04</rscale>
<asrwt>0</asrwt>
<pdfrwt beam="1">  1        1 0.44069703E+00 0.42026040E+04</pdfrwt>
<pdfrwt beam="2">  1       -1 0.23714289E+00 0.42026040E+04</pdfrwt>
<totfact> 0.48823385E-02</totfact>
</mgrwt>
</event>
<event>
 6    1  0.1603085E-006  0.2575834E+04  0.7818608E-02  0.8376456E-01
         -2   -1    0    0    0  501 -0.00000000000E+00  0.00000000000E+00  0.17432746681E+04  0.17432746681E+04  0.00000000000E+00 0.  1.
          2   -1    0    0  501    0  0.00000000000E+00 -0.00000000000E+00 -0.95150253583E+03  0.95150253583E+03  0.00000000000E+00 0. -1.
         23    2    1    2    0    0  0.40203863727E+01  0.10170124660E+04  0.12203116256E+04  0.15911574247E+04  0.91054747842E+02 0.  0.
         13    1    3    3    0    0  0.24232359380E+02  0.27459558955E+03  0.28009272766E+03  0.39299094281E+03  0.00000000000E+00 0. -1.
        -13    1    3    3    0    0 -0.20211973007E+02  0.74241687647E+03  0.94021889796E+03  0.11981664819E+04  0.00000000000E+00 0.  1.
         22    1    1    2    0    0 -0.40203863727E+01 -0.10170124660E+04 -0.42853949339E+03  0.11036197792E+04  0.00000000000E+00 0. -1.
<mgrwt>
<rscale>  0 0.25758341E+04</rscale>
<asrwt>0</asrwt>
<pdfrwt beam="1">  1        2 0.14638501E+00 0.25758341E+04</pdfrwt>
<pdfrwt beam="2">  1       -2 0.26819610E+00 0.25758341E+04</pdfrwt>
<totfact> 0.11934857E+00</totfact>
</mgrwt>
</event>
<event>
 6    1  0.1603085E-006  0.2288395E+04  0.7818608E-02  0.8482511E-01
         -1   -1    0    0    0  501 -0.00000000000E+00  0.00000000000E+00  0.13980532354E+04  0.13980532354E+04  0.00000000000E+00 0.  1.
          1   -1    0    0  501    0  0.00000000000E+00 -0.00000000000E+00 -0.93643615382E+03  0.93643615382E+03  0.00000000000E+00 0. -1.
         23    2    1    2    0    0 -0.83814853425E+03 -0.39581943560E+03 -0.45004800007E+03  0.10343743127E+04  0.90669870375E+02 0.  0.
         11    1    3    3    0    0 -0.76594181922E+03 -0.36464595494E+03 -0.43830698987E+03  0.95485420890E+03  0.00000000000E+00 0. -1.
        -11    1    3    3    0    0 -0.72206715036E+02 -0.31173480652E+02 -0.11741010202E+02  0.79520103828E+02  0.00000000000E+00 0.  1.
         22    1    1    2    0    0  0.83814853425E+03  0.39581943560E+03  0.91166508168E+03  0.13001150765E+04  0.00000000000E+00 0.  1.
<mgrwt>
<rscale>  0 0.22883947E+04</rscale>
<asrwt>0</asrwt>
<pdfrwt beam="1">  1        1 0.14406710E+00 0.22883947E+04</pdfrwt>
<pdfrwt beam="2">  1       -1 0.21508511E+00 0.22883947E+04</pdfrwt>
<totfact> 0.18260925E+00</totfact>
</mgrwt>
</event>
<event>
 6    1  0.1603085E-006  0.5743250E+03  0.7818608E-02  0.9960153E-01
         -1   -1    0    0    0  501 -0.00000000000E+00  0.00000000000E+00  0.64470236461E+02  0.64470236461E+02  0.00000000000E+00 0.  1.
          1   -1    0    0  501    0  0.00000000000E+00 -0.00000000000E+00 -0.12790754380E+04  0.12790754380E+04  0.00000000000E+00 0. -1.
         23    2    1    2    0    0  0.61298776884E+02 -0.27156185071E+03 -0.55274366678E+03  0.62551777110E+03  0.90793953481E+02 0.  0.
         11    1    3    3    0    0  0.65373797774E+02 -0.18498593149E+03 -0.45122170695E+03  0.49203105299E+03  0.00000000000E+00 0. -1.
        -11    1    3    3    0    0 -0.40750208899E+01 -0.86575919219E+02 -0.10152195983E+03  0.13348671811E+03  0.00000000000E+00 0.  1.
         22    1    1    2    0    0 -0.61298776884E+02  0.27156185071E+03 -0.66186153479E+03  0.71802790339E+03  0.00000000000E+00 0. -1.
<mgrwt>
<rscale>  0 0.57432498E+03</rscale>
<asrwt>0</asrwt>
<pdfrwt beam="1">  1        1 0.19678082E+00 0.57432498E+03</pdfrwt>
<pdfrwt beam="2">  1       -1 0.99184988E-02 0.57432498E+03</pdfrwt>
<totfact> 0.61141687E+02</totfact>
</mgrwt>
</event>
<event>
 6    1  0.1603085E-006  0.1398331E+04  0.7818608E-02  0.8955028E-01
          2   -1    0    0  501    0  0.00000000000E+00  0.00000000000E+00  0.16159361131E+04  0.16159361131E+04  0.00000000000E+00 0.  1.
         -2   -1    0    0    0  501 -0.00000000000E+00 -0.00000000000E+00 -0.30250720890E+03  0.30250720890E+03  0.00000000000E+00 0. -1.
         23    2    1    2    0    0 -0.12898857716E+03 -0.66949649958E+03  0.47182039536E+03  0.83531429083E+03  0.10135019983E+03 0.  0.
         13    1    3    3    0    0 -0.12564380430E+03 -0.54870695218E+03  0.42659507887E+03  0.70629246509E+03  0.00000000000E+00 0.  1.
        -13    1    3    3    0    0 -0.33447728620E+01 -0.12078954739E+03  0.45225316491E+02  0.12902182574E+03  0.00000000000E+00 0. -1.
         22    1    1    2    0    0  0.12898857716E+03  0.66949649958E+03  0.84160850885E+03  0.10831290312E+04  0.00000000000E+00 0.  1.
<mgrwt>
<rscale>  0 0.13983309E+04</rscale>
<asrwt>0</asrwt>
<pdfrwt beam="1">  1        2 0.24860555E+00 0.13983309E+04</pdfrwt>
<pdfrwt beam="2">  1       -2 0.46539572E-01 0.13983309E+04</pdfrwt>
<totfact> 0.46540530E+01</totfact>
</mgrwt>
</event>
<event>
 6    1  0.1603085E-006  0.3676761E+04  0.7818608E-02  0.8073132E-01
          2   -1    0    0  501    0  0.00000000000E+00  0.00000000000E+00  0.23919018438E+04  0.23919018438E+04  0.00000000000E+00 0. -1.
         -2   -1    0    0    0  501 -0.00000000000E+00 -0.00000000000E+00 -0.14129518359E+04  0.14129518359E+04  0.00000000000E+00 0.  1.
         23    2    1    2    0    0  0.13916220850E+04 -0.79786912652E+03 -0.43714980052E+03  0.16650999935E+04  0.90834298176E+02 0.  0.
         13    1    3    3    0    0  0.29175378778E+03 -0.17379038305E+03 -0.13097074042E+03  0.36397349460E+03  0.00000000000E+00 0.  1.
        -13    1    3    3    0    0  0.10998682972E+04 -0.62407874347E+03 -0.30617906010E+03  0.13011264989E+04  0.00000000000E+00 0. -1.
         22    1    1    2    0    0 -0.13916220850E+04  0.79786912652E+03  0.14160998084E+04  0.21397536863E+04  0.00000000000E+00 0.  1.
<mgrwt>
<rscale>  0 0.36767606E+04</rscale>
<asrwt>0</asrwt>
<pdfrwt beam="1">  1        2 0.36798490E+00 0.36767606E+04</pdfrwt>
<pdfrwt beam="2">  1       -2 0.21737721E+00 0.36767606E+04</pdfrwt>
<totfact> 0.33423860E-01</totfact>
</mgrwt>
</event>
<event>
 6    1  0.1603085E-006  0.3868959E+04  0.7818608E-02  0.8031516E-01
          2   -1    0    0  501    0  0.00000000000E+00  0.00000000000E+00  0.40913324123E+04  0.40913324123E+04  0.00000000000E+00 0. -1.
         -2   -1    0    0    0  501 -0.00000000000E+00 -0.00000000000E+00 -0.91466799437E+03  0.91466799437E+03  0.00000000000E+00 0.  1.
         23    2    1    2    0    0 -0.17627014489E+04  0.37101613825E+03  0.68043734979E+03  0.19277023463E+04  0.90950403651E+02 0.  0.
         13    1    3    3    0    0 -0.13830790617E+04  0.32329849486E+03  0.55701183508E+03  0.15256774863E+04  0.00000000000E+00 0.  1.
        -13    1    3    3    0    0 -0.37962238721E+03  0.47717643389E+02  0.12342551470E+03  0.40202485998E+03  0.00000000000E+00 0. -1.
         22    1    1    2    0    0  0.17627014489E+04 -0.37101613825E+03  0.24962270681E+04  0.30782980604E+04  0.00000000000E+00 0. -1.
<mgrwt>
<rscale>  0 0.38689589E+04</rscale>
<asrwt>0</asrwt>
<pdfrwt beam="1">  1        2 0.62943574E+00 0.38689589E+04</pdfrwt>
<pdfrwt beam="2">  1       -2 0.14071816E+00 0.38689589E+04</pdfrwt>
<totfact> 0.80994392E-02</totfact>
</mgrwt>
</event>
<event>
 6    1  0.1603085E-006  0.2251684E+04  0.7818608E-02  0.8497219E-01
          1   -1    0    0  501    0  0.00000000000E+00  0.00000000000E+00  0.92225459388E+03  0.92225459388E+03  0.00000000000E+00 0. -1.
         -1   -1    0    0    0  501 -0.00000000000E+00 -0.00000000000E+00 -0.13743716576E+04  0.13743716576E+04  0.00000000000E+00 0.  1.
         23    2    1    2    0    0 -0.58153752047E+03 -0.56107640253E+03  0.57039636737E+03  0.99335101809E+03  0.91660307800E+02 0.  0.
         11    1    3    3    0    0 -0.21632034925E+03 -0.25805705793E+03  0.27106008418E+03  0.43227480598E+03  0.00000000000E+00 0.  1.
        -11    1    3    3    0    0 -0.36521717123E+03 -0.30301934460E+03  0.29933628319E+03  0.56107621211E+03  0.00000000000E+00 0. -1.
         22    1    1    2    0    0  0.58153752047E+03  0.56107640253E+03 -0.10225134311E+04  0.13032752334E+04  0.00000000000E+00 0.  1.
<mgrwt>
<rscale>  0 0.22516843E+04</rscale>
<asrwt>0</asrwt>
<pdfrwt beam="1">  1        1 0.14188532E+00 0.22516843E+04</pdfrwt>
<pdfrwt beam="2">  1       -1 0.21144179E+00 0.22516843E+04</pdfrwt>
<totfact> 0.19907843E+00</totfact>
</mgrwt>
</event>
<event>
 6    1  0.1603085E-006  0.2165166E+04  0.7818608E-02  0.8533068E-01
         -1   -1    0    0    0  501 -0.00000000000E+00  0.00000000000E+00  0.78605237262E+03  0.78605237262E+03  0.00000000000E+00 0.  1.
          1   -1    0    0  501    0  0.00000000000E+00 -0.00000000000E+00 -0.14909770999E+04  0.14909770999E+04  0.00000000000E+00 0. -1.
         23    2    1    2    0    0  0.41854684244E+03 -0.65647358842E+03 -0.11412100052E+04  0.13845700195E+04  0.92384150702E+02 0.  0.
         13    1    3    3    0    0  0.30698524747E+03 -0.50066799541E+03 -0.78867627137E+03  0.98332021479E+03  0.00000000000E+00 0.  1.
        -13    1    3    3    0    0  0.11156159497E+03 -0.15580559300E+03 -0.35253373384E+03  0.40124980471E+03  0.00000000000E+00 0. -1.
         22    1    1    2    0    0 -0.41854684244E+03  0.65647358842E+03  0.43628527791E+03  0.89245945304E+03  0.00000000000E+00 0.  1.
<mgrwt>
<rscale>  0 0.21651661E+04</rscale>
<asrwt>0</asrwt>
<pdfrwt beam="1">  1        1 0.22938109E+00 0.21651661E+04</pdfrwt>
<pdfrwt beam="2">  1       -1 0.12093114E+00 0.21651661E+04</pdfrwt>
<totfact> 0.36866389E+00</totfact>
</mgrwt>
</event>
<event>
 6    1  0.1603085E-006  0.3089211E+04  0.7818608E-02  0.8218705E-01
         -2   -1    0    0    0  501 -0.00000000000E+00  0.00000000000E+00  0.62506448671E+03  0.62506448671E+03  0.00000000000E+00 0. -1.
          2   -1    0    0  501    0  0.00000000000E+00 -0.00000000000E+00 -0.38168955631E+04  0.38168955631E+04  0.00000000000E+00 0.  1.
         23    2    1    2    0    0 -0.12081179711E+04  0.94660415352E+03 -0.18314360168E+04  0.23910375321E+04  0.85405742819E+02 0.  0.
         13    1    3    3    0    0 -0.72526308969E+03  0.52311911083E+03 -0.10305899424E+04  0.13644690479E+04  0.00000000000E+00 0.  1.
        -13    1    3    3    0    0 -0.48285488136E+03  0.42348504268E+03 -0.80084607444E+03  0.10265684842E+04  0.00000000000E+00 0. -1.
         22    1    1    2    0    0  0.12081179711E+04 -0.94660415352E+03 -0.13603950596E+04  0.20509225177E+04  0.00000000000E+00 0.  1.
<mgrwt>
<rscale>  0 0.30892108E+04</rscale>
<asrwt>0</asrwt>
<pdfrwt beam="1">  1        2 0.58721470E+00 0.30892108E+04</pdfrwt>
<pdfrwt beam="2">  1       -2 0.96163768E-01 0.30892108E+04</pdfrwt>
<totfact> 0.36656694E-01</totfact>
</mgrwt>
</event>
<event>
 6    1  0.1603085E-006  0.2121942E+04  0.7818608E-02  0.8551639E-01
          2   -1    0    0  501    0  0.00000000000E+00  0.00000000000E+00  0.15269856317E+04  0.15269856317E+04  0.00000000000E+00 0. -1.
         -2   -1    0    0    0  501 -0.00000000000E+00 -0.00000000000E+00 -0.73717756197E+03  0.73717756197E+03  0.00000000000E+00 0.  1.
         23    2    1    2    0    0 -0.35587665864E+03 -0.51685005614E+02  0.14584848550E+04  0.15049213487E+04  0.91053049002E+02 0.  0.
         13    1    3    3    0    0 -0.10740193215E+03  0.14438809642E+02  0.55903997636E+03  0.56944652903E+03  0.00000000000E+00 0.  1.
        -13    1    3    3    0    0 -0.24847472649E+03 -0.66123815256E+02  0.89944487860E+03  0.93547481969E+03  0.00000000000E+00 0. -1.
         22    1    1    2    0    0  0.35587665864E+03  0.51685005614E+02 -0.66867678525E+03  0.75924184493E+03  0.00000000000E+00 0.  1.
<mgrwt>
<rscale>  0 0.21219421E+04</rscale>
<asrwt>0</asrwt>
<pdfrwt beam="1">  1        2 0.23492086E+00 0.21219421E+04</pdfrwt>
<pdfrwt beam="2">  1       -2 0.11341193E+00 0.21219421E+04</pdfrwt>
<totfact> 0.68785718E+00</totfact>
</mgrwt>
</event>
<event>
 6    1  0.1603085E-006  0.1463241E+04  0.7818608E-02  0.8909272E-01
         -1   -1    0    0    0  501 -0.00000000000E+00  0.00000000000E+00  0.18173563457E+03  0.18173563457E+03  0.00000000000E+00 0.  1.
          1   -1    0    0  501    0  0.00000000000E+00 -0.00000000000E+00 -0.29453159097E+04  0.29453159097E+04  0.00000000000E+00 0. -1.
         23    2    1    2    0    0  0.39003887094E+03  0.19657650570E+03 -0.26340942054E+04  0.26714867457E+04  0.87272595634E+02 0.  0.
         11    1    3    3    0    0  0.13842264525E+03  0.73008294510E+02 -0.70716484561E+03  0.72427422890E+03  0.00000000000E+00 0. -1.
        -11    1    3    3    0    0  0.25161622568E+03  0.12356821119E+03 -0.19269293598E+04  0.19472125168E+04  0.00000000000E+00 0.  1.
         22    1    1    2    0    0 -0.39003887094E+03 -0.19657650570E+03 -0.12948606967E+03  0.45556479854E+03  0.00000000000E+00 0.  1.
<mgrwt>
<rscale>  0 0.14632414E+04</rscale>
<asrwt>0</asrwt>
<pdfrwt beam="1">  1        1 0.45312549E+00 0.14632414E+04</pdfrwt>
<pdfrwt beam="2">  1       -1 0.27959331E-01 0.14632414E+04</pdfrwt>
<totfact> 0.73829000E+00</totfact>
</mgrwt>
</event>
<event>
 6    1  0.1603085E-006  0.2666724E+04  0.7818608E-02  0.8345883E-01
          2   -1    0    0  501    0  0.00000000000E+00  0.00000000000E+00  0.13735630077E+04  0.13735630077E+04  0.00000000000E+00 0. -1.
         -2   -1    0    0    0  501 -0.00000000000E+00 -0.00000000000E+00 -0.12943379150E+04  0.12943379150E+04  0.00000000000E+00 0.  1.
         23    2    1    2    0    0  0.96345536736E+03  0.79246254752E+03 -0.42683758763E+03  0.13216681901E+04  0.91505979670E+02 0.  0.
         11    1    3    3    0    0  0.33315737835E+03  0.22968915508E+03 -0.16551731867E+03  0.43720353325E+03  0.00000000000E+00 0.  1.
        -11    1    3    3    0    0  0.63029798901E+03  0.56277339244E+03 -0.26132026897E+03  0.88446465682E+03  0.00000000000E+00 0. -1.
         22    1    1    2    0    0 -0.96345536736E+03 -0.79246254752E+03  0.50606268033E+03  0.13462327327E+04  0.00000000000E+00 0. -1.
<mgrwt>
<rscale>  0 0.26667243E+04</rscale>
<asrwt>0</asrwt>
<pdfrwt beam="1">  1        2 0.21131739E+00 0.26667243E+04</pdfrwt>
<pdfrwt beam="2">  1       -2 0.19912891E+00 0.26667243E+04</pdfrwt>
<totfact> 0.17767251E+00</totfact>
</mgrwt>
</event>
<event>
 6    1  0.1603085E-006  0.5377273E+04  0.7818608E-02  0.7772806E-01
          2   -1    0    0  501    0  0.00000000000E+00  0.00000000000E+00  0.30646345320E+04  0.30646345320E+04  0.00000000000E+00 0.  1.
         -2   -1    0    0    0  501 -0.00000000000E+00 -0.00000000000E+00 -0.23587690778E+04  0.23587690778E+04  0.00000000000E+00 0. -1.
         23    2    1    2    0    0 -0.75068263348E+03  0.14962577326E+04 -0.17679240577E+04  0.24364409104E+04  0.91527139263E+02 0.  0.
         11    1    3    3    0    0 -0.44208748234E+03  0.80356681579E+03 -0.10103842247E+04  0.13645648577E+04  0.00000000000E+00 0. -1.
        -11    1    3    3    0    0 -0.30859515113E+03  0.69269091686E+03 -0.75753983300E+03  0.10718760526E+04  0.00000000000E+00 0.  1.
         22    1    1    2    0    0  0.75068263348E+03 -0.14962577326E+04  0.24737895119E+04  0.29869626994E+04  0.00000000000E+00 0.  1.
<mgrwt>
<rscale>  0 0.53772726E+04</rscale>
<asrwt>0</asrwt>
<pdfrwt beam="1">  1        2 0.47148224E+00 0.53772726E+04</pdfrwt>
<pdfrwt beam="2">  1       -2 0.36288755E+00 0.53772726E+04</pdfrwt>
<totfact> 0.14431944E-02</totfact>
</mgrwt>
</event>
<event>
 6    1  0.1603085E-006  0.5768528E+03  0.7818608E-02  0.9954628E-01
          2   -1    0    0  501    0  0.00000000000E+00  0.00000000000E+00  0.18561686026E+03  0.18561686026E+03  0.00000000000E+00 0. -1.
         -2   -1    0    0    0  501 -0.00000000000E+00 -0.00000000000E+00 -0.44818017785E+03  0.44818017785E+03  0.00000000000E+00 0.  1.
         23    2    1    2    0    0  0.20465270444E+03 -0.19814504192E+03 -0.14007579982E+03  0.32372062965E+03  0.63479361171E+02 0.  0.
         13    1    3    3    0    0  0.11674698737E+03 -0.15358335923E+03 -0.84931409586E+02  0.21078674443E+03  0.00000000000E+00 0.  1.
        -13    1    3    3    0    0  0.87905717065E+02 -0.44561682692E+02 -0.55144390236E+02  0.11293388522E+03  0.00000000000E+00 0. -1.
         22    1    1    2    0    0 -0.20465270444E+03  0.19814504192E+03 -0.12248751777E+03  0.31007640846E+03  0.00000000000E+00 0.  1.
<mgrwt>
<rscale>  0 0.57685283E+03</rscale>
<asrwt>0</asrwt>
<pdfrwt beam="1">  1        2 0.28556440E-01 0.57685283E+03</pdfrwt>
<pdfrwt beam="2">  1       -2 0.68950796E-01 0.57685283E+03</pdfrwt>
<totfact> 0.36527927E+02</totfact>
</mgrwt>
</event>
<event>
 6    1  0.1603085E-006  0.1598379E+04  0.7818608E-02  0.8821544E-01
          2   -1    0    0  501    0  0.00000000000E+00  0.00000000000E+00  0.25819856846E+04  0.25819856846E+04  0.00000000000E+00 0.  1.
         -2   -1    0    0    0  501 -0.00000000000E+00 -0.00000000000E+00 -0.24736937476E+03  0.24736937476E+03  0.00000000000E+00 0. -1.
         23    2    1    2    0    0 -0.68648859100E+03  0.40388984039E+03  0.11479609634E+04  0.14001788980E+04  0.91065824330E+02 0.  0.
         11    1    3    3    0    0 -0.10365577387E+03  0.10144749110E+03  0.20542367528E+03  0.25146570198E+03  0.00000000000E+00 0. -1.
        -11    1    3    3    0    0 -0.58283281713E+03  0.30244234929E+03  0.94253728809E+03  0.11487131961E+04  0.00000000000E+00 0.  1.
         22    1    1    2    0    0  0.68648859100E+03 -0.40388984039E+03  0.11866553464E+04  0.14291761613E+04  0.00000000000E+00 0. -1.
<mgrwt>
<rscale>  0 0.15983794E+04</rscale>
<asrwt>0</asrwt>
<pdfrwt beam="1">  1        2 0.39722855E+00 0.15983794E+04</pdfrwt>
<pdfrwt beam="2">  1       -2 0.38056829E-01 0.15983794E+04</pdfrwt>
<totfact> 0.19544226E+01</totfact>
</mgrwt>
</event>
<event>
 6    1  0.1603085E-006  0.1890499E+04  0.7818608E-02  0.8659600E-01
          1   -1    0    0  501    0  0.00000000000E+00  0.00000000000E+00  0.29804207556E+04  0.29804207556E+04  0.00000000000E+00 0. -1.
         -1   -1    0    0    0  501 -0.00000000000E+00 -0.00000000000E+00 -0.29978860067E+03  0.29978860067E+03  0.00000000000E+00 0.  1.
         23    2    1    2    0    0  0.69720321673E+03  0.42922816889E+03  0.53134685679E+03  0.98026230487E+03  0.90860099832E+02 0.  0.
         13    1    3    3    0    0  0.22994796561E+03  0.15768683983E+03  0.13317847385E+03  0.30899467996E+03  0.00000000000E+00 0.  1.
        -13    1    3    3    0    0  0.46725525112E+03  0.27154132906E+03  0.39816838293E+03  0.67126762491E+03  0.00000000000E+00 0. -1.
         22    1    1    2    0    0 -0.69720321673E+03 -0.42922816889E+03  0.21492852981E+04  0.22999470514E+04  0.00000000000E+00 0. -1.
<mgrwt>
<rscale>  0 0.18904985E+04</rscale>
<asrwt>0</asrwt>
<pdfrwt beam="1">  1        1 0.45852625E+00 0.18904985E+04</pdfrwt>
<pdfrwt beam="2">  1       -1 0.46121325E-01 0.18904985E+04</pdfrwt>
<totfact> 0.27116502E+00</totfact>
</mgrwt>
</event>
<event>
 6    1  0.1603085E-006  0.2193139E+04  0.7818608E-02  0.8521289E-01
         -1   -1    0    0    0  501 -0.00000000000E+00  0.00000000000E+00  0.25020899157E+04  0.25020899157E+04  0.00000000000E+00 0.  1.
          1   -1    0    0  501    0  0.00000000000E+00 -0.00000000000E+00 -0.48058428271E+03  0.48058428271E+03  0.00000000000E+00 0. -1.
         23    2    1    2    0    0  0.46822489705E+03  0.91506735799E+03  0.15244720169E+04  0.18409101074E+04  0.91390751352E+02 0.  0.
         13    1    3    3    0    0  0.28214364634E+03  0.54938243285E+03  0.83490804259E+03  0.10385073588E+04  0.00000000000E+00 0.  1.
        -13    1    3    3    0    0  0.18608125071E+03  0.36568492514E+03  0.68956397430E+03  0.80240274862E+03  0.00000000000E+00 0. -1.
         22    1    1    2    0    0 -0.46822489705E+03 -0.91506735799E+03  0.49703361607E+03  0.11417640910E+04  0.00000000000E+00 0. -1.
<mgrwt>
<rscale>  0 0.21931394E+04</rscale>
<asrwt>0</asrwt>
<pdfrwt beam="1">  1        1 0.73936045E-01 0.21931394E+04</pdfrwt>
<pdfrwt beam="2">  1       -1 0.38493690E+00 0.21931394E+04</pdfrwt>
<totfact> 0.38724914E-01</totfact>
</mgrwt>
</event>
<event>
 6    1  0.1603085E-006  0.1711931E+04  0.7818608E-02  0.8754589E-01
          2   -1    0    0  501    0  0.00000000000E+00  0.00000000000E+00  0.47295315412E+03  0.47295315412E+03  0.00000000000E+00 0.  1.
         -2   -1    0    0    0  501 -0.00000000000E+00 -0.00000000000E+00 -0.15491539732E+04  0.15491539732E+04  0.00000000000E+00 0. -1.
         23    2    1    2    0    0  0.43498568191E+03 -0.27811379296E+03  0.26323724345E+03  0.58660925249E+03  0.90866624555E+02 0.  0.
         11    1    3    3    0    0  0.30261581148E+03 -0.19750409445E+03  0.13607681697E+03  0.38613611175E+03  0.00000000000E+00 0. -1.
        -11    1    3    3    0    0  0.13236987043E+03 -0.80609698515E+02  0.12716042649E+03  0.20047314074E+03  0.00000000000E+00 0.  1.
         22    1    1    2    0    0 -0.43498568191E+03  0.27811379296E+03 -0.13394380626E+04  0.14354978749E+04  0.00000000000E+00 0. -1.
<mgrwt>
<rscale>  0 0.17119314E+04</rscale>
<asrwt>0</asrwt>
<pdfrwt beam="1">  1        2 0.72762023E-01 0.17119314E+04</pdfrwt>
<pdfrwt beam="2">  1       -2 0.23833138E+00 0.17119314E+04</pdfrwt>
<totfact> 0.47354293E+00</totfact>
</mgrwt>
</event>
<event>
 6    1  0.1603085E-006  0.9402632E+03  0.7818608E-02  0.9376604E-01
         -2   -1    0    0    0  501 -0.00000000000E+00  0.00000000000E+00  0.26681716974E+03  0.26681716974E+03  0.00000000000E+00 0.  1.
          2   -1    0    0  501    0  0.00000000000E+00 -0.00000000000E+00 -0.82837134814E+03  0.82837134814E+03  0.00000000000E+00 0. -1.
         23    2    1    2    0    0 -0.16379715964E+03  0.34248734591E+03 -0.59695221599E+03  0.71390107686E+03  0.95789914710E+02 0.  0.
         11    1    3    3    0    0 -0.43875888277E+02  0.16211565484E+03 -0.32868752139E+03  0.36910982896E+03  0.00000000000E+00 0. -1.
        -11    1    3    3    0    0 -0.11992127136E+03  0.18037169108E+03 -0.26826469460E+03  0.34479124791E+03  0.00000000000E+00 0.  1.
         22    1    1    2    0    0  0.16379715964E+03 -0.34248734591E+03  0.35398037587E+02  0.38128744102E+03  0.00000000000E+00 0. -1.
<mgrwt>
<rscale>  0 0.94026315E+03</rscale>
<asrwt>0</asrwt>
<pdfrwt beam="1">  1        2 0.12744174E+00 0.94026315E+03</pdfrwt>
<pdfrwt beam="2">  1       -2 0.41048796E-01 0.94026315E+03</pdfrwt>
<totfact> 0.18487659E+02</totfact>
</mgrwt>
</event>
<event>
 6    1  0.1603085E-006  0.2099836E+04  0.7818608E-02  0.8561316E-01
          1   -1    0    0  501    0  0.00000000000E+00  0.00000000000E+00  0.34732141301E+03  0.34732141301E+03  0.00000000000E+00 0. -1.
         -1   -1    0    0    0  501 -0.00000000000E+00 -0.00000000000E+00 -0.31737962603E+04  0.31737962603E+04  0.00000000000E+00 0.  1.
         23    2    1    2    0    0  0.64059538285E+03 -0.81921592478E+03 -0.16333447389E+04  0.19383869219E+04  0.89730969807E+02 0.  0.
         13    1    3    3    0    0  0.48238204592E+03 -0.67178435687E+03 -0.13189257076E+04  0.15567760541E+04  0.00000000000E+00 0. -1.
        -13    1    3    3    0    0  0.15821333693E+03 -0.14743156791E+03 -0.31441903135E+03  0.38161086786E+03  0.00000000000E+00 0.  1.
         22    1    1    2    0    0 -0.64059538285E+03  0.81921592478E+03 -0.11931301084E+04  0.15827307514E+04  0.00000000000E+00 0. -1.
<mgrwt>
<rscale>  0 0.20998356E+04</rscale>
<asrwt>0</asrwt>
<pdfrwt beam="1">  1        1 0.53434062E-01 0.20998356E+04</pdfrwt>
<pdfrwt beam="2">  1       -1 0.48827636E+00 0.20998356E+04</pdfrwt>
<totfact> 0.11799637E-01</totfact>
</mgrwt>
</event>
<event>
 6    1  0.1603085E-006  0.2837161E+04  0.7818608E-02  0.8291823E-01
         -1   -1    0    0    0  501 -0.00000000000E+00  0.00000000000E+00  0.11562361450E+04  0.11562361450E+04  0.00000000000E+00 0.  1.
          1   -1    0    0  501    0  0.00000000000E+00 -0.00000000000E+00 -0.17404500561E+04  0.17404500561E+04  0.00000000000E+00 0. -1.
         23    2    1    2    0    0  0.13128578090E+04  0.12187398567E+03  0.23788305127E+03  0.13428868863E+04  0.91147946615E+02 0.  0.
         11    1    3    3    0    0  0.77841440884E+03  0.10119581287E+03  0.17621007711E+03  0.80449958093E+03  0.00000000000E+00 0. -1.
        -11    1    3    3    0    0  0.53444340018E+03  0.20678172805E+02  0.61672974159E+02  0.53838730536E+03  0.00000000000E+00 0.  1.
         22    1    1    2    0    0 -0.13128578090E+04 -0.12187398567E+03 -0.82209696240E+03  0.15537993148E+04  0.00000000000E+00 0. -1.
<mgrwt>
<rscale>  0 0.28371614E+04</rscale>
<asrwt>0</asrwt>
<pdfrwt beam="1">  1        1 0.26776155E+00 0.28371614E+04</pdfrwt>
<pdfrwt beam="2">  1       -1 0.17788248E+00 0.28371614E+04</pdfrwt>
<totfact> 0.83202470E-01</totfact>
</mgrwt>
</event>
<event>
 6    1  0.1603085E-006  0.1664397E+04  0.7818608E-02  0.8781935E-01
         -2   -1    0    0    0  501 -0.00000000000E+00  0.00000000000E+00  0.33925640888E+03  0.33925640888E+03  0.00000000000E+00 0.  1.
          2   -1    0    0  501    0  0.00000000000E+00 -0.00000000000E+00 -0.20413887704E+04  0.20413887704E+04  0.00000000000E+00 0. -1.
         23    2    1    2    0    0  0.69782246821E+03  0.15766627447E+03 -0.25273768037E+03  0.76430369525E+03  0.92026910503E+02 0.  0.
         13    1    3    3    0    0  0.35118552625E+02  0.11803657191E+01  0.64290936542E+01  0.35721691546E+02  0.00000000000E+00 0.  1.
        -13    1    3    3    0    0  0.66270391558E+03  0.15648590875E+03 -0.25916677402E+03  0.72858200371E+03  0.00000000000E+00 0. -1.
         22    1    1    2    0    0 -0.69782246821E+03 -0.15766627447E+03 -0.14493946812E+04  0.16163414841E+04  0.00000000000E+00 0. -1.
<mgrwt>
<rscale>  0 0.16643969E+04</rscale>
<asrwt>0</asrwt>
<pdfrwt beam="1">  1        2 0.31405981E+00 0.16643969E+04</pdfrwt>
<pdfrwt beam="2">  1       -2 0.52193294E-01 0.16643969E+04</pdfrwt>
<totfact> 0.20953497E+01</totfact>
</mgrwt>
</event>
<event>
 6    1  0.1603085E-006  0.1248524E+04  0.7818608E-02  0.9071413E-01
          2   -1    0    0  501    0  0.00000000000E+00  0.00000000000E+00  0.77742780711E+03  0.77742780711E+03  0.00000000000E+00 0. -1.
         -2   -1    0    0    0  501 -0.00000000000E+00 -0.00000000000E+00 -0.50127196509E+03  0.50127196509E+03  0.00000000000E+00 0.  1.
         23    2    1    2    0    0  0.28077694801E+03 -0.47086566735E+03  0.43721140971E+03  0.70730755393E+03  0.92628223839E+02 0.  0.
         13    1    3    3    0    0  0.63840182063E+02 -0.73494089726E+02  0.11992594870E+03  0.15446418110E+03  0.00000000000E+00 0. -1.
        -13    1    3    3    0    0  0.21693676595E+03 -0.39737157762E+03  0.31728546101E+03  0.55284337284E+03  0.00000000000E+00 0.  1.
         22    1    1    2    0    0 -0.28077694801E+03  0.47086566735E+03 -0.16105556769E+03  0.57139221827E+03  0.00000000000E+00 0.  1.
<mgrwt>
<rscale>  0 0.12485236E+04</rscale>
<asrwt>0</asrwt>
<pdfrwt beam="1">  1        2 0.11960428E+00 0.12485236E+04</pdfrwt>
<pdfrwt beam="2">  1       -2 0.77118764E-01 0.12485236E+04</pdfrwt>
<totfact> 0.52838650E+01</totfact>
</mgrwt>
</event>
<event>
 6    1  0.1603085E-006  0.2929669E+04  0.7818608E-02  0.8264105E-01
          2   -1    0    0  501    0  0.00000000000E+00  0.00000000000E+00  0.14924598276E+04  0.14924598276E+04  0.00000000000E+00 0. -1.
         -2   -1    0    0    0  501 -0.00000000000E+00 -0.00000000000E+00 -0.14377201118E+04  0.14377201118E+04  0.00000000000E+00 0.  1.
         23    2    1    2    0    0  0.13644666159E+04 -0.63951606214E+02 -0.49781986953E+03  0.14566871334E+04  0.90850582507E+02 0.  0.
         13    1    3    3    0    0  0.42109350519E+03 -0.61102776814E+02 -0.16296264175E+03  0.45564252661E+03  0.00000000000E+00 0.  1.
        -13    1    3    3    0    0  0.94337311070E+03 -0.28488294000E+01 -0.33485722778E+03  0.10010446068E+04  0.00000000000E+00 0. -1.
         22    1    1    2    0    0 -0.13644666159E+04  0.63951606214E+02  0.55255958534E+03  0.14734928059E+04  0.00000000000E+00 0.  1.
<mgrwt>
<rscale>  0 0.29296686E+04</rscale>
<asrwt>0</asrwt>
<pdfrwt beam="1">  1        2 0.22960920E+00 0.29296686E+04</pdfrwt>
<pdfrwt beam="2">  1       -2 0.22118771E+00 0.29296686E+04</pdfrwt>
<totfact> 0.10721653E+00</totfact>
</mgrwt>
</event>
<event>
 6    1  0.1603085E-006  0.1224832E+04  0.7818608E-02  0.9091395E-01
          2   -1    0    0  501    0  0.00000000000E+00  0.00000000000E+00  0.15112499217E+04  0.15112499217E+04  0.00000000000E+00 0. -1.
         -2   -1    0    0    0  501 -0.00000000000E+00 -0.00000000000E+00 -0.24817429072E+03  0.24817429072E+03  0.00000000000E+00 0.  1.
         23    2    1    2    0    0  0.35077840597E+03 -0.42870264082E+03  0.99873654406E+03  0.11456599277E+04  0.90722329609E+02 0.  0.
         11    1    3    3    0    0  0.17353534377E+03 -0.28016651059E+03  0.56310194892E+03  0.65245045335E+03  0.00000000000E+00 0. -1.
        -11    1    3    3    0    0  0.17724306219E+03 -0.14853613023E+03  0.43563459514E+03  0.49320947432E+03  0.00000000000E+00 0.  1.
         22    1    1    2    0    0 -0.35077840597E+03  0.42870264082E+03  0.26433908690E+03  0.61376428472E+03  0.00000000000E+00 0.  1.
<mgrwt>
<rscale>  0 0.12248320E+04</rscale>
<asrwt>0</asrwt>
<pdfrwt beam="1">  1        2 0.23249998E+00 0.12248320E+04</pdfrwt>
<pdfrwt beam="2">  1       -2 0.38180661E-01 0.12248320E+04</pdfrwt>
<totfact> 0.79778810E+01</totfact>
</mgrwt>
</event>
<event>
 6    1  0.1603085E-006  0.7436300E+03  0.7818608E-02  0.9645397E-01
         -1   -1    0    0    0  501 -0.00000000000E+00  0.00000000000E+00  0.23065278876E+03  0.23065278876E+03  0.00000000000E+00 0.  1.
          1   -1    0    0  501    0  0.00000000000E+00 -0.00000000000E+00 -0.59937015616E+03  0.59937015616E+03  0.00000000000E+00 0. -1.
         23    2    1    2    0    0 -0.17052383005E+03 -0.29730500472E+03 -0.43362774993E+02  0.35745098928E+03  0.91772746703E+02 0.  0.
         13    1    3    3    0    0 -0.12948943347E+03 -0.14346107037E+03 -0.44105424126E+02  0.19822684109E+03  0.00000000000E+00 0. -1.
        -13    1    3    3    0    0 -0.41034396582E+02 -0.15384393435E+03  0.74264913349E+00  0.15922414819E+03  0.00000000000E+00 0.  1.
         22    1    1    2    0    0  0.17052383005E+03  0.29730500472E+03 -0.32535459241E+03  0.47257195563E+03  0.00000000000E+00 0.  1.
<mgrwt>
<rscale>  0 0.74363001E+03</rscale>
<asrwt>0</asrwt>
<pdfrwt beam="1">  1        1 0.92210794E-01 0.74363001E+03</pdfrwt>
<pdfrwt beam="2">  1       -1 0.35485044E-01 0.74363001E+03</pdfrwt>
<totfact> 0.26265095E+02</totfact>
</mgrwt>
</event>
<event>
 6    1  0.1603085E-006  0.7604901E+03  0.7818608E-02  0.9619035E-01
         -1   -1    0    0    0  501 -0.00000000000E+00  0.00000000000E+00  0.17880200767E+03  0.17880200767E+03  0.00000000000E+00 0.  1.
          1   -1    0    0  501    0  0.00000000000E+00 -0.00000000000E+00 -0.80863914262E+03  0.80863914262E+03  0.00000000000E+00 0. -1.
         23    2    1    2    0    0  0.33447254363E+02  0.37145412877E+03 -0.27322166095E+03  0.47142614576E+03  0.92171830234E+02 0.  0.
         13    1    3    3    0    0  0.53558735235E+02  0.19213426551E+03 -0.17831673552E+03  0.26754620586E+03  0.00000000000E+00 0. -1.
        -13    1    3    3    0    0 -0.20111480872E+02  0.17931986326E+03 -0.94904925425E+02  0.20387993990E+03  0.00000000000E+00 0.  1.
         22    1    1    2    0    0 -0.33447254363E+02 -0.37145412877E+03 -0.35661547400E+03  0.51601500453E+03  0.00000000000E+00 0. -1.
<mgrwt>
<rscale>  0 0.76049011E+03</rscale>
<asrwt>0</asrwt>
<pdfrwt beam="1">  1        1 0.12440602E+00 0.76049011E+03</pdfrwt>
<pdfrwt beam="2">  1       -1 0.27508002E-01 0.76049011E+03</pdfrwt>
<totfact> 0.26072353E+02</totfact>
</mgrwt>
</event>
<event>
 6    1  0.1603085E-006  0.3981915E+04  0.7818608E-02  0.8008205E-01
         -1   -1    0    0    0  501 -0.00000000000E+00  0.00000000000E+00  0.19659910712E+04  0.19659910712E+04  0.00000000000E+00 0.  1.
          1   -1    0    0  501    0  0.00000000000E+00 -0.00000000000E+00 -0.20162405000E+04  0.20162405000E+04  0.00000000000E+00 0. -1.
         23    2    1    2    0    0  0.73319176256E+03 -0.18288814316E+04  0.25311932254E+03  0.19886393233E+04  0.90771776070E+02 0.  0.
         13    1    3    3    0    0  0.31472992500E+03 -0.87310317582E+03  0.87610950920E+02  0.93222302055E+03  0.00000000000E+00 0. -1.
        -13    1    3    3    0    0  0.41846183756E+03 -0.95577825575E+03  0.16550837162E+03  0.10564163028E+04  0.00000000000E+00 0.  1.
         22    1    1    2    0    0 -0.73319176256E+03  0.18288814316E+04 -0.30336875141E+03  0.19935922479E+04  0.00000000000E+00 0.  1.
<mgrwt>
<rscale>  0 0.39819145E+04</rscale>
<asrwt>0</asrwt>
<pdfrwt beam="1">  1        1 0.31019085E+00 0.39819145E+04</pdfrwt>
<pdfrwt beam="2">  1       -1 0.30246016E+00 0.39819145E+04</pdfrwt>
<totfact> 0.72488368E-02</totfact>
</mgrwt>
</event>
<event>
 6    1  0.1603085E-006  0.1591436E+04  0.7818608E-02  0.8825827E-01
          2   -1    0    0  501    0  0.00000000000E+00  0.00000000000E+00  0.12646318172E+04  0.12646318172E+04  0.00000000000E+00 0. -1.
         -2   -1    0    0    0  501 -0.00000000000E+00 -0.00000000000E+00 -0.50067306124E+03  0.50067306124E+03  0.00000000000E+00 0.  1.
         23    2    1    2    0    0 -0.62294498562E+03  0.29681527662E+03  0.81716434403E+03  0.10732134119E+04  0.88711322412E+02 0.  0.
         13    1    3    3    0    0 -0.33914071888E+03  0.13078307228E+03  0.48204016363E+03  0.60372457176E+03  0.00000000000E+00 0. -1.
        -13    1    3    3    0    0 -0.28380426675E+03  0.16603220434E+03  0.33512418039E+03  0.46948884011E+03  0.00000000000E+00 0.  1.
         22    1    1    2    0    0  0.62294498562E+03 -0.29681527662E+03 -0.53205588028E+02  0.69209146660E+03  0.00000000000E+00 0.  1.
<mgrwt>
<rscale>  0 0.15914359E+04</rscale>
<asrwt>0</asrwt>
<pdfrwt beam="1">  1        2 0.19455874E+00 0.15914359E+04</pdfrwt>
<pdfrwt beam="2">  1       -2 0.77026625E-01 0.15914359E+04</pdfrwt>
<totfact> 0.25039651E+01</totfact>
</mgrwt>
</event>
<event>
 6    1  0.1603085E-006  0.2323086E+04  0.7818608E-02  0.8468874E-01
         -2   -1    0    0    0  501 -0.00000000000E+00  0.00000000000E+00  0.88123059781E+03  0.88123059781E+03  0.00000000000E+00 0. -1.
          2   -1    0    0  501    0  0.00000000000E+00 -0.00000000000E+00 -0.15310203221E+04  0.15310203221E+04  0.00000000000E+00 0.  1.
         23    2    1    2    0    0  0.46504794937E+03  0.99856940581E+03 -0.70190414248E+03  0.13094697240E+04  0.92903602759E+02 0.  0.
         13    1    3    3    0    0  0.21280249281E+03  0.56616427115E+03 -0.38815708932E+03  0.71867434131E+03  0.00000000000E+00 0.  1.
        -13    1    3    3    0    0  0.25224545656E+03  0.43240513466E+03 -0.31374705316E+03  0.59079538269E+03  0.00000000000E+00 0. -1.
         22    1    1    2    0    0 -0.46504794937E+03 -0.99856940581E+03  0.52114418222E+02  0.11027811959E+04  0.00000000000E+00 0. -1.
<mgrwt>
<rscale>  0 0.23230858E+04</rscale>
<asrwt>0</asrwt>
<pdfrwt beam="1">  1        2 0.23554159E+00 0.23230858E+04</pdfrwt>
<pdfrwt beam="2">  1       -2 0.13557394E+00 0.23230858E+04</pdfrwt>
<totfact> 0.43064013E+00</totfact>
</mgrwt>
</event>
<event>
 6    1  0.1603085E-006  0.1170257E+04  0.7818608E-02  0.9139297E-01
         -1   -1    0    0    0  501 -0.00000000000E+00  0.00000000000E+00  0.46493624304E+03  0.46493624304E+03  0.00000000000E+00 0.  1.
          1   -1    0    0  501    0  0.00000000000E+00 -0.00000000000E+00 -0.73639175114E+03  0.73639175114E+03  0.00000000000E+00 0. -1.
         23    2    1    2    0    0  0.37686491949E+03  0.37405466731E+03  0.10699201051E+03  0.54928000054E+03  0.91198503265E+02 0.  0.
         11    1    3    3    0    0  0.21516061961E+03  0.23904879815E+03  0.10596145793E+03  0.33862405511E+03  0.00000000000E+00 0. -1.
        -11    1    3    3    0    0  0.16170429988E+03  0.13500586916E+03  0.10305525768E+01  0.21065594543E+03  0.00000000000E+00 0.  1.
         22    1    1    2    0    0 -0.37686491949E+03 -0.37405466731E+03 -0.37844751860E+03  0.65204799365E+03  0.00000000000E+00 0. -1.
<mgrwt>
<rscale>  0 0.11702567E+04</rscale>
<asrwt>0</asrwt>
<pdfrwt beam="1">  1        1 0.11329104E+00 0.11702567E+04</pdfrwt>
<pdfrwt beam="2">  1       -1 0.71528653E-01 0.11702567E+04</pdfrwt>
<totfact> 0.49339718E+01</totfact>
</mgrwt>
</event>
<event>
 6    1  0.1603085E-006  0.1173172E+04  0.7818608E-02  0.9136669E-01
          2   -1    0    0  501    0  0.00000000000E+00  0.00000000000E+00  0.10779717432E+04  0.10779717432E+04  0.00000000000E+00 0. -1.
         -2   -1    0    0    0  501 -0.00000000000E+00 -0.00000000000E+00 -0.31919494051E+03  0.31919494051E+03  0.00000000000E+00 0.  1.
         23    2    1    2    0    0 -0.30501946796E+03  0.10910992702E+03  0.95885706460E+03  0.10164122179E+04  0.93515102700E+02 0.  0.
         11    1    3    3    0    0 -0.24407814458E+03  0.82307235280E+02  0.85578113963E+03  0.89370575728E+03  0.00000000000E+00 0.  1.
        -11    1    3    3    0    0 -0.60941323382E+02  0.26802691741E+02  0.10307592497E+03  0.12270646066E+03  0.00000000000E+00 0. -1.
         22    1    1    2    0    0  0.30501946796E+03 -0.10910992702E+03 -0.20008026190E+03  0.38075446578E+03  0.00000000000E+00 0.  1.
<mgrwt>
<rscale>  0 0.11731720E+04</rscale>
<asrwt>0</asrwt>
<pdfrwt beam="1">  1        2 0.16584181E+00 0.11731720E+04</pdfrwt>
<pdfrwt beam="2">  1       -2 0.49106914E-01 0.11731720E+04</pdfrwt>
<totfact> 0.87221916E+01</totfact>
</mgrwt>
</event>
<event>
 6    1  0.1603085E-006  0.2913517E+04  0.7818608E-02  0.8268867E-01
          2   -1    0    0  501    0  0.00000000000E+00  0.00000000000E+00  0.28893920550E+04  0.28893920550E+04  0.00000000000E+00 0.  1.
         -2   -1    0    0    0  501 -0.00000000000E+00 -0.00000000000E+00 -0.73446069902E+03  0.73446069902E+03  0.00000000000E+00 0. -1.
         23    2    1    2    0    0 -0.61765405648E+03  0.17446607233E+03 -0.54653098577E+03  0.84719401954E+03  0.84300916127E+02 0.  0.
         11    1    3    3    0    0 -0.42168455062E+03  0.15725564443E+03 -0.36393150233E+03  0.57878608857E+03  0.00000000000E+00 0. -1.
        -11    1    3    3    0    0 -0.19596950587E+03  0.17210427907E+02 -0.18259948343E+03  0.26840793097E+03  0.00000000000E+00 0.  1.
         22    1    1    2    0    0  0.61765405648E+03 -0.17446607233E+03  0.27014623417E+04  0.27766587345E+04  0.00000000000E+00 0.  1.
<mgrwt>
<rscale>  0 0.29135167E+04</rscale>
<asrwt>0</asrwt>
<pdfrwt beam="1">  1        2 0.44452185E+00 0.29135167E+04</pdfrwt>
<pdfrwt beam="2">  1       -2 0.11299396E+00 0.29135167E+04</pdfrwt>
<totfact> 0.10817222E+00</totfact>
</mgrwt>
</event>
<event>
 6    1  0.1603085E-006  0.3449426E+04  0.7818608E-02  0.8125881E-01
          2   -1    0    0  501    0  0.00000000000E+00  0.00000000000E+00  0.24998023955E+04  0.24998023955E+04  0.00000000000E+00 0.  1.
         -2   -1    0    0    0  501 -0.00000000000E+00 -0.00000000000E+00 -0.11899480011E+04  0.11899480011E+04  0.00000000000E+00 0. -1.
         23    2    1    2    0    0 -0.37526369910E+03 -0.64796228439E+03  0.23158818356E+04  0.24356494523E+04  0.91660308856E+02 0.  0.
         13    1    3    3    0    0 -0.31125638789E+03 -0.46115185881E+03  0.16680157013E+04  0.17583566065E+04  0.00000000000E+00 0. -1.
        -13    1    3    3    0    0 -0.64007311211E+02 -0.18681042558E+03  0.64786613432E+03  0.67729284582E+03  0.00000000000E+00 0.  1.
         22    1    1    2    0    0  0.37526369910E+03  0.64796228439E+03 -0.10060274413E+04  0.12541009443E+04  0.00000000000E+00 0. -1.
<mgrwt>
<rscale>  0 0.34494260E+04</rscale>
<asrwt>0</asrwt>
<pdfrwt beam="1">  1        2 0.38458498E+00 0.34494260E+04</pdfrwt>
<pdfrwt beam="2">  1       -2 0.18306892E+00 0.34494260E+04</pdfrwt>
<totfact> 0.49616771E-01</totfact>
</mgrwt>
</event>
<event>
 6    1  0.1603085E-006  0.2097440E+04  0.7818608E-02  0.8562372E-01
          1   -1    0    0  501    0  0.00000000000E+00  0.00000000000E+00  0.25065121375E+04  0.25065121375E+04  0.00000000000E+00 0. -1.
         -1   -1    0    0    0  501 -0.00000000000E+00 -0.00000000000E+00 -0.43878258408E+03  0.43878258408E+03  0.00000000000E+00 0.  1.
         23    2    1    2    0    0 -0.59073016913E+03 -0.85036316585E+03  0.81880504528E+03  0.13229840012E+04  0.88121045153E+02 0.  0.
         11    1    3    3    0    0 -0.39926611429E+03 -0.62197012441E+03  0.54539611494E+03  0.91854079271E+03  0.00000000000E+00 0. -1.
        -11    1    3    3    0    0 -0.19146405484E+03 -0.22839304144E+03  0.27340893034E+03  0.40444320845E+03  0.00000000000E+00 0.  1.
         22    1    1    2    0    0  0.59073016913E+03  0.85036316585E+03  0.12489245081E+04  0.16223107204E+04  0.00000000000E+00 0.  1.
<mgrwt>
<rscale>  0 0.20974402E+04</rscale>
<asrwt>0</asrwt>
<pdfrwt beam="1">  1        1 0.38561724E+00 0.20974402E+04</pdfrwt>
<pdfrwt beam="2">  1       -1 0.67505015E-01 0.20974402E+04</pdfrwt>
<totfact> 0.27416119E+00</totfact>
</mgrwt>
</event>
<event>
 6    1  0.1603085E-006  0.4765988E+04  0.7818608E-02  0.7865656E-01
         -2   -1    0    0    0  501 -0.00000000000E+00  0.00000000000E+00  0.16486067515E+04  0.16486067515E+04  0.00000000000E+00 0.  1.
          2   -1    0    0  501    0  0.00000000000E+00 -0.00000000000E+00 -0.34445215554E+04  0.34445215554E+04  0.00000000000E+00 0. -1.
         23    2    1    2    0    0  0.45630519903E+03  0.18495676595E+04 -0.24272885233E+04  0.30862033618E+04  0.61698083057E+02 0.  0.
         13    1    3    3    0    0  0.32717971243E+03  0.13995613825E+04 -0.17983048503E+04  0.23021118483E+04  0.00000000000E+00 0.  1.
        -13    1    3    3    0    0  0.12912548661E+03  0.45000627699E+03 -0.62898367303E+03  0.78409151351E+03  0.00000000000E+00 0. -1.
         22    1    1    2    0    0 -0.45630519903E+03 -0.18495676595E+04  0.63137371937E+03  0.20069249451E+04  0.00000000000E+00 0.  1.
<mgrwt>
<rscale>  0 0.47659885E+04</rscale>
<asrwt>0</asrwt>
<pdfrwt beam="1">  1        2 0.52992638E+00 0.47659885E+04</pdfrwt>
<pdfrwt beam="2">  1       -2 0.25363181E+00 0.47659885E+04</pdfrwt>
<totfact> 0.40155966E-02</totfact>
</mgrwt>
</event>
<event>
 6    1  0.1603085E-006  0.2781329E+04  0.7818608E-02  0.8309088E-01
         -1   -1    0    0    0  501 -0.00000000000E+00  0.00000000000E+00  0.16398952979E+04  0.16398952979E+04  0.00000000000E+00 0.  1.
          1   -1    0    0  501    0  0.00000000000E+00 -0.00000000000E+00 -0.11793119488E+04  0.11793119488E+04  0.00000000000E+00 0. -1.
         23    2    1    2    0    0  0.74514562066E+03 -0.48333288889E+03 -0.85214235514E+03  0.12342462212E+04  0.91457442239E+02 0.  0.
         13    1    3    3    0    0  0.50346713564E+03 -0.29340139782E+03 -0.51085372830E+03  0.77494197759E+03  0.00000000000E+00 0.  1.
        -13    1    3    3    0    0  0.24167848502E+03 -0.18993149107E+03 -0.34128862684E+03  0.45930424365E+03  0.00000000000E+00 0. -1.
         22    1    1    2    0    0 -0.74514562066E+03  0.48333288889E+03  0.13127257042E+04  0.15849610254E+04  0.00000000000E+00 0.  1.
<mgrwt>
<rscale>  0 0.27813293E+04</rscale>
<asrwt>0</asrwt>
<pdfrwt beam="1">  1        1 0.18143261E+00 0.27813293E+04</pdfrwt>
<pdfrwt beam="2">  1       -1 0.25229158E+00 0.27813293E+04</pdfrwt>
<totfact> 0.64629266E-01</totfact>
</mgrwt>
</event>
<event>
 6    1  0.1603085E-006  0.2645182E+04  0.7818608E-02  0.8353014E-01
         -2   -1    0    0    0  501 -0.00000000000E+00  0.00000000000E+00  0.80333907646E+03  0.80333907646E+03  0.00000000000E+00 0. -1.
          2   -1    0    0  501    0  0.00000000000E+00 -0.00000000000E+00 -0.21774699789E+04  0.21774699789E+04  0.00000000000E+00 0.  1.
         23    2    1    2    0    0 -0.10947396075E+04  0.35961458086E+03 -0.14158133456E+04  0.18277631409E+04  0.91723576679E+02 0.  0.
         11    1    3    3    0    0 -0.90736499713E+03  0.30553334444E+03 -0.11200648098E+04  0.14735016257E+04  0.00000000000E+00 0. -1.
        -11    1    3    3    0    0 -0.18737461033E+03  0.54081236411E+02 -0.29574853582E+03  0.35426151522E+03  0.00000000000E+00 0.  1.
         22    1    1    2    0    0  0.10947396075E+04 -0.35961458086E+03  0.41682443170E+02  0.11530459145E+04  0.00000000000E+00 0. -1.
<mgrwt>
<rscale>  0 0.26451818E+04</rscale>
<asrwt>0</asrwt>
<pdfrwt beam="1">  1        2 0.33499538E+00 0.26451818E+04</pdfrwt>
<pdfrwt beam="2">  1       -2 0.12359063E+00 0.26451818E+04</pdfrwt>
<totfact> 0.23112447E+00</totfact>
</mgrwt>
</event>
<event>
 6    1  0.1603085E-006  0.1880207E+04  0.7818608E-02  0.8664772E-01
         -1   -1    0    0    0  501 -0.00000000000E+00  0.00000000000E+00  0.96270473075E+03  0.96270473075E+03  0.00000000000E+00 0.  1.
          1   -1    0    0  501    0  0.00000000000E+00 -0.00000000000E+00 -0.91803278474E+03  0.91803278474E+03  0.00000000000E+00 0. -1.
         23    2    1    2    0    0 -0.83025988207E+03  0.29111703198E+03  0.34731117837E+03  0.95032303632E+03  0.91696350276E+02 0.  0.
         11    1    3    3    0    0 -0.21294155604E+03  0.59983917304E+02  0.47974525695E+02  0.22637078376E+03  0.00000000000E+00 0. -1.
        -11    1    3    3    0    0 -0.61731832603E+03  0.23113311467E+03  0.29933665268E+03  0.72395225256E+03  0.00000000000E+00 0.  1.
         22    1    1    2    0    0  0.83025988207E+03 -0.29111703198E+03 -0.30263923236E+03  0.93041447917E+03  0.00000000000E+00 0. -1.
<mgrwt>
<rscale>  0 0.18802069E+04</rscale>
<asrwt>0</asrwt>
<pdfrwt beam="1">  1        1 0.14123581E+00 0.18802069E+04</pdfrwt>
<pdfrwt beam="2">  1       -1 0.14810842E+00 0.18802069E+04</pdfrwt>
<totfact> 0.59519114E+00</totfact>
</mgrwt>
</event>
<event>
 6    1  0.1603085E-006  0.1077647E+04  0.7818608E-02  0.9227256E-01
         -3   -1    0    0    0  501 -0.00000000000E+00  0.00000000000E+00  0.20563642034E+03  0.20563642034E+03  0.00000000000E+00 0.  1.
          3   -1    0    0  501    0  0.00000000000E+00 -0.00000000000E+00 -0.14118651018E+04  0.14118651018E+04  0.00000000000E+00 0. -1.
         23    2    1    2    0    0  0.17655918092E+03  0.50116879898E+03 -0.70041067041E+03  0.88388365857E+03  0.91279270506E+02 0.  0.
         13    1    3    3    0    0  0.14672356866E+03  0.36859058387E+03 -0.57758759207E+03  0.70070981913E+03  0.00000000000E+00 0. -1.
        -13    1    3    3    0    0  0.29835612257E+02  0.13257821511E+03 -0.12282307834E+03  0.18317383943E+03  0.00000000000E+00 0.  1.
         22    1    1    2    0    0 -0.17655918092E+03 -0.50116879898E+03 -0.50581801105E+03  0.73361786356E+03  0.00000000000E+00 0. -1.
<mgrwt>
<rscale>  0 0.10776472E+04</rscale>
<asrwt>0</asrwt>
<pdfrwt beam="1">  1        3 0.21721002E+00 0.10776472E+04</pdfrwt>
<pdfrwt beam="2">  1       -3 0.31636372E-01 0.10776472E+04</pdfrwt>
<totfact> 0.29572878E+00</totfact>
</mgrwt>
</event>
<event>
 6    1  0.1603085E-006  0.2385274E+04  0.7818608E-02  0.8445037E-01
          1   -1    0    0  501    0  0.00000000000E+00  0.00000000000E+00  0.39097600218E+04  0.39097600218E+04  0.00000000000E+00 0. -1.
         -1   -1    0    0    0  501 -0.00000000000E+00 -0.00000000000E+00 -0.36380317383E+03  0.36380317383E+03  0.00000000000E+00 0.  1.
         23    2    1    2    0    0  0.84263862914E+03 -0.40300840265E+03  0.30991568059E+04  0.32381473808E+04  0.91487270776E+02 0.  0.
         11    1    3    3    0    0  0.43912304330E+03 -0.22109123340E+03  0.17839347495E+04  0.18504414530E+04  0.00000000000E+00 0. -1.
        -11    1    3    3    0    0  0.40351558584E+03 -0.18191716925E+03  0.13152220564E+04  0.13877059278E+04  0.00000000000E+00 0.  1.
         22    1    1    2    0    0 -0.84263862914E+03  0.40300840265E+03  0.44680004210E+03  0.10354158148E+04  0.00000000000E+00 0.  1.
<mgrwt>
<rscale>  0 0.23852741E+04</rscale>
<asrwt>0</asrwt>
<pdfrwt beam="1">  1        1 0.60150151E+00 0.23852741E+04</pdfrwt>
<pdfrwt beam="2">  1       -1 0.55969722E-01 0.23852741E+04</pdfrwt>
<totfact> 0.33422545E-01</totfact>
</mgrwt>
</event>
<event>
 6    1  0.1603085E-006  0.2443294E+04  0.7818608E-02  0.8423470E-01
          1   -1    0    0  501    0  0.00000000000E+00  0.00000000000E+00  0.49608070808E+04  0.49608070808E+04  0.00000000000E+00 0. -1.
         -1   -1    0    0    0  501 -0.00000000000E+00 -0.00000000000E+00 -0.30084253921E+03  0.30084253921E+03  0.00000000000E+00 0.  1.
         23    2    1    2    0    0 -0.70715637701E+03  0.93288141798E+03  0.30724227681E+04  0.32891824431E+04  0.92744791045E+02 0.  0.
         11    1    3    3    0    0 -0.14893246705E+03  0.18168975209E+03  0.72304866877E+03  0.76025747162E+03  0.00000000000E+00 0. -1.
        -11    1    3    3    0    0 -0.55822390996E+03  0.75119166589E+03  0.23493740994E+04  0.25289249715E+04  0.00000000000E+00 0.  1.
         22    1    1    2    0    0  0.70715637701E+03 -0.93288141798E+03  0.15875417735E+04  0.19724671769E+04  0.00000000000E+00 0.  1.
<mgrwt>
<rscale>  0 0.24432943E+04</rscale>
<asrwt>0</asrwt>
<pdfrwt beam="1">  1        1 0.76320103E+00 0.24432943E+04</pdfrwt>
<pdfrwt beam="2">  1       -1 0.46283471E-01 0.24432943E+04</pdfrwt>
<totfact> 0.40591080E-02</totfact>
</mgrwt>
</event>
<event>
 6    1  0.1603085E-006  0.3036063E+04  0.7818608E-02  0.8233507E-01
         -2   -1    0    0    0  501 -0.00000000000E+00  0.00000000000E+00  0.10227577056E+04  0.10227577056E+04  0.00000000000E+00 0.  1.
          2   -1    0    0  501    0  0.00000000000E+00 -0.00000000000E+00 -0.22531439387E+04  0.22531439387E+04  0.00000000000E+00 0. -1.
         23    2    1    2    0    0  0.46760028239E+03  0.10843046802E+04  0.41118606484E+03  0.12537428293E+04  0.91817419662E+02 0.  0.
         13    1    3    3    0    0  0.12471285560E+03  0.22308812922E+03  0.11809043110E+03  0.28154388586E+03  0.00000000000E+00 0. -1.
        -13    1    3    3    0    0  0.34288742678E+03  0.86121655100E+03  0.29309563375E+03  0.97219894347E+03  0.00000000000E+00 0.  1.
         22    1    1    2    0    0 -0.46760028239E+03 -0.10843046802E+04 -0.16415722979E+04  0.20221588150E+04  0.00000000000E+00 0. -1.
<mgrwt>
<rscale>  0 0.30360635E+04</rscale>
<asrwt>0</asrwt>
<pdfrwt beam="1">  1        2 0.34663753E+00 0.30360635E+04</pdfrwt>
<pdfrwt beam="2">  1       -2 0.15734734E+00 0.30360635E+04</pdfrwt>
<totfact> 0.10842106E+00</totfact>
</mgrwt>
</event>
<event>
 6    1  0.1603085E-006  0.2973342E+04  0.7818608E-02  0.8251385E-01
         -1   -1    0    0    0  501 -0.00000000000E+00  0.00000000000E+00  0.23009793943E+04  0.23009793943E+04  0.00000000000E+00 0.  1.
          1   -1    0    0  501    0  0.00000000000E+00 -0.00000000000E+00 -0.96054316527E+03  0.96054316527E+03  0.00000000000E+00 0. -1.
         23    2    1    2    0    0 -0.89560869429E+02 -0.12308459940E+04  0.15774216424E+04  0.20048742012E+04  0.90876369907E+02 0.  0.
         13    1    3    3    0    0 -0.28167208639E+01 -0.34267941620E+03  0.49443091880E+03  0.60158045984E+03  0.00000000000E+00 0. -1.
        -13    1    3    3    0    0 -0.86744148565E+02 -0.88816657779E+03  0.10829907236E+04  0.14032937414E+04  0.00000000000E+00 0.  1.
         22    1    1    2    0    0  0.89560869429E+02  0.12308459940E+04 -0.23698541341E+03  0.12566483583E+04  0.00000000000E+00 0. -1.
<mgrwt>
<rscale>  0 0.29733416E+04</rscale>
<asrwt>0</asrwt>
<pdfrwt beam="1">  1        1 0.14777587E+00 0.29733416E+04</pdfrwt>
<pdfrwt beam="2">  1       -1 0.35399683E+00 0.29733416E+04</pdfrwt>
<totfact> 0.20262713E-01</totfact>
</mgrwt>
</event>
<event>
 6    1  0.1603085E-006  0.3302160E+04  0.7818608E-02  0.8162346E-01
          1   -1    0    0  501    0  0.00000000000E+00  0.00000000000E+00  0.16484881625E+04  0.16484881625E+04  0.00000000000E+00 0. -1.
         -1   -1    0    0    0  501 -0.00000000000E+00 -0.00000000000E+00 -0.16536757596E+04  0.16536757596E+04  0.00000000000E+00 0.  1.
         23    2    1    2    0    0 -0.14443467764E+04  0.67954610965E+03 -0.41988814889E+03  0.16529528764E+04  0.89591451743E+02 0.  0.
         13    1    3    3    0    0 -0.11469358013E+04  0.51300832187E+03 -0.35871954938E+03  0.13066441695E+04  0.00000000000E+00 0. -1.
        -13    1    3    3    0    0 -0.29741097517E+03  0.16653778778E+03 -0.61168599510E+02  0.34630870690E+03  0.00000000000E+00 0.  1.
         22    1    1    2    0    0  0.14443467764E+04 -0.67954610965E+03  0.41470055174E+03  0.16492110457E+04  0.00000000000E+00 0.  1.
<mgrwt>
<rscale>  0 0.33021598E+04</rscale>
<asrwt>0</asrwt>
<pdfrwt beam="1">  1        1 0.25361357E+00 0.33021598E+04</pdfrwt>
<pdfrwt beam="2">  1       -1 0.25441165E+00 0.33021598E+04</pdfrwt>
<totfact> 0.27972554E-01</totfact>
</mgrwt>
</event>
<event>
 6    1  0.1603085E-006  0.9222910E+03  0.7818608E-02  0.9398138E-01
          2   -1    0    0  501    0  0.00000000000E+00  0.00000000000E+00  0.60537250363E+03  0.60537250363E+03  0.00000000000E+00 0. -1.
         -2   -1    0    0    0  501 -0.00000000000E+00 -0.00000000000E+00 -0.35127987796E+03  0.35127987796E+03  0.00000000000E+00 0.  1.
         23    2    1    2    0    0  0.96500029663E+02 -0.33110418740E+03  0.43918973949E+03  0.56524060330E+03  0.87561827909E+02 0.  0.
         13    1    3    3    0    0  0.73893084335E+02 -0.12742569645E+03  0.22391639987E+03  0.26802248069E+03  0.00000000000E+00 0. -1.
        -13    1    3    3    0    0  0.22606945327E+02 -0.20367849095E+03  0.21527333963E+03  0.29721812261E+03  0.00000000000E+00 0.  1.
         22    1    1    2    0    0 -0.96500029663E+02  0.33110418740E+03 -0.18509711382E+03  0.39141177829E+03  0.00000000000E+00 0.  1.
<mgrwt>
<rscale>  0 0.92229102E+03</rscale>
<asrwt>0</asrwt>
<pdfrwt beam="1">  1        2 0.93134231E-01 0.92229102E+03</pdfrwt>
<pdfrwt beam="2">  1       -2 0.54043058E-01 0.92229102E+03</pdfrwt>
<totfact> 0.15861038E+02</totfact>
</mgrwt>
</event>
<event>
 6    1  0.1603085E-006  0.9327600E+03  0.7818608E-02  0.9385532E-01
         -1   -1    0    0    0  501 -0.00000000000E+00  0.00000000000E+00  0.17474967941E+03  0.17474967941E+03  0.00000000000E+00 0.  1.
          1   -1    0    0  501    0  0.00000000000E+00 -0.00000000000E+00 -0.12446965665E+04  0.12446965665E+04  0.00000000000E+00 0. -1.
         23    2    1    2    0    0 -0.36956903236E+03 -0.12045216420E+02 -0.96097876771E+03  0.10339590114E+04  0.94152473655E+02 0.  0.
         11    1    3    3    0    0 -0.62561941463E+02 -0.38328805637E+02 -0.19239198379E+03  0.20590718610E+03  0.00000000000E+00 0. -1.
        -11    1    3    3    0    0 -0.30700709090E+03  0.26283589217E+02 -0.76858678392E+03  0.82805182528E+03  0.00000000000E+00 0.  1.
         22    1    1    2    0    0  0.36956903236E+03  0.12045216420E+02 -0.10896811934E+03  0.38548723449E+03  0.00000000000E+00 0.  1.
<mgrwt>
<rscale>  0 0.93276005E+03</rscale>
<asrwt>0</asrwt>
<pdfrwt beam="1">  1        1 0.19149178E+00 0.93276005E+03</pdfrwt>
<pdfrwt beam="2">  1       -1 0.26884566E-01 0.93276005E+03</pdfrwt>
<totfact> 0.12313573E+02</totfact>
</mgrwt>
</event>
<event>
 6    1  0.1603085E-006  0.2373079E+04  0.7818608E-02  0.8449652E-01
          2   -1    0    0  501    0  0.00000000000E+00  0.00000000000E+00  0.20107572828E+04  0.20107572828E+04  0.00000000000E+00 0. -1.
         -2   -1    0    0    0  501 -0.00000000000E+00 -0.00000000000E+00 -0.70017192604E+03  0.70017192604E+03  0.00000000000E+00 0.  1.
         23    2    1    2    0    0 -0.42654057294E+03  0.30129025968E+03 -0.55883079174E+03  0.76994249656E+03  0.88356738658E+02 0.  0.
         11    1    3    3    0    0 -0.17889196300E+03  0.14326122262E+03 -0.30627240137E+03  0.38252960170E+03  0.00000000000E+00 0. -1.
        -11    1    3    3    0    0 -0.24764860993E+03  0.15802903706E+03 -0.25255839037E+03  0.38741289486E+03  0.00000000000E+00 0.  1.
         22    1    1    2    0    0  0.42654057294E+03 -0.30129025968E+03  0.18694161485E+04  0.19409867122E+04  0.00000000000E+00 0. -1.
<mgrwt>
<rscale>  0 0.23730788E+04</rscale>
<asrwt>0</asrwt>
<pdfrwt beam="1">  1        2 0.30934727E+00 0.23730788E+04</pdfrwt>
<pdfrwt beam="2">  1       -2 0.10771876E+00 0.23730788E+04</pdfrwt>
<totfact> 0.41045981E+00</totfact>
</mgrwt>
</event>
<event>
 6    1  0.1603085E-006  0.1790212E+04  0.7818608E-02  0.8711522E-01
         -1   -1    0    0    0  501 -0.00000000000E+00  0.00000000000E+00  0.39853604606E+03  0.39853604606E+03  0.00000000000E+00 0.  1.
          1   -1    0    0  501    0  0.00000000000E+00 -0.00000000000E+00 -0.20103954863E+04  0.20103954863E+04  0.00000000000E+00 0. -1.
         23    2    1    2    0    0  0.83658136381E+03  0.12319538660E+03 -0.42270441873E+03  0.94977590435E+03  0.91377028370E+02 0.  0.
         11    1    3    3    0    0  0.27863016804E+03  0.56053133196E+02 -0.18795361265E+03  0.34073932088E+03  0.00000000000E+00 0.  1.
        -11    1    3    3    0    0  0.55795119577E+03  0.67142253403E+02 -0.23475080609E+03  0.60903658348E+03  0.00000000000E+00 0. -1.
         22    1    1    2    0    0 -0.83658136381E+03 -0.12319538660E+03 -0.11891550215E+04  0.14591556280E+04  0.00000000000E+00 0. -1.
<mgrwt>
<rscale>  0 0.17902124E+04</rscale>
<asrwt>0</asrwt>
<pdfrwt beam="1">  1        1 0.30929162E+00 0.17902124E+04</pdfrwt>
<pdfrwt beam="2">  1       -1 0.61313237E-01 0.17902124E+04</pdfrwt>
<totfact> 0.74713402E+00</totfact>
</mgrwt>
</event>
<event>
 6    1  0.1603085E-006  0.5202301E+04  0.7818608E-02  0.7798036E-01
          2   -1    0    0  501    0  0.00000000000E+00  0.00000000000E+00  0.24150724392E+04  0.24150724392E+04  0.00000000000E+00 0. -1.
         -2   -1    0    0    0  501 -0.00000000000E+00 -0.00000000000E+00 -0.28015660200E+04  0.28015660200E+04  0.00000000000E+00 0.  1.
         23    2    1    2    0    0 -0.10179226531E+04 -0.23092200166E+04 -0.82225288952E+03  0.26556718862E+04  0.88485819245E+02 0.  0.
         13    1    3    3    0    0 -0.34058485895E+03 -0.78475300938E+03 -0.23513781965E+03  0.88720072481E+03  0.00000000000E+00 0.  1.
        -13    1    3    3    0    0 -0.67733779411E+03 -0.15244670072E+04 -0.58711506987E+03  0.17684711614E+04  0.00000000000E+00 0. -1.
         22    1    1    2    0    0  0.10179226531E+04  0.23092200166E+04  0.43575930873E+03  0.25609665730E+04  0.00000000000E+00 0.  1.
<mgrwt>
<rscale>  0 0.52023014E+04</rscale>
<asrwt>0</asrwt>
<pdfrwt beam="1">  1        2 0.37154961E+00 0.52023014E+04</pdfrwt>
<pdfrwt beam="2">  1       -2 0.43101016E+00 0.52023014E+04</pdfrwt>
<totfact> 0.12972987E-02</totfact>
</mgrwt>
</event>
<event>
 6    1  0.1603085E-006  0.2738308E+04  0.7818608E-02  0.8322681E-01
          1   -1    0    0  501    0  0.00000000000E+00  0.00000000000E+00  0.12489106258E+04  0.12489106258E+04  0.00000000000E+00 0. -1.
         -1   -1    0    0    0  501 -0.00000000000E+00 -0.00000000000E+00 -0.15009742039E+04  0.15009742039E+04  0.00000000000E+00 0.  1.
         23    2    1    2    0    0 -0.13471492774E+04 -0.17205064928E+03  0.35553018587E+02  0.13616716228E+04  0.92048843932E+02 0.  0.
         13    1    3    3    0    0 -0.60882566781E+03 -0.66518672454E+02  0.60479401547E+02  0.61542764447E+03  0.00000000000E+00 0.  1.
        -13    1    3    3    0    0 -0.73832360957E+03 -0.10553197682E+03 -0.24926382960E+02  0.74624397830E+03  0.00000000000E+00 0. -1.
         22    1    1    2    0    0  0.13471492774E+04  0.17205064928E+03 -0.28761659667E+03  0.13882132070E+04  0.00000000000E+00 0.  1.
<mgrwt>
<rscale>  0 0.27383080E+04</rscale>
<asrwt>0</asrwt>
<pdfrwt beam="1">  1        1 0.19214010E+00 0.27383080E+04</pdfrwt>
<pdfrwt beam="2">  1       -1 0.23091911E+00 0.27383080E+04</pdfrwt>
<totfact> 0.79745742E-01</totfact>
</mgrwt>
</event>
<event>
 6    1  0.1603085E-006  0.1998814E+04  0.7818608E-02  0.8607175E-01
         -1   -1    0    0    0  501 -0.00000000000E+00  0.00000000000E+00  0.48193067965E+03  0.48193067965E+03  0.00000000000E+00 0.  1.
          1   -1    0    0  501    0  0.00000000000E+00 -0.00000000000E+00 -0.20725275237E+04  0.20725275237E+04  0.00000000000E+00 0. -1.
         23    2    1    2    0    0  0.53870599040E+03 -0.25231853053E+03  0.22503805443E+03  0.64385649983E+03  0.10020120502E+03 0.  0.
         11    1    3    3    0    0  0.22329891762E+03 -0.90840722738E+02  0.40854649258E+02  0.24450673996E+03  0.00000000000E+00 0. -1.
        -11    1    3    3    0    0  0.31540707278E+03 -0.16147780779E+03  0.18418340517E+03  0.39934975987E+03  0.00000000000E+00 0.  1.
         22    1    1    2    0    0 -0.53870599040E+03  0.25231853053E+03 -0.18156348985E+04  0.19106017035E+04  0.00000000000E+00 0. -1.
<mgrwt>
<rscale>  0 0.19988142E+04</rscale>
<asrwt>0</asrwt>
<pdfrwt beam="1">  1        1 0.31885039E+00 0.19988142E+04</pdfrwt>
<pdfrwt beam="2">  1       -1 0.74143180E-01 0.19988142E+04</pdfrwt>
<totfact> 0.45201292E+00</totfact>
</mgrwt>
</event>
<event>
 6    1  0.1603085E-006  0.1283851E+04  0.7818608E-02  0.9042471E-01
         -1   -1    0    0    0  501 -0.00000000000E+00  0.00000000000E+00  0.28741644042E+03  0.28741644042E+03  0.00000000000E+00 0.  1.
          1   -1    0    0  501    0  0.00000000000E+00 -0.00000000000E+00 -0.14336968739E+04  0.14336968739E+04  0.00000000000E+00 0. -1.
         23    2    1    2    0    0  0.37981347260E+02 -0.31349307571E+03  0.16830749563E+03  0.36912887852E+03  0.90599252839E+02 0.  0.
         11    1    3    3    0    0  0.40612031762E+02 -0.57713110872E+02  0.19562798368E+02  0.73231437036E+02  0.00000000000E+00 0. -1.
        -11    1    3    3    0    0 -0.26306845020E+01 -0.25577996484E+03  0.14874469726E+03  0.29589744149E+03  0.00000000000E+00 0.  1.
         22    1    1    2    0    0 -0.37981347260E+02  0.31349307571E+03 -0.13145879291E+04  0.13519844358E+04  0.00000000000E+00 0. -1.
<mgrwt>
<rscale>  0 0.12838505E+04</rscale>
<asrwt>0</asrwt>
<pdfrwt beam="1">  1        1 0.22056875E+00 0.12838505E+04</pdfrwt>
<pdfrwt beam="2">  1       -1 0.44217914E-01 0.12838505E+04</pdfrwt>
<totfact> 0.36211171E+01</totfact>
</mgrwt>
</event>
<event>
 6    1  0.1603085E-006  0.1748234E+04  0.7818608E-02  0.8734323E-01
          2   -1    0    0  501    0  0.00000000000E+00  0.00000000000E+00  0.21768909997E+04  0.21768909997E+04  0.00000000000E+00 0. -1.
         -2   -1    0    0    0  501 -0.00000000000E+00 -0.00000000000E+00 -0.35099629089E+03  0.35099629089E+03  0.00000000000E+00 0.  1.
         23    2    1    2    0    0 -0.56502090601E+03 -0.47788139083E+03  0.15824295331E+04  0.17488529270E+04  0.82365556110E+02 0.  0.
         11    1    3    3    0    0 -0.27987172952E+03 -0.24435186626E+03  0.89009216064E+03  0.96452064465E+03  0.00000000000E+00 0. -1.
        -11    1    3    3    0    0 -0.28514917650E+03 -0.23352952458E+03  0.69233737250E+03  0.78433228231E+03  0.00000000000E+00 0.  1.
         22    1    1    2    0    0  0.56502090601E+03  0.47788139083E+03  0.24346517566E+03  0.77903436362E+03  0.00000000000E+00 0. -1.
<mgrwt>
<rscale>  0 0.17482342E+04</rscale>
<asrwt>0</asrwt>
<pdfrwt beam="1">  1        2 0.33490630E+00 0.17482342E+04</pdfrwt>
<pdfrwt beam="2">  1       -2 0.53999430E-01 0.17482342E+04</pdfrwt>
<totfact> 0.16296490E+01</totfact>
</mgrwt>
</event>
<event>
 6    1  0.1603085E-006  0.2481788E+04  0.7818608E-02  0.8409502E-01
         -1   -1    0    0    0  501 -0.00000000000E+00  0.00000000000E+00  0.85021990351E+03  0.85021990351E+03  0.00000000000E+00 0.  1.
          1   -1    0    0  501    0  0.00000000000E+00 -0.00000000000E+00 -0.18110821093E+04  0.18110821093E+04  0.00000000000E+00 0. -1.
         23    2    1    2    0    0 -0.15116026808E+03  0.50612448421E+03 -0.16831102187E+04  0.17665095160E+04  0.93190351618E+02 0.  0.
         11    1    3    3    0    0 -0.10701952490E+03  0.36293177326E+03 -0.10559172549E+04  0.11216656810E+04  0.00000000000E+00 0. -1.
        -11    1    3    3    0    0 -0.44140743182E+02  0.14319271095E+03 -0.62719296383E+03  0.64484383501E+03  0.00000000000E+00 0.  1.
         22    1    1    2    0    0  0.15116026808E+03 -0.50612448421E+03  0.72224801293E+03  0.89479249681E+03  0.00000000000E+00 0.  1.
<mgrwt>
<rscale>  0 0.24817881E+04</rscale>
<asrwt>0</asrwt>
<pdfrwt beam="1">  1        1 0.27862801E+00 0.24817881E+04</pdfrwt>
<pdfrwt beam="2">  1       -1 0.13080306E+00 0.24817881E+04</pdfrwt>
<totfact> 0.17787080E+00</totfact>
</mgrwt>
</event>
<event>
 6    1  0.1603085E-006  0.2655758E+04  0.7818608E-02  0.8349504E-01
          2   -1    0    0  501    0  0.00000000000E+00  0.00000000000E+00  0.39287434656E+04  0.39287434656E+04  0.00000000000E+00 0. -1.
         -2   -1    0    0    0  501 -0.00000000000E+00 -0.00000000000E+00 -0.44881096161E+03  0.44881096161E+03  0.00000000000E+00 0.  1.
         23    2    1    2    0    0  0.20832321309E+03  0.38950642986E+03  0.38033685311E+04  0.38300832556E+04  0.93870875347E+02 0.  0.
         11    1    3    3    0    0  0.11596309548E+03  0.30131532305E+03  0.26057459683E+04  0.26256714217E+04  0.00000000000E+00 0.  1.
        -11    1    3    3    0    0  0.92360117607E+02  0.88191106815E+02  0.11976225629E+04  0.12044118339E+04  0.00000000000E+00 0. -1.
         22    1    1    2    0    0 -0.20832321309E+03 -0.38950642986E+03 -0.32343602718E+03  0.54747117157E+03  0.00000000000E+00 0.  1.
<mgrwt>
<rscale>  0 0.26557584E+04</rscale>
<asrwt>0</asrwt>
<pdfrwt beam="1">  1        2 0.60442205E+00 0.26557584E+04</pdfrwt>
<pdfrwt beam="2">  1       -2 0.69047843E-01 0.26557584E+04</pdfrwt>
<totfact> 0.65906915E-01</totfact>
</mgrwt>
</event>
<event>
 6    1  0.1603085E-006  0.3151619E+04  0.7818608E-02  0.8201713E-01
          1   -1    0    0  501    0  0.00000000000E+00  0.00000000000E+00  0.90680826214E+03  0.90680826214E+03  0.00000000000E+00 0. -1.
         -1   -1    0    0    0  501 -0.00000000000E+00 -0.00000000000E+00 -0.27383690315E+04  0.27383690315E+04  0.00000000000E+00 0.  1.
         23    2    1    2    0    0 -0.35841681397E+03  0.10241004339E+04 -0.22362274986E+04  0.24871619772E+04  0.89537501815E+02 0.  0.
         11    1    3    3    0    0 -0.28068421465E+03  0.77746888559E+03 -0.17848291365E+04  0.19669409099E+04  0.00000000000E+00 0. -1.
        -11    1    3    3    0    0 -0.77732599320E+02  0.24663154829E+03 -0.45139836204E+03  0.52022106730E+03  0.00000000000E+00 0.  1.
         22    1    1    2    0    0  0.35841681397E+03 -0.10241004339E+04  0.40466672928E+03  0.11580153164E+04  0.00000000000E+00 0. -1.
<mgrwt>
<rscale>  0 0.31516191E+04</rscale>
<asrwt>0</asrwt>
<pdfrwt beam="1">  1        1 0.13950896E+00 0.31516191E+04</pdfrwt>
<pdfrwt beam="2">  1       -1 0.42128754E+00 0.31516191E+04</pdfrwt>
<totfact> 0.77020305E-02</totfact>
</mgrwt>
</event>
<event>
 6    1  0.1603085E-006  0.2342096E+04  0.7818608E-02  0.8461506E-01
         -2   -1    0    0    0  501 -0.00000000000E+00  0.00000000000E+00  0.10888018654E+04  0.10888018654E+04  0.00000000000E+00 0.  1.
          2   -1    0    0  501    0  0.00000000000E+00 -0.00000000000E+00 -0.12595068396E+04  0.12595068396E+04  0.00000000000E+00 0. -1.
         23    2    1    2    0    0 -0.10385527202E+04  0.53678093094E+03 -0.10616956947E+03  0.11774584418E+04  0.91710872608E+02 0.  0.
         13    1    3    3    0    0 -0.91393041340E+03  0.46142503835E+03 -0.12162585882E+03  0.10310066518E+04  0.00000000000E+00 0. -1.
        -13    1    3    3    0    0 -0.12462230682E+03  0.75355892587E+02  0.15456289350E+02  0.14645178997E+03  0.00000000000E+00 0.  1.
         22    1    1    2    0    0  0.10385527202E+04 -0.53678093094E+03 -0.64535404670E+02  0.11708502632E+04  0.00000000000E+00 0. -1.
<mgrwt>
<rscale>  0 0.23420960E+04</rscale>
<asrwt>0</asrwt>
<pdfrwt beam="1">  1        2 0.19377028E+00 0.23420960E+04</pdfrwt>
<pdfrwt beam="2">  1       -2 0.16750798E+00 0.23420960E+04</pdfrwt>
<totfact> 0.35034752E+00</totfact>
</mgrwt>
</event>
<event>
 6    1  0.1603085E-006  0.2371501E+04  0.7818608E-02  0.8450251E-01
          2   -1    0    0  501    0  0.00000000000E+00  0.00000000000E+00  0.34454951100E+04  0.34454951100E+04  0.00000000000E+00 0. -1.
         -2   -1    0    0    0  501 -0.00000000000E+00 -0.00000000000E+00 -0.40807031272E+03  0.40807031272E+03  0.00000000000E+00 0.  1.
         23    2    1    2    0    0 -0.12897586054E+03 -0.98318944996E+03  0.46972799777E+03  0.11010460093E+04  0.91442088476E+02 0.  0.
         11    1    3    3    0    0 -0.11152510683E+03 -0.51899191685E+03  0.23388649370E+03  0.58008046954E+03  0.00000000000E+00 0. -1.
        -11    1    3    3    0    0 -0.17450753708E+02 -0.46419753311E+03  0.23584150407E+03  0.52096553974E+03  0.00000000000E+00 0.  1.
         22    1    1    2    0    0  0.12897586054E+03  0.98318944996E+03  0.25676967995E+04  0.27525194134E+04  0.00000000000E+00 0. -1.
<mgrwt>
<rscale>  0 0.23715010E+04</rscale>
<asrwt>0</asrwt>
<pdfrwt beam="1">  1        2 0.53007615E+00 0.23715010E+04</pdfrwt>
<pdfrwt beam="2">  1       -2 0.62780050E-01 0.23715010E+04</pdfrwt>
<totfact> 0.18844410E+00</totfact>
</mgrwt>
</event>
<event>
 6    1  0.1603085E-006  0.2091980E+04  0.7818608E-02  0.8564785E-01
          2   -1    0    0  501    0  0.00000000000E+00  0.00000000000E+00  0.95665087150E+03  0.95665087150E+03  0.00000000000E+00 0. -1.
         -2   -1    0    0    0  501 -0.00000000000E+00 -0.00000000000E+00 -0.11436720151E+04  0.11436720151E+04  0.00000000000E+00 0.  1.
         23    2    1    2    0    0 -0.48746274237E+03 -0.85268207789E+03 -0.44891617632E+03  0.10838212096E+04  0.91956673456E+02 0.  0.
         11    1    3    3    0    0 -0.16482466514E+03 -0.37518786375E+03 -0.20191206514E+03  0.45683868640E+03  0.00000000000E+00 0. -1.
        -11    1    3    3    0    0 -0.32263807723E+03 -0.47749421414E+03 -0.24700411118E+03  0.62698252317E+03  0.00000000000E+00 0.  1.
         22    1    1    2    0    0  0.48746274237E+03  0.85268207789E+03  0.26189503275E+03  0.10165016770E+04  0.00000000000E+00 0. -1.
<mgrwt>
<rscale>  0 0.20919798E+04</rscale>
<asrwt>0</asrwt>
<pdfrwt beam="1">  1        2 0.14717706E+00 0.20919798E+04</pdfrwt>
<pdfrwt beam="2">  1       -2 0.17594954E+00 0.20919798E+04</pdfrwt>
<totfact> 0.47943909E+00</totfact>
</mgrwt>
</event>
<event>
 6    1  0.1603085E-006  0.4191440E+04  0.7818608E-02  0.7967003E-01
          2   -1    0    0  501    0  0.00000000000E+00  0.00000000000E+00  0.40841150416E+04  0.40841150416E+04  0.00000000000E+00 0. -1.
         -2   -1    0    0    0  501 -0.00000000000E+00 -0.00000000000E+00 -0.10753960780E+04  0.10753960780E+04  0.00000000000E+00 0.  1.
         23    2    1    2    0    0 -0.22834676184E+03  0.14349275347E+04 -0.35231518326E+03  0.14978571477E+04  0.91053682860E+02 0.  0.
         13    1    3    3    0    0 -0.18119425186E+03  0.11560019294E+04 -0.24627432159E+03  0.11957520058E+04  0.00000000000E+00 0.  1.
        -13    1    3    3    0    0 -0.47152509981E+02  0.27892560525E+03 -0.10604086167E+03  0.30210514197E+03  0.00000000000E+00 0. -1.
         22    1    1    2    0    0  0.22834676184E+03 -0.14349275347E+04  0.33610341469E+04  0.36616539719E+04  0.00000000000E+00 0. -1.
<mgrwt>
<rscale>  0 0.41914395E+04</rscale>
<asrwt>0</asrwt>
<pdfrwt beam="1">  1        2 0.62832538E+00 0.41914395E+04</pdfrwt>
<pdfrwt beam="2">  1       -2 0.16544555E+00 0.41914395E+04</pdfrwt>
<totfact> 0.51858216E-02</totfact>
</mgrwt>
</event>
<event>
 6    1  0.1603085E-006  0.1521660E+04  0.7818608E-02  0.8870176E-01
         -2   -1    0    0    0  501 -0.00000000000E+00  0.00000000000E+00  0.13935555909E+04  0.13935555909E+04  0.00000000000E+00 0.  1.
          2   -1    0    0  501    0  0.00000000000E+00 -0.00000000000E+00 -0.41538507153E+03  0.41538507153E+03  0.00000000000E+00 0. -1.
         23    2    1    2    0    0 -0.10031130645E+03  0.58520268204E+03 -0.69490350162E+02  0.60473227728E+03  0.91365645346E+02 0.  0.
         13    1    3    3    0    0 -0.31023610843E+02  0.41152481680E+03 -0.31254919442E+02  0.41387438826E+03  0.00000000000E+00 0. -1.
        -13    1    3    3    0    0 -0.69287695610E+02  0.17367786525E+03 -0.38235430720E+02  0.19085788902E+03  0.00000000000E+00 0.  1.
         22    1    1    2    0    0  0.10031130645E+03 -0.58520268204E+03  0.10476608695E+04  0.12042083851E+04  0.00000000000E+00 0.  1.
<mgrwt>
<rscale>  0 0.15216599E+04</rscale>
<asrwt>0</asrwt>
<pdfrwt beam="1">  1        2 0.63905396E-01 0.15216599E+04</pdfrwt>
<pdfrwt beam="2">  1       -2 0.21439317E+00 0.15216599E+04</pdfrwt>
<totfact> 0.78806224E+00</totfact>
</mgrwt>
</event>
<event>
 6    1  0.1603085E-006  0.3207262E+04  0.7818608E-02  0.8186902E-01
          1   -1    0    0  501    0  0.00000000000E+00  0.00000000000E+00  0.29470005164E+04  0.29470005164E+04  0.00000000000E+00 0. -1.
         -1   -1    0    0    0  501 -0.00000000000E+00 -0.00000000000E+00 -0.87262698888E+03  0.87262698888E+03  0.00000000000E+00 0.  1.
         23    2    1    2    0    0  0.58294503122E+03 -0.11666281718E+03 -0.73412245796E+03  0.94889853465E+03  0.89652236139E+02 0.  0.
         11    1    3    3    0    0  0.15578701269E+03 -0.21346201568E+02 -0.13696658540E+03  0.20853081106E+03  0.00000000000E+00 0. -1.
        -11    1    3    3    0    0  0.42715801853E+03 -0.95316615609E+02 -0.59715587256E+03  0.74036772360E+03  0.00000000000E+00 0.  1.
         22    1    1    2    0    0 -0.58294503122E+03  0.11666281718E+03  0.28084959855E+04  0.28707289706E+04  0.00000000000E+00 0. -1.
<mgrwt>
<rscale>  0 0.32072619E+04</rscale>
<asrwt>0</asrwt>
<pdfrwt beam="1">  1        1 0.45338469E+00 0.32072619E+04</pdfrwt>
<pdfrwt beam="2">  1       -1 0.13425031E+00 0.32072619E+04</pdfrwt>
<totfact> 0.25503429E-01</totfact>
</mgrwt>
</event>
<event>
 6    1  0.1603085E-006  0.3966033E+04  0.7818608E-02  0.8011434E-01
          2   -1    0    0  501    0  0.00000000000E+00  0.00000000000E+00  0.33250497879E+04  0.33250497879E+04  0.00000000000E+00 0. -1.
         -2   -1    0    0    0  501 -0.00000000000E+00 -0.00000000000E+00 -0.11826452821E+04  0.11826452821E+04  0.00000000000E+00 0.  1.
         23    2    1    2    0    0 -0.50096533186E+03  0.18096406281E+04  0.35071516780E+03  0.19123307121E+04  0.90786324286E+02 0.  0.
         11    1    3    3    0    0 -0.26263668626E+03  0.95098613412E+03  0.13814000894E+03  0.99621047893E+03  0.00000000000E+00 0.  1.
        -11    1    3    3    0    0 -0.23832864560E+03  0.85865449401E+03  0.21257515886E+03  0.91612023314E+03  0.00000000000E+00 0. -1.
         22    1    1    2    0    0  0.50096533186E+03 -0.18096406281E+04  0.17916893380E+04  0.25953643580E+04  0.00000000000E+00 0. -1.
<mgrwt>
<rscale>  0 0.39660330E+04</rscale>
<asrwt>0</asrwt>
<pdfrwt beam="1">  1        2 0.51154612E+00 0.39660330E+04</pdfrwt>
<pdfrwt beam="2">  1       -2 0.18194543E+00 0.39660330E+04</pdfrwt>
<totfact> 0.14884336E-01</totfact>
</mgrwt>
</event>
<event>
 6    1  0.1603085E-006  0.3279914E+04  0.7818608E-02  0.8168025E-01
          1   -1    0    0  501    0  0.00000000000E+00  0.00000000000E+00  0.17817738299E+04  0.17817738299E+04  0.00000000000E+00 0. -1.
         -1   -1    0    0    0  501 -0.00000000000E+00 -0.00000000000E+00 -0.15094275853E+04  0.15094275853E+04  0.00000000000E+00 0.  1.
         23    2    1    2    0    0 -0.74421234327E+03 -0.14724489029E+03 -0.13212956142E+04  0.15262007228E+04  0.89070066404E+02 0.  0.
         11    1    3    3    0    0 -0.30603090376E+03 -0.42647418347E+02 -0.45887182669E+03  0.55320617285E+03  0.00000000000E+00 0. -1.
        -11    1    3    3    0    0 -0.43818143951E+03 -0.10459747195E+03 -0.86242378751E+03  0.97299455000E+03  0.00000000000E+00 0.  1.
         22    1    1    2    0    0  0.74421234327E+03  0.14724489029E+03  0.15936418588E+04  0.17650006923E+04  0.00000000000E+00 0. -1.
<mgrwt>
<rscale>  0 0.32799138E+04</rscale>
<asrwt>0</asrwt>
<pdfrwt beam="1">  1        1 0.27411905E+00 0.32799138E+04</pdfrwt>
<pdfrwt beam="2">  1       -1 0.23221963E+00 0.32799138E+04</pdfrwt>
<totfact> 0.31789180E-01</totfact>
</mgrwt>
</event>
<event>
 6    1  0.1603085E-006  0.2724605E+04  0.7818608E-02  0.8327065E-01
         -2   -1    0    0    0  501 -0.00000000000E+00  0.00000000000E+00  0.72378537907E+03  0.72378537907E+03  0.00000000000E+00 0. -1.
          2   -1    0    0  501    0  0.00000000000E+00 -0.00000000000E+00 -0.25641145871E+04  0.25641145871E+04  0.00000000000E+00 0.  1.
         23    2    1    2    0    0  0.13418262476E+04  0.18130892649E+03 -0.75809588315E+03  0.15545218842E+04  0.91969097596E+02 0.  0.
         13    1    3    3    0    0  0.10806284506E+04  0.13030894008E+03 -0.57038241057E+03  0.12288508300E+04  0.00000000000E+00 0. -1.
        -13    1    3    3    0    0  0.26119779702E+03  0.50999986414E+02 -0.18771347258E+03  0.32567105424E+03  0.00000000000E+00 0.  1.
         22    1    1    2    0    0 -0.13418262476E+04 -0.18130892649E+03 -0.10822333249E+04  0.17333780820E+04  0.00000000000E+00 0.  1.
<mgrwt>
<rscale>  0 0.27246054E+04</rscale>
<asrwt>0</asrwt>
<pdfrwt beam="1">  1        2 0.39447916E+00 0.27246054E+04</pdfrwt>
<pdfrwt beam="2">  1       -2 0.11135160E+00 0.27246054E+04</pdfrwt>
<totfact> 0.17833561E+00</totfact>
</mgrwt>
</event>
<event>
 6    1  0.1603085E-006  0.3918532E+04  0.7818608E-02  0.8021186E-01
          2   -1    0    0  501    0  0.00000000000E+00  0.00000000000E+00  0.21963633712E+04  0.21963633712E+04  0.00000000000E+00 0. -1.
         -2   -1    0    0    0  501 -0.00000000000E+00 -0.00000000000E+00 -0.17477633488E+04  0.17477633488E+04  0.00000000000E+00 0.  1.
         23    2    1    2    0    0 -0.39647318169E+03 -0.25108282461E+03 -0.16891201869E+04  0.17555012925E+04  0.91783513663E+02 0.  0.
         11    1    3    3    0    0 -0.98189291625E+02 -0.87716260953E+02 -0.61047220223E+03  0.62450907850E+03  0.00000000000E+00 0. -1.
        -11    1    3    3    0    0 -0.29828389007E+03 -0.16336656366E+03 -0.10786479847E+04  0.11309922140E+04  0.00000000000E+00 0.  1.
         22    1    1    2    0    0  0.39647318169E+03  0.25108282461E+03  0.21377202093E+04  0.21886254275E+04  0.00000000000E+00 0. -1.
<mgrwt>
<rscale>  0 0.39185321E+04</rscale>
<asrwt>0</asrwt>
<pdfrwt beam="1">  1        2 0.33790206E+00 0.39185321E+04</pdfrwt>
<pdfrwt beam="2">  1       -2 0.26888667E+00 0.39185321E+04</pdfrwt>
<totfact> 0.20284384E-01</totfact>
</mgrwt>
</event>
<event>
 6    1  0.1603085E-006  0.3448961E+04  0.7818608E-02  0.8125993E-01
         -2   -1    0    0    0  501 -0.00000000000E+00  0.00000000000E+00  0.96981459066E+03  0.96981459066E+03  0.00000000000E+00 0.  1.
          2   -1    0    0  501    0  0.00000000000E+00 -0.00000000000E+00 -0.30663928339E+04  0.30663928339E+04  0.00000000000E+00 0. -1.
         23    2    1    2    0    0 -0.67621801739E+03  0.13779416433E+04 -0.13228130716E+03  0.15433262736E+04  0.91453065435E+02 0.  0.
         11    1    3    3    0    0 -0.14763096127E+03  0.34806273434E+03 -0.66242614904E+02  0.38383675149E+03  0.00000000000E+00 0.  1.
        -11    1    3    3    0    0 -0.52858705612E+03  0.10298789090E+04 -0.66038692253E+02  0.11594895222E+04  0.00000000000E+00 0. -1.
         22    1    1    2    0    0  0.67621801739E+03 -0.13779416433E+04 -0.19642969361E+04  0.24928811509E+04  0.00000000000E+00 0. -1.
<mgrwt>
<rscale>  0 0.34489607E+04</rscale>
<asrwt>0</asrwt>
<pdfrwt beam="1">  1        2 0.47175273E+00 0.34489607E+04</pdfrwt>
<pdfrwt beam="2">  1       -2 0.14920225E+00 0.34489607E+04</pdfrwt>
<totfact> 0.39609477E-01</totfact>
</mgrwt>
</event>
<event>
 6    1  0.1603085E-006  0.5540784E+04  0.7818608E-02  0.7750102E-01
         -2   -1    0    0    0  501 -0.00000000000E+00  0.00000000000E+00  0.28270171608E+04  0.28270171608E+04  0.00000000000E+00 0.  1.
          2   -1    0    0  501    0  0.00000000000E+00 -0.00000000000E+00 -0.27149014335E+04  0.27149014335E+04  0.00000000000E+00 0. -1.
         23    2    1    2    0    0 -0.13742409021E+04  0.18167863572E+04 -0.15196115840E+04  0.27398149660E+04  0.90088608249E+02 0.  0.
         13    1    3    3    0    0 -0.11333262399E+04  0.14436302316E+04 -0.12070560100E+04  0.21966977085E+04  0.00000000000E+00 0.  1.
        -13    1    3    3    0    0 -0.24091466226E+03  0.37315612558E+03 -0.31255557403E+03  0.54311725751E+03  0.00000000000E+00 0. -1.
         22    1    1    2    0    0  0.13742409021E+04 -0.18167863572E+04  0.16317273114E+04  0.28021036282E+04  0.00000000000E+00 0.  1.
<mgrwt>
<rscale>  0 0.55407844E+04</rscale>
<asrwt>0</asrwt>
<pdfrwt beam="1">  1        2 0.41767714E+00 0.55407844E+04</pdfrwt>
<pdfrwt beam="2">  1       -2 0.43492572E+00 0.55407844E+04</pdfrwt>
<totfact> 0.79484089E-03</totfact>
</mgrwt>
</event>
<event>
 6    1  0.1603085E-006  0.7376583E+03  0.7818608E-02  0.9654914E-01
         -1   -1    0    0    0  501 -0.00000000000E+00  0.00000000000E+00  0.21076987257E+03  0.21076987257E+03  0.00000000000E+00 0.  1.
          1   -1    0    0  501    0  0.00000000000E+00 -0.00000000000E+00 -0.64541924762E+03  0.64541924762E+03  0.00000000000E+00 0. -1.
         23    2    1    2    0    0  0.29652815740E+03 -0.39506579625E+02  0.18132346716E+02  0.31350965168E+03  0.92031525765E+02 0.  0.
         13    1    3    3    0    0  0.21964412252E+03 -0.18176408797E+02 -0.26671216755E+02  0.22200287430E+03  0.00000000000E+00 0. -1.
        -13    1    3    3    0    0  0.76884034887E+02 -0.21330170828E+02  0.44803563471E+02  0.91506777387E+02  0.00000000000E+00 0.  1.
         22    1    1    2    0    0 -0.29652815740E+03  0.39506579625E+02 -0.45278172177E+03  0.54267946850E+03  0.00000000000E+00 0. -1.
<mgrwt>
<rscale>  0 0.73765827E+03</rscale>
<asrwt>0</asrwt>
<pdfrwt beam="1">  1        1 0.99295269E-01 0.73765827E+03</pdfrwt>
<pdfrwt beam="2">  1       -1 0.32426134E-01 0.73765827E+03</pdfrwt>
<totfact> 0.27680918E+02</totfact>
</mgrwt>
</event>
<event>
 6    1  0.1603085E-006  0.3122650E+04  0.7818608E-02  0.8209549E-01
          2   -1    0    0  501    0  0.00000000000E+00  0.00000000000E+00  0.17316557837E+04  0.17316557837E+04  0.00000000000E+00 0.  1.
         -2   -1    0    0    0  501 -0.00000000000E+00 -0.00000000000E+00 -0.14077485637E+04  0.14077485637E+04  0.00000000000E+00 0. -1.
         23    2    1    2    0    0  0.10578587368E+04  0.77787932704E+03  0.10088631562E+04  0.16584161675E+04  0.91531208345E+02 0.  0.
         11    1    3    3    0    0  0.88616566565E+03  0.67403316927E+03  0.81888725757E+03  0.13820950188E+04  0.00000000000E+00 0. -1.
        -11    1    3    3    0    0  0.17169307120E+03  0.10384615777E+03  0.18997589861E+03  0.27632114872E+03  0.00000000000E+00 0.  1.
         22    1    1    2    0    0 -0.10578587368E+04 -0.77787932704E+03 -0.68495593618E+03  0.14809881799E+04  0.00000000000E+00 0. -1.
<mgrwt>
<rscale>  0 0.31226501E+04</rscale>
<asrwt>0</asrwt>
<pdfrwt beam="1">  1        2 0.26640858E+00 0.31226501E+04</pdfrwt>
<pdfrwt beam="2">  1       -2 0.21657670E+00 0.31226501E+04</pdfrwt>
<totfact> 0.82935734E-01</totfact>
</mgrwt>
</event>
<event>
 6    1  0.1603085E-006  0.1251053E+04  0.7818608E-02  0.9069307E-01
          1   -1    0    0  501    0  0.00000000000E+00  0.00000000000E+00  0.60300329475E+03  0.60300329475E+03  0.00000000000E+00 0. -1.
         -1   -1    0    0    0  501 -0.00000000000E+00 -0.00000000000E+00 -0.64889129895E+03  0.64889129895E+03  0.00000000000E+00 0.  1.
         23    2    1    2    0    0 -0.38001121578E+03  0.32988906134E+03 -0.38929235137E+03  0.64266404410E+03  0.90737102855E+02 0.  0.
         13    1    3    3    0    0 -0.15784730656E+03  0.18605975192E+03 -0.21969033246E+03  0.32832582239E+03  0.00000000000E+00 0.  1.
        -13    1    3    3    0    0 -0.22216390922E+03  0.14382930941E+03 -0.16960201891E+03  0.31433822171E+03  0.00000000000E+00 0. -1.
         22    1    1    2    0    0  0.38001121578E+03 -0.32988906134E+03  0.34340434717E+03  0.60923054960E+03  0.00000000000E+00 0. -1.
<mgrwt>
<rscale>  0 0.12510533E+04</rscale>
<asrwt>0</asrwt>
<pdfrwt beam="1">  1        1 0.92769738E-01 0.12510533E+04</pdfrwt>
<pdfrwt beam="2">  1       -1 0.99829430E-01 0.12510533E+04</pdfrwt>
<totfact> 0.32099044E+01</totfact>
</mgrwt>
</event>
<event>
 6    1  0.1603085E-006  0.5990977E+04  0.7818608E-02  0.7691522E-01
          1   -1    0    0  501    0  0.00000000000E+00  0.00000000000E+00  0.34982293730E+04  0.34982293730E+04  0.00000000000E+00 0. -1.
         -1   -1    0    0    0  501 -0.00000000000E+00 -0.00000000000E+00 -0.25649978463E+04  0.25649978463E+04  0.00000000000E+00 0.  1.
         23    2    1    2    0    0  0.32621500210E+03 -0.17984514523E+04 -0.19341963839E+04  0.26627880305E+04  0.92090118012E+02 0.  0.
         11    1    3    3    0    0  0.12966499901E+03 -0.96483365565E+03 -0.10129348738E+04  0.14049035744E+04  0.00000000000E+00 0. -1.
        -11    1    3    3    0    0  0.19655000308E+03 -0.83361779660E+03 -0.92126151019E+03  0.12578844560E+04  0.00000000000E+00 0.  1.
         22    1    1    2    0    0 -0.32621500210E+03  0.17984514523E+04  0.28674279107E+04  0.34004391888E+04  0.00000000000E+00 0. -1.
<mgrwt>
<rscale>  0 0.59909768E+04</rscale>
<asrwt>0</asrwt>
<pdfrwt beam="1">  1        1 0.53818913E+00 0.59909768E+04</pdfrwt>
<pdfrwt beam="2">  1       -1 0.39461506E+00 0.59909768E+04</pdfrwt>
<totfact> 0.13043581E-03</totfact>
</mgrwt>
</event>
<event>
 6    1  0.1603085E-006  0.1950178E+04  0.7818608E-02  0.8630275E-01
          2   -1    0    0  501    0  0.00000000000E+00  0.00000000000E+00  0.74594668528E+03  0.74594668528E+03  0.00000000000E+00 0. -1.
         -2   -1    0    0    0  501 -0.00000000000E+00 -0.00000000000E+00 -0.12746200645E+04  0.12746200645E+04  0.00000000000E+00 0.  1.
         23    2    1    2    0    0  0.46988574902E+03  0.74010697334E+03 -0.70221490970E+03  0.11268846968E+04  0.90622245374E+02 0.  0.
         11    1    3    3    0    0  0.17960014065E+03  0.20825148976E+03 -0.23554672014E+03  0.36208721447E+03  0.00000000000E+00 0. -1.
        -11    1    3    3    0    0  0.29028560837E+03  0.53185548358E+03 -0.46666818956E+03  0.76479748233E+03  0.00000000000E+00 0.  1.
         22    1    1    2    0    0 -0.46988574902E+03 -0.74010697334E+03  0.17354153043E+03  0.89368205303E+03  0.00000000000E+00 0.  1.
<mgrwt>
<rscale>  0 0.19501781E+04</rscale>
<asrwt>0</asrwt>
<pdfrwt beam="1">  1        2 0.11476103E+00 0.19501781E+04</pdfrwt>
<pdfrwt beam="2">  1       -2 0.19609539E+00 0.19501781E+04</pdfrwt>
<totfact> 0.49686857E+00</totfact>
</mgrwt>
</event>
<event>
 6    1  0.1603085E-006  0.4718544E+04  0.7818608E-02  0.7873455E-01
         -2   -1    0    0    0  501 -0.00000000000E+00  0.00000000000E+00  0.18941743617E+04  0.18941743617E+04  0.00000000000E+00 0.  1.
          2   -1    0    0  501    0  0.00000000000E+00 -0.00000000000E+00 -0.29385697204E+04  0.29385697204E+04  0.00000000000E+00 0. -1.
         23    2    1    2    0    0  0.78525905793E+03 -0.19467671007E+04  0.57853011861E+03  0.21793649087E+04  0.91653557261E+02 0.  0.
         13    1    3    3    0    0  0.54890922065E+03 -0.14046894028E+04  0.45460865917E+03  0.15751579869E+04  0.00000000000E+00 0. -1.
        -13    1    3    3    0    0  0.23634983728E+03 -0.54207769798E+03  0.12392145944E+03  0.60420692179E+03  0.00000000000E+00 0.  1.
         22    1    1    2    0    0 -0.78525905793E+03  0.19467671007E+04 -0.16229254773E+04  0.26533791733E+04  0.00000000000E+00 0.  1.
<mgrwt>
<rscale>  0 0.47185436E+04</rscale>
<asrwt>0</asrwt>
<pdfrwt beam="1">  1        2 0.45208765E+00 0.47185436E+04</pdfrwt>
<pdfrwt beam="2">  1       -2 0.29141144E+00 0.47185436E+04</pdfrwt>
<totfact> 0.50764085E-02</totfact>
</mgrwt>
</event>
<event>
 6    1  0.1603085E-006  0.2969034E+04  0.7818608E-02  0.8252629E-01
          1   -1    0    0  501    0  0.00000000000E+00  0.00000000000E+00  0.11869017495E+04  0.11869017495E+04  0.00000000000E+00 0. -1.
         -1   -1    0    0    0  501 -0.00000000000E+00 -0.00000000000E+00 -0.18567596304E+04  0.18567596304E+04  0.00000000000E+00 0.  1.
         23    2    1    2    0    0  0.82358202616E+03 -0.21072922533E+03 -0.15810982425E+04  0.17974458460E+04  0.90806147222E+02 0.  0.
         11    1    3    3    0    0  0.17570089130E+03 -0.35966145805E+02 -0.41422214661E+03  0.45138049757E+03  0.00000000000E+00 0.  1.
        -11    1    3    3    0    0  0.64788113487E+03 -0.17476307953E+03 -0.11668760959E+04  0.13460653484E+04  0.00000000000E+00 0. -1.
         22    1    1    2    0    0 -0.82358202616E+03  0.21072922533E+03  0.91124036165E+03  0.12462155339E+04  0.00000000000E+00 0. -1.
<mgrwt>
<rscale>  0 0.29690344E+04</rscale>
<asrwt>0</asrwt>
<pdfrwt beam="1">  1        1 0.18260027E+00 0.29690344E+04</pdfrwt>
<pdfrwt beam="2">  1       -1 0.28565533E+00 0.29690344E+04</pdfrwt>
<totfact> 0.38131791E-01</totfact>
</mgrwt>
</event>
<event>
 6    1  0.1603085E-006  0.3265136E+04  0.7818608E-02  0.8171824E-01
         -2   -1    0    0    0  501 -0.00000000000E+00  0.00000000000E+00  0.29426354050E+04  0.29426354050E+04  0.00000000000E+00 0.  1.
          2   -1    0    0  501    0  0.00000000000E+00 -0.00000000000E+00 -0.90574528500E+03  0.90574528500E+03  0.00000000000E+00 0. -1.
         23    2    1    2    0    0 -0.71120858804E+03  0.28129340015E+03 -0.67897233810E+03  0.10268824135E+04  0.92414407376E+02 0.  0.
         11    1    3    3    0    0 -0.27999380743E+03  0.12687340594E+03 -0.33052857390E+03  0.45137847921E+03  0.00000000000E+00 0.  1.
        -11    1    3    3    0    0 -0.43121478061E+03  0.15441999422E+03 -0.34844376419E+03  0.57550393434E+03  0.00000000000E+00 0. -1.
         22    1    1    2    0    0  0.71120858804E+03 -0.28129340015E+03  0.27158624581E+04  0.28214982764E+04  0.00000000000E+00 0.  1.
<mgrwt>
<rscale>  0 0.32651359E+04</rscale>
<asrwt>0</asrwt>
<pdfrwt beam="1">  1        2 0.13934543E+00 0.32651359E+04</pdfrwt>
<pdfrwt beam="2">  1       -2 0.45271313E+00 0.32651359E+04</pdfrwt>
<totfact> 0.80946769E-02</totfact>
</mgrwt>
</event>
<event>
 6    1  0.1603085E-006  0.1959624E+04  0.7818608E-02  0.8625734E-01
         -1   -1    0    0    0  501 -0.00000000000E+00  0.00000000000E+00  0.81452144795E+03  0.81452144795E+03  0.00000000000E+00 0.  1.
          1   -1    0    0  501    0  0.00000000000E+00 -0.00000000000E+00 -0.11786448662E+04  0.11786448662E+04  0.00000000000E+00 0. -1.
         23    2    1    2    0    0 -0.10295234539E+03  0.30660431418E+03 -0.11208277074E+04  0.11702405750E+04  0.92751619001E+02 0.  0.
         13    1    3    3    0    0 -0.12829776522E+02  0.16159985603E+03 -0.46055543563E+03  0.48825242029E+03  0.00000000000E+00 0. -1.
        -13    1    3    3    0    0 -0.90122568864E+02  0.14500445815E+03 -0.66027227182E+03  0.68198815476E+03  0.00000000000E+00 0.  1.
         22    1    1    2    0    0  0.10295234539E+03 -0.30660431418E+03  0.75670428916E+03  0.82292573914E+03  0.00000000000E+00 0.  1.
<mgrwt>
<rscale>  0 0.19596240E+04</rscale>
<asrwt>0</asrwt>
<pdfrwt beam="1">  1        1 0.18132998E+00 0.19596240E+04</pdfrwt>
<pdfrwt beam="2">  1       -1 0.12531099E+00 0.19596240E+04</pdfrwt>
<totfact> 0.57362191E+00</totfact>
</mgrwt>
</event>
<event>
 6    1  0.1603085E-006  0.8881502E+03  0.7818608E-02  0.9440517E-01
          1   -1    0    0  501    0  0.00000000000E+00  0.00000000000E+00  0.19494046962E+04  0.19494046962E+04  0.00000000000E+00 0. -1.
         -1   -1    0    0    0  501 -0.00000000000E+00 -0.00000000000E+00 -0.10116047032E+03  0.10116047032E+03  0.00000000000E+00 0.  1.
         23    2    1    2    0    0 -0.13912832868E+03 -0.33021882499E+03  0.15205604862E+04  0.15649956067E+04  0.93305371889E+02 0.  0.
         13    1    3    3    0    0 -0.13116006605E+01  0.40001200173E+01  0.67739213108E+02  0.67869892065E+02  0.00000000000E+00 0. -1.
        -13    1    3    3    0    0 -0.13781672802E+03 -0.33421894501E+03  0.14528212731E+04  0.14971257146E+04  0.00000000000E+00 0.  1.
         22    1    1    2    0    0  0.13912832868E+03  0.33021882499E+03  0.32768373966E+03  0.48556955986E+03  0.00000000000E+00 0.  1.
<mgrwt>
<rscale>  0 0.88815020E+03</rscale>
<asrwt>0</asrwt>
<pdfrwt beam="1">  1        1 0.29990839E+00 0.88815020E+03</pdfrwt>
<pdfrwt beam="2">  1       -1 0.15563151E-01 0.88815020E+03</pdfrwt>
<totfact> 0.10152642E+02</totfact>
</mgrwt>
</event>
<event>
 6    1  0.1603085E-006  0.1498560E+04  0.7818608E-02  0.8885411E-01
          1   -1    0    0  501    0  0.00000000000E+00  0.00000000000E+00  0.70298009816E+03  0.70298009816E+03  0.00000000000E+00 0.  1.
         -1   -1    0    0    0  501 -0.00000000000E+00 -0.00000000000E+00 -0.79862933936E+03  0.79862933936E+03  0.00000000000E+00 0. -1.
         23    2    1    2    0    0  0.44592155952E+03 -0.47241367144E+03 -0.41647991524E+03  0.77707300945E+03  0.91467087049E+02 0.  0.
         11    1    3    3    0    0  0.17208818658E+03 -0.24851943963E+03 -0.19620036973E+03  0.36037597161E+03  0.00000000000E+00 0. -1.
        -11    1    3    3    0    0  0.27383337294E+03 -0.22389423181E+03 -0.22027954551E+03  0.41669703784E+03  0.00000000000E+00 0.  1.
         22    1    1    2    0    0 -0.44592155952E+03  0.47241367144E+03  0.32083067404E+03  0.72453642808E+03  0.00000000000E+00 0.  1.
<mgrwt>
<rscale>  0 0.14985600E+04</rscale>
<asrwt>0</asrwt>
<pdfrwt beam="1">  1        1 0.10815079E+00 0.14985600E+04</pdfrwt>
<pdfrwt beam="2">  1       -1 0.12286605E+00 0.14985600E+04</pdfrwt>
<totfact> 0.15300382E+01</totfact>
</mgrwt>
</event>
<event>
 6    1  0.1603085E-006  0.1881391E+04  0.7818608E-02  0.8664175E-01
          1   -1    0    0  501    0  0.00000000000E+00  0.00000000000E+00  0.16785766869E+04  0.16785766869E+04  0.00000000000E+00 0. -1.
         -1   -1    0    0    0  501 -0.00000000000E+00 -0.00000000000E+00 -0.52717744303E+03  0.52717744303E+03  0.00000000000E+00 0.  1.
         23    2    1    2    0    0 -0.34830911938E+03  0.49325165912E+03  0.14188866166E+04  0.15453255294E+04  0.10087278667E+03 0.  0.
         11    1    3    3    0    0 -0.17036823148E+03  0.20545199998E+03  0.74274900864E+03  0.78924771044E+03  0.00000000000E+00 0. -1.
        -11    1    3    3    0    0 -0.17794088790E+03  0.28779965914E+03  0.67613760799E+03  0.75607781896E+03  0.00000000000E+00 0.  1.
         22    1    1    2    0    0  0.34830911938E+03 -0.49325165912E+03 -0.26748737273E+03  0.66042860056E+03  0.00000000000E+00 0.  1.
<mgrwt>
<rscale>  0 0.18813907E+04</rscale>
<asrwt>0</asrwt>
<pdfrwt beam="1">  1        1 0.25824256E+00 0.18813907E+04</pdfrwt>
<pdfrwt beam="2">  1       -1 0.81104223E-01 0.18813907E+04</pdfrwt>
<totfact> 0.69969499E+00</totfact>
</mgrwt>
</event>
<event>
 6    1  0.1603085E-006  0.1109867E+04  0.7818608E-02  0.9195628E-01
         -2   -1    0    0    0  501 -0.00000000000E+00  0.00000000000E+00  0.60906504912E+03  0.60906504912E+03  0.00000000000E+00 0.  1.
          2   -1    0    0  501    0  0.00000000000E+00 -0.00000000000E+00 -0.50561251916E+03  0.50561251916E+03  0.00000000000E+00 0. -1.
         23    2    1    2    0    0 -0.48659034879E+03  0.71998407973E+02 -0.19825738121E+03  0.53763094210E+03  0.88244560207E+02 0.  0.
         13    1    3    3    0    0 -0.32345543450E+03  0.55232351756E+02 -0.87052829153E+02  0.33948818219E+03  0.00000000000E+00 0.  1.
        -13    1    3    3    0    0 -0.16313491430E+03  0.16766056217E+02 -0.11120455206E+03  0.19814275990E+03  0.00000000000E+00 0. -1.
         22    1    1    2    0    0  0.48659034879E+03 -0.71998407973E+02  0.30170991117E+03  0.57704662618E+03  0.00000000000E+00 0.  1.
<mgrwt>
<rscale>  0 0.11098665E+04</rscale>
<asrwt>0</asrwt>
<pdfrwt beam="1">  1        2 0.77786541E-01 0.11098665E+04</pdfrwt>
<pdfrwt beam="2">  1       -2 0.93702315E-01 0.11098665E+04</pdfrwt>
<totfact> 0.58071882E+01</totfact>
</mgrwt>
</event>
<event>
 6    1  0.1603085E-006  0.2133439E+04  0.7818608E-02  0.8546655E-01
          2   -1    0    0  501    0  0.00000000000E+00  0.00000000000E+00  0.10140194492E+04  0.10140194492E+04  0.00000000000E+00 0. -1.
         -2   -1    0    0    0  501 -0.00000000000E+00 -0.00000000000E+00 -0.11221585878E+04  0.11221585878E+04  0.00000000000E+00 0.  1.
         23    2    1    2    0    0  0.84318186151E+03  0.34148004556E+03 -0.60817641294E+03  0.10981021492E+04  0.91572417805E+02 0.  0.
         11    1    3    3    0    0  0.73802556529E+03  0.31797495635E+03 -0.56332308792E+03  0.98138815423E+03  0.00000000000E+00 0. -1.
        -11    1    3    3    0    0  0.10515629622E+03  0.23505089217E+02 -0.44853325025E+02  0.11671399496E+03  0.00000000000E+00 0.  1.
         22    1    1    2    0    0 -0.84318186151E+03 -0.34148004556E+03  0.50003727437E+03  0.10380758878E+04  0.00000000000E+00 0. -1.
<mgrwt>
<rscale>  0 0.21334391E+04</rscale>
<asrwt>0</asrwt>
<pdfrwt beam="1">  1        2 0.15600299E+00 0.21334391E+04</pdfrwt>
<pdfrwt beam="2">  1       -2 0.17263978E+00 0.21334391E+04</pdfrwt>
<totfact> 0.46281326E+00</totfact>
</mgrwt>
</event>
<event>
 6    1  0.1603085E-006  0.8941432E+03  0.7818608E-02  0.9432932E-01
         -1   -1    0    0    0  501 -0.00000000000E+00  0.00000000000E+00  0.49111630165E+03  0.49111630165E+03  0.00000000000E+00 0.  1.
          1   -1    0    0  501    0  0.00000000000E+00 -0.00000000000E+00 -0.40697697335E+03  0.40697697335E+03  0.00000000000E+00 0. -1.
         23    2    1    2    0    0  0.14135509513E+02  0.36757151151E+03  0.29187853951E+03  0.47564303109E+03  0.75727026194E+02 0.  0.
         11    1    3    3    0    0 -0.28824064817E+02  0.14158282769E+03  0.12996260712E+03  0.19433682888E+03  0.00000000000E+00 0. -1.
        -11    1    3    3    0    0  0.42959574330E+02  0.22598868382E+03  0.16191593239E+03  0.28130620221E+03  0.00000000000E+00 0.  1.
         22    1    1    2    0    0 -0.14135509513E+02 -0.36757151151E+03 -0.20773921120E+03  0.42245024391E+03  0.00000000000E+00 0. -1.
<mgrwt>
<rscale>  0 0.89414322E+03</rscale>
<asrwt>0</asrwt>
<pdfrwt beam="1">  1        1 0.62611842E-01 0.89414322E+03</pdfrwt>
<pdfrwt beam="2">  1       -1 0.75556354E-01 0.89414322E+03</pdfrwt>
<totfact> 0.10410867E+02</totfact>
</mgrwt>
</event>
<event>
 6    1  0.1603085E-006  0.2514746E+04  0.7818608E-02  0.8397751E-01
         -1   -1    0    0    0  501 -0.00000000000E+00  0.00000000000E+00  0.36246344809E+03  0.36246344809E+03  0.00000000000E+00 0.  1.
          1   -1    0    0  501    0  0.00000000000E+00 -0.00000000000E+00 -0.43617816216E+04  0.43617816216E+04  0.00000000000E+00 0. -1.
         23    2    1    2    0    0  0.56626641851E+03 -0.62426662617E+03 -0.37510165471E+04  0.38455982835E+04  0.90191706254E+02 0.  0.
         13    1    3    3    0    0  0.23448887229E+03 -0.22923619197E+03 -0.12831134983E+04  0.13243543757E+04  0.00000000000E+00 0. -1.
        -13    1    3    3    0    0  0.33177754622E+03 -0.39503043420E+03 -0.24679030488E+04  0.25212439077E+04  0.00000000000E+00 0.  1.
         22    1    1    2    0    0 -0.56626641851E+03  0.62426662617E+03 -0.24830162641E+03  0.87864678624E+03  0.00000000000E+00 0.  1.
<mgrwt>
<rscale>  0 0.25147456E+04</rscale>
<asrwt>0</asrwt>
<pdfrwt beam="1">  1        1 0.67104335E+00 0.25147456E+04</pdfrwt>
<pdfrwt beam="2">  1       -1 0.55763605E-01 0.25147456E+04</pdfrwt>
<totfact> 0.12844939E-01</totfact>
</mgrwt>
</event>
<event>
 6    1  0.1603085E-006  0.1896252E+04  0.7818608E-02  0.8656724E-01
          1   -1    0    0  501    0  0.00000000000E+00  0.00000000000E+00  0.10178612176E+04  0.10178612176E+04  0.00000000000E+00 0. -1.
         -1   -1    0    0    0  501 -0.00000000000E+00 -0.00000000000E+00 -0.88316829493E+03  0.88316829493E+03  0.00000000000E+00 0.  1.
         23    2    1    2    0    0  0.38197737275E+03 -0.48934348067E+03 -0.64799935919E+03  0.90204454597E+03  0.91746596859E+02 0.  0.
         11    1    3    3    0    0  0.16371636243E+03 -0.20526758358E+03 -0.21007576810E+03  0.33625831817E+03  0.00000000000E+00 0.  1.
        -11    1    3    3    0    0  0.21826101032E+03 -0.28407589709E+03 -0.43792359109E+03  0.56578622780E+03  0.00000000000E+00 0. -1.
         22    1    1    2    0    0 -0.38197737275E+03  0.48934348067E+03  0.78269228190E+03  0.99898496661E+03  0.00000000000E+00 0. -1.
<mgrwt>
<rscale>  0 0.18962518E+04</rscale>
<asrwt>0</asrwt>
<pdfrwt beam="1">  1        1 0.15659403E+00 0.18962518E+04</pdfrwt>
<pdfrwt beam="2">  1       -1 0.13587205E+00 0.18962518E+04</pdfrwt>
<totfact> 0.62143918E+00</totfact>
</mgrwt>
</event>
<event>
 6    1  0.1603085E-006  0.9590010E+03  0.7818608E-02  0.9354691E-01
         -2   -1    0    0    0  501 -0.00000000000E+00  0.00000000000E+00  0.14489533102E+04  0.14489533102E+04  0.00000000000E+00 0.  1.
          2   -1    0    0  501    0  0.00000000000E+00 -0.00000000000E+00 -0.15868056993E+03  0.15868056993E+03  0.00000000000E+00 0. -1.
         23    2    1    2    0    0  0.40155106100E+03 -0.20345670903E+03  0.90674099871E+03  0.10162503465E+04  0.89149543039E+02 0.  0.
         13    1    3    3    0    0  0.23488745798E+03 -0.15200216596E+03  0.48586393806E+03  0.56066080894E+03  0.00000000000E+00 0.  1.
        -13    1    3    3    0    0  0.16666360303E+03 -0.51454543074E+02  0.42087706065E+03  0.45558953758E+03  0.00000000000E+00 0. -1.
         22    1    1    2    0    0 -0.40155106100E+03  0.20345670903E+03  0.38353174157E+03  0.59138353362E+03  0.00000000000E+00 0. -1.
<mgrwt>
<rscale>  0 0.95900102E+03</rscale>
<asrwt>0</asrwt>
<pdfrwt beam="1">  1        2 0.24412396E-01 0.95900102E+03</pdfrwt>
<pdfrwt beam="2">  1       -2 0.22291588E+00 0.95900102E+03</pdfrwt>
<totfact> 0.21457287E+01</totfact>
</mgrwt>
</event>
<event>
 6    1  0.1603085E-006  0.4031833E+04  0.7818608E-02  0.7998156E-01
          2   -1    0    0  501    0  0.00000000000E+00  0.00000000000E+00  0.31869900184E+04  0.31869900184E+04  0.00000000000E+00 0. -1.
         -2   -1    0    0    0  501 -0.00000000000E+00 -0.00000000000E+00 -0.12751589351E+04  0.12751589351E+04  0.00000000000E+00 0.  1.
         23    2    1    2    0    0 -0.56146192200E+02 -0.19473360273E+04  0.15254203889E+04  0.24760514678E+04  0.93024245346E+02 0.  0.
         13    1    3    3    0    0 -0.67493571197E+02 -0.90290753383E+03  0.68186836430E+03  0.11334645398E+04  0.00000000000E+00 0. -1.
        -13    1    3    3    0    0  0.11347378997E+02 -0.10444284935E+04  0.84355202459E+03  0.13425869280E+04  0.00000000000E+00 0.  1.
         22    1    1    2    0    0  0.56146192200E+02  0.19473360273E+04  0.38641069437E+03  0.19860974857E+04  0.00000000000E+00 0.  1.
<mgrwt>
<rscale>  0 0.40318327E+04</rscale>
<asrwt>0</asrwt>
<pdfrwt beam="1">  1        2 0.49030615E+00 0.40318327E+04</pdfrwt>
<pdfrwt beam="2">  1       -2 0.19617830E+00 0.40318327E+04</pdfrwt>
<totfact> 0.14652117E-01</totfact>
</mgrwt>
</event>
<event>
 6    1  0.1603085E-006  0.1740736E+04  0.7818608E-02  0.8738466E-01
         -1   -1    0    0    0  501 -0.00000000000E+00  0.00000000000E+00  0.82857942101E+03  0.82857942101E+03  0.00000000000E+00 0.  1.
          1   -1    0    0  501    0  0.00000000000E+00 -0.00000000000E+00 -0.91426411437E+03  0.91426411437E+03  0.00000000000E+00 0. -1.
         23    2    1    2    0    0 -0.58615991644E+03  0.60491799563E+03  0.16675394444E+03  0.86350600353E+03  0.91249718166E+02 0.  0.
         13    1    3    3    0    0 -0.38258285787E+03  0.45475603218E+03  0.11618115226E+03  0.60553344423E+03  0.00000000000E+00 0. -1.
        -13    1    3    3    0    0 -0.20357705856E+03  0.15016196346E+03  0.50572792178E+02  0.25797255930E+03  0.00000000000E+00 0.  1.
         22    1    1    2    0    0  0.58615991644E+03 -0.60491799563E+03 -0.25243863780E+03  0.87933753186E+03  0.00000000000E+00 0. -1.
<mgrwt>
<rscale>  0 0.17407360E+04</rscale>
<asrwt>0</asrwt>
<pdfrwt beam="1">  1        1 0.14065602E+00 0.17407360E+04</pdfrwt>
<pdfrwt beam="2">  1       -1 0.12747376E+00 0.17407360E+04</pdfrwt>
<totfact> 0.89532420E+00</totfact>
</mgrwt>
</event>
<event>
 6    1  0.1603085E-006  0.4019941E+04  0.7818608E-02  0.8000536E-01
         -2   -1    0    0    0  501 -0.00000000000E+00  0.00000000000E+00  0.21675514082E+04  0.21675514082E+04  0.00000000000E+00 0.  1.
          2   -1    0    0  501    0  0.00000000000E+00 -0.00000000000E+00 -0.18638460845E+04  0.18638460845E+04  0.00000000000E+00 0. -1.
         23    2    1    2    0    0  0.17912759644E+04  0.90527115747E+03  0.65802844671E+02  0.20103128733E+04  0.94033956524E+02 0.  0.
         11    1    3    3    0    0  0.69330436463E+03  0.38606551057E+03  0.59181985284E+02  0.79575123490E+03  0.00000000000E+00 0.  1.
        -11    1    3    3    0    0  0.10979715997E+04  0.51920564691E+03  0.66208593874E+01  0.12145616384E+04  0.00000000000E+00 0. -1.
         22    1    1    2    0    0 -0.17912759644E+04 -0.90527115747E+03  0.23790247906E+03  0.20210846194E+04  0.00000000000E+00 0.  1.
<mgrwt>
<rscale>  0 0.40199414E+04</rscale>
<asrwt>0</asrwt>
<pdfrwt beam="1">  1        2 0.28674555E+00 0.40199414E+04</pdfrwt>
<pdfrwt beam="2">  1       -2 0.33346945E+00 0.40199414E+04</pdfrwt>
<totfact> 0.12369849E-01</totfact>
</mgrwt>
</event>
<event>
 6    1  0.1603085E-006  0.3335383E+04  0.7818608E-02  0.8153950E-01
         -2   -1    0    0    0  501 -0.00000000000E+00  0.00000000000E+00  0.11990273548E+04  0.11990273548E+04  0.00000000000E+00 0.  1.
          2   -1    0    0  501    0  0.00000000000E+00 -0.00000000000E+00 -0.23195429692E+04  0.23195429692E+04  0.00000000000E+00 0. -1.
         23    2    1    2    0    0 -0.40934880810E+03  0.24842731516E+03 -0.22445403740E+04  0.22968034733E+04  0.89789346598E+02 0.  0.
         13    1    3    3    0    0 -0.11094855541E+03  0.69161334186E+02 -0.44083001085E+03  0.45980862384E+03  0.00000000000E+00 0. -1.
        -13    1    3    3    0    0 -0.29840025269E+03  0.17926598097E+03 -0.18037103631E+04  0.18369948494E+04  0.00000000000E+00 0.  1.
         22    1    1    2    0    0  0.40934880810E+03 -0.24842731516E+03  0.11240247596E+04  0.12217668508E+04  0.00000000000E+00 0.  1.
<mgrwt>
<rscale>  0 0.33353833E+04</rscale>
<asrwt>0</asrwt>
<pdfrwt beam="1">  1        2 0.35685276E+00 0.33353833E+04</pdfrwt>
<pdfrwt beam="2">  1       -2 0.18446575E+00 0.33353833E+04</pdfrwt>
<totfact> 0.62180795E-01</totfact>
</mgrwt>
</event>
<event>
 6    1  0.1603085E-006  0.1651694E+04  0.7818608E-02  0.8789405E-01
          1   -1    0    0  501    0  0.00000000000E+00  0.00000000000E+00  0.93531735315E+03  0.93531735315E+03  0.00000000000E+00 0. -1.
         -1   -1    0    0    0  501 -0.00000000000E+00 -0.00000000000E+00 -0.72918943688E+03  0.72918943688E+03  0.00000000000E+00 0.  1.
         23    2    1    2    0    0  0.55224393835E+03 -0.26430788063E+03  0.65783165358E+03  0.90367284657E+03  0.95132044890E+02 0.  0.
         13    1    3    3    0    0  0.52873065239E+02 -0.76124125828E+01  0.92964658032E+02  0.10721910975E+03  0.00000000000E+00 0.  1.
        -13    1    3    3    0    0  0.49937087311E+03 -0.25669546805E+03  0.56486699555E+03  0.79645373682E+03  0.00000000000E+00 0. -1.
         22    1    1    2    0    0 -0.55224393835E+03  0.26430788063E+03 -0.45170373731E+03  0.76083394345E+03  0.00000000000E+00 0.  1.
<mgrwt>
<rscale>  0 0.16516943E+04</rscale>
<asrwt>0</asrwt>
<pdfrwt beam="1">  1        1 0.14389498E+00 0.16516943E+04</pdfrwt>
<pdfrwt beam="2">  1       -1 0.11218299E+00 0.16516943E+04</pdfrwt>
<totfact> 0.11855300E+01</totfact>
</mgrwt>
</event>
<event>
 6    1  0.1603085E-006  0.1046030E+04  0.7818608E-02  0.9259452E-01
          2   -1    0    0  501    0  0.00000000000E+00  0.00000000000E+00  0.19074821468E+04  0.19074821468E+04  0.00000000000E+00 0. -1.
         -2   -1    0    0    0  501 -0.00000000000E+00 -0.00000000000E+00 -0.14340621686E+03  0.14340621686E+03  0.00000000000E+00 0.  1.
         23    2    1    2    0    0  0.20097596472E+03 -0.13954652505E+03  0.17862623631E+04  0.18052121360E+04  0.90515496221E+02 0.  0.
         13    1    3    3    0    0  0.11641838378E+03 -0.13101614314E+03  0.11428887762E+04  0.11562496377E+04  0.00000000000E+00 0.  1.
        -13    1    3    3    0    0  0.84557580937E+02 -0.85303819151E+01  0.64337358683E+03  0.64896249825E+03  0.00000000000E+00 0. -1.
         22    1    1    2    0    0 -0.20097596472E+03  0.13954652505E+03 -0.22186433120E+02  0.24567622772E+03  0.00000000000E+00 0.  1.
<mgrwt>
<rscale>  0 0.10460302E+04</rscale>
<asrwt>0</asrwt>
<pdfrwt beam="1">  1        2 0.29345877E+00 0.10460302E+04</pdfrwt>
<pdfrwt beam="2">  1       -2 0.22062496E-01 0.10460302E+04</pdfrwt>
<totfact> 0.13481506E+02</totfact>
</mgrwt>
</event>
<event>
 6    1  0.1603085E-006  0.1785320E+04  0.7818608E-02  0.8714145E-01
          2   -1    0    0  501    0  0.00000000000E+00  0.00000000000E+00  0.92840782928E+03  0.92840782928E+03  0.00000000000E+00 0. -1.
         -2   -1    0    0    0  501 -0.00000000000E+00 -0.00000000000E+00 -0.85828830701E+03  0.85828830701E+03  0.00000000000E+00 0.  1.
         23    2    1    2    0    0 -0.74226670680E+03  0.23664185504E+03 -0.39627011318E+03  0.87868813872E+03  0.90020058515E+02 0.  0.
         11    1    3    3    0    0 -0.59124008145E+03  0.21880408033E+03 -0.34199103082E+03  0.71721539626E+03  0.00000000000E+00 0. -1.
        -11    1    3    3    0    0 -0.15102662536E+03  0.17837774711E+02 -0.54279082368E+02  0.16147274246E+03  0.00000000000E+00 0.  1.
         22    1    1    2    0    0  0.74226670680E+03 -0.23664185504E+03  0.46638963545E+03  0.90800799757E+03  0.00000000000E+00 0. -1.
<mgrwt>
<rscale>  0 0.17853197E+04</rscale>
<asrwt>0</asrwt>
<pdfrwt beam="1">  1        2 0.14283197E+00 0.17853197E+04</pdfrwt>
<pdfrwt beam="2">  1       -2 0.13204435E+00 0.17853197E+04</pdfrwt>
<totfact> 0.11070087E+01</totfact>
</mgrwt>
</event>
<event>
 6    1  0.1603085E-006  0.2008428E+04  0.7818608E-02  0.8602690E-01
         -2   -1    0    0    0  501 -0.00000000000E+00  0.00000000000E+00  0.24848738687E+04  0.24848738687E+04  0.00000000000E+00 0.  1.
          2   -1    0    0  501    0  0.00000000000E+00 -0.00000000000E+00 -0.40583393827E+03  0.40583393827E+03  0.00000000000E+00 0. -1.
         23    2    1    2    0    0  0.84275709933E+03 -0.50848692312E+03  0.13131439699E+04  0.16435530043E+04  0.90116107416E+02 0.  0.
         11    1    3    3    0    0  0.16943734185E+03 -0.82258049594E+02  0.20192074262E+03  0.27612929189E+03  0.00000000000E+00 0. -1.
        -11    1    3    3    0    0  0.67331975748E+03 -0.42622887353E+03  0.11112232273E+04  0.13674237124E+04  0.00000000000E+00 0.  1.
         22    1    1    2    0    0 -0.84275709933E+03  0.50848692312E+03  0.76589596053E+03  0.12471548027E+04  0.00000000000E+00 0. -1.
<mgrwt>
<rscale>  0 0.20084284E+04</rscale>
<asrwt>0</asrwt>
<pdfrwt beam="1">  1        2 0.62435992E-01 0.20084284E+04</pdfrwt>
<pdfrwt beam="2">  1       -2 0.38228828E+00 0.20084284E+04</pdfrwt>
<totfact> 0.70483604E-01</totfact>
</mgrwt>
</event>
<event>
 6    1  0.1603085E-006  0.1213311E+04  0.7818608E-02  0.9101284E-01
          2   -1    0    0  501    0  0.00000000000E+00  0.00000000000E+00  0.13599870423E+04  0.13599870423E+04  0.00000000000E+00 0. -1.
         -2   -1    0    0    0  501 -0.00000000000E+00 -0.00000000000E+00 -0.27061368646E+03  0.27061368646E+03  0.00000000000E+00 0.  1.
         23    2    1    2    0    0 -0.58693755518E+03 -0.61907950159E+02  0.71545496506E+03  0.93192823685E+03  0.91028257386E+02 0.  0.
         11    1    3    3    0    0 -0.78058945544E+02 -0.90204463220E+01  0.15024311966E+03  0.16955106144E+03  0.00000000000E+00 0.  1.
        -11    1    3    3    0    0 -0.50887860963E+03 -0.52887503837E+02  0.56521184540E+03  0.76237717541E+03  0.00000000000E+00 0. -1.
         22    1    1    2    0    0  0.58693755518E+03  0.61907950159E+02  0.37391839075E+03  0.69867249188E+03  0.00000000000E+00 0.  1.
<mgrwt>
<rscale>  0 0.12133113E+04</rscale>
<asrwt>0</asrwt>
<pdfrwt beam="1">  1        2 0.20922877E+00 0.12133113E+04</pdfrwt>
<pdfrwt beam="2">  1       -2 0.41632876E-01 0.12133113E+04</pdfrwt>
<totfact> 0.82184824E+01</totfact>
</mgrwt>
</event>
<event>
 6    1  0.1603085E-006  0.1639119E+04  0.7818608E-02  0.8796870E-01
         -2   -1    0    0    0  501 -0.00000000000E+00  0.00000000000E+00  0.81094456479E+03  0.81094456479E+03  0.00000000000E+00 0.  1.
          2   -1    0    0  501    0  0.00000000000E+00 -0.00000000000E+00 -0.82826624821E+03  0.82826624821E+03  0.00000000000E+00 0. -1.
         23    2    1    2    0    0 -0.25571465816E+03  0.10075163040E+02 -0.78460302969E+03  0.83037698605E+03  0.91828805131E+02 0.  0.
         11    1    3    3    0    0 -0.62801662813E+02 -0.30708774442E+02 -0.28058651639E+03  0.28916408986E+03  0.00000000000E+00 0.  1.
        -11    1    3    3    0    0 -0.19291299535E+03  0.40783937482E+02 -0.50401651329E+03  0.54121289619E+03  0.00000000000E+00 0. -1.
         22    1    1    2    0    0  0.25571465816E+03 -0.10075163040E+02  0.76728134626E+03  0.80883382696E+03  0.00000000000E+00 0.  1.
<mgrwt>
<rscale>  0 0.16391193E+04</rscale>
<asrwt>0</asrwt>
<pdfrwt beam="1">  1        2 0.12742558E+00 0.16391193E+04</pdfrwt>
<pdfrwt beam="2">  1       -2 0.12476070E+00 0.16391193E+04</pdfrwt>
<totfact> 0.15142395E+01</totfact>
</mgrwt>
</event>
<event>
 6    1  0.1603085E-006  0.1189580E+04  0.7818608E-02  0.9122026E-01
          2   -1    0    0  501    0  0.00000000000E+00  0.00000000000E+00  0.92442723779E+03  0.92442723779E+03  0.00000000000E+00 0. -1.
         -2   -1    0    0    0  501 -0.00000000000E+00 -0.00000000000E+00 -0.38269651011E+03  0.38269651011E+03  0.00000000000E+00 0.  1.
         23    2    1    2    0    0  0.54935019225E+03  0.16545692958E+03  0.42960026864E+03  0.72254281328E+03  0.91378864779E+02 0.  0.
         11    1    3    3    0    0  0.39574688484E+03  0.13398321046E+03  0.26266036209E+03  0.49351551482E+03  0.00000000000E+00 0. -1.
        -11    1    3    3    0    0  0.15360330741E+03  0.31473719115E+02  0.16693990655E+03  0.22902729846E+03  0.00000000000E+00 0.  1.
         22    1    1    2    0    0 -0.54935019225E+03 -0.16545692958E+03  0.11213045904E+03  0.58458093461E+03  0.00000000000E+00 0.  1.
<mgrwt>
<rscale>  0 0.11895799E+04</rscale>
<asrwt>0</asrwt>
<pdfrwt beam="1">  1        2 0.14221957E+00 0.11895799E+04</pdfrwt>
<pdfrwt beam="2">  1       -2 0.58876386E-01 0.11895799E+04</pdfrwt>
<totfact> 0.75154066E+01</totfact>
</mgrwt>
</event>
<event>
 6    1  0.1603085E-006  0.4567647E+03  0.7818608E-02  0.1025724E+00
          2   -1    0    0  501    0  0.00000000000E+00  0.00000000000E+00  0.32159994276E+03  0.32159994276E+03  0.00000000000E+00 0. -1.
         -2   -1    0    0    0  501 -0.00000000000E+00 -0.00000000000E+00 -0.16218440223E+03  0.16218440223E+03  0.00000000000E+00 0.  1.
         23    2    1    2    0    0  0.17687918704E+03  0.10896700663E+02 -0.54526904722E+02  0.20597801897E+03  0.89714971259E+02 0.  0.
         13    1    3    3    0    0  0.88893627073E+02 -0.26766719323E+02  0.55080464453E+01  0.92999315983E+02  0.00000000000E+00 0.  1.
        -13    1    3    3    0    0  0.87985559968E+02  0.37663419986E+02 -0.60034951167E+02  0.11297870299E+03  0.00000000000E+00 0. -1.
         22    1    1    2    0    0 -0.17687918704E+03 -0.10896700663E+02  0.21394244526E+03  0.27780632602E+03  0.00000000000E+00 0. -1.
<mgrwt>
<rscale>  0 0.45676469E+03</rscale>
<asrwt>0</asrwt>
<pdfrwt beam="1">  1        2 0.49476914E-01 0.45676469E+03</pdfrwt>
<pdfrwt beam="2">  1       -2 0.24951447E-01 0.45676469E+03</pdfrwt>
<totfact> 0.14557702E+03</totfact>
</mgrwt>
</event>
<event>
 6    1  0.1603085E-006  0.1264134E+04  0.7818608E-02  0.9058501E-01
          2   -1    0    0  501    0  0.00000000000E+00  0.00000000000E+00  0.55470342408E+03  0.55470342408E+03  0.00000000000E+00 0. -1.
         -2   -1    0    0    0  501 -0.00000000000E+00 -0.00000000000E+00 -0.72021979150E+03  0.72021979150E+03  0.00000000000E+00 0.  1.
         23    2    1    2    0    0 -0.53502067786E+02 -0.57456131469E+03 -0.33545548086E+03  0.67337315294E+03  0.88982289636E+02 0.  0.
         13    1    3    3    0    0  0.17012408857E+02 -0.27281114929E+03 -0.17305132925E+03  0.32351523579E+03  0.00000000000E+00 0.  1.
        -13    1    3    3    0    0 -0.70514476643E+02 -0.30175016540E+03 -0.16240415161E+03  0.34985791715E+03  0.00000000000E+00 0. -1.
         22    1    1    2    0    0  0.53502067786E+02  0.57456131469E+03  0.16993911344E+03  0.60155006265E+03  0.00000000000E+00 0.  1.
<mgrwt>
<rscale>  0 0.12641335E+04</rscale>
<asrwt>0</asrwt>
<pdfrwt beam="1">  1        2 0.85338989E-01 0.12641335E+04</pdfrwt>
<pdfrwt beam="2">  1       -2 0.11080304E+00 0.12641335E+04</pdfrwt>
<totfact> 0.34565986E+01</totfact>
</mgrwt>
</event>
<event>
 6    1  0.1603085E-006  0.1995522E+04  0.7818608E-02  0.8608717E-01
          1   -1    0    0  501    0  0.00000000000E+00  0.00000000000E+00  0.15880975606E+04  0.15880975606E+04  0.00000000000E+00 0. -1.
         -1   -1    0    0    0  501 -0.00000000000E+00 -0.00000000000E+00 -0.62686789633E+03  0.62686789633E+03  0.00000000000E+00 0.  1.
         23    2    1    2    0    0 -0.38455407530E+03 -0.51199390882E+03 -0.36453146597E+03  0.74266719436E+03  0.93014904194E+02 0.  0.
         11    1    3    3    0    0 -0.14139814745E+03 -0.13757207830E+03 -0.77771397279E+02  0.21205636766E+03  0.00000000000E+00 0.  1.
        -11    1    3    3    0    0 -0.24315592784E+03 -0.37442183052E+03 -0.28676006869E+03  0.53061082670E+03  0.00000000000E+00 0. -1.
         22    1    1    2    0    0  0.38455407530E+03  0.51199390882E+03  0.13257611302E+04  0.14722982626E+04  0.00000000000E+00 0. -1.
<mgrwt>
<rscale>  0 0.19955224E+04</rscale>
<asrwt>0</asrwt>
<pdfrwt beam="1">  1        1 0.24432270E+00 0.19955224E+04</pdfrwt>
<pdfrwt beam="2">  1       -1 0.96441216E-01 0.19955224E+04</pdfrwt>
<totfact> 0.54613007E+00</totfact>
</mgrwt>
</event>
<event>
 6    1  0.1603085E-006  0.9220702E+03  0.7818608E-02  0.9398406E-01
          2   -1    0    0  501    0  0.00000000000E+00  0.00000000000E+00  0.17226871132E+04  0.17226871132E+04  0.00000000000E+00 0. -1.
         -2   -1    0    0    0  501 -0.00000000000E+00 -0.00000000000E+00 -0.12338476624E+03  0.12338476624E+03  0.00000000000E+00 0.  1.
         23    2    1    2    0    0  0.42501473083E+03  0.14368113044E+03  0.97586457384E+03  0.10779856566E+04  0.91976196901E+02 0.  0.
         11    1    3    3    0    0  0.31958320354E+03  0.64383588780E+02  0.70170801737E+03  0.77373949888E+03  0.00000000000E+00 0.  1.
        -11    1    3    3    0    0  0.10543152730E+03  0.79297541661E+02  0.27415655646E+03  0.30424615776E+03  0.00000000000E+00 0. -1.
         22    1    1    2    0    0 -0.42501473083E+03 -0.14368113044E+03  0.62343777310E+03  0.76808622276E+03  0.00000000000E+00 0.  1.
<mgrwt>
<rscale>  0 0.92207016E+03</rscale>
<asrwt>0</asrwt>
<pdfrwt beam="1">  1        2 0.26502877E+00 0.92207016E+03</pdfrwt>
<pdfrwt beam="2">  1       -2 0.18982273E-01 0.92207016E+03</pdfrwt>
<totfact> 0.22396732E+02</totfact>
</mgrwt>
</event>
<event>
 6    1  0.1603085E-006  0.5342174E+04  0.7818608E-02  0.7777787E-01
          2   -1    0    0  501    0  0.00000000000E+00  0.00000000000E+00  0.29861614706E+04  0.29861614706E+04  0.00000000000E+00 0. -1.
         -2   -1    0    0    0  501 -0.00000000000E+00 -0.00000000000E+00 -0.23892569613E+04  0.23892569613E+04  0.00000000000E+00 0.  1.
         23    2    1    2    0    0 -0.15656827868E+04  0.16990329087E+04 -0.10481536242E+04  0.25391723782E+04  0.10341630745E+03 0.  0.
         13    1    3    3    0    0 -0.96364383108E+03  0.97864663881E+03 -0.64741757106E+03  0.15183899987E+04  0.00000000000E+00 0. -1.
        -13    1    3    3    0    0 -0.60203895575E+03  0.72038626989E+03 -0.40073605318E+03  0.10207823795E+04  0.00000000000E+00 0.  1.
         22    1    1    2    0    0  0.15656827868E+04 -0.16990329087E+04  0.16450581335E+04  0.28362460536E+04  0.00000000000E+00 0. -1.
<mgrwt>
<rscale>  0 0.53421745E+04</rscale>
<asrwt>0</asrwt>
<pdfrwt beam="1">  1        2 0.45940946E+00 0.53421745E+04</pdfrwt>
<pdfrwt beam="2">  1       -2 0.36757799E+00 0.53421745E+04</pdfrwt>
<totfact> 0.15140948E-02</totfact>
</mgrwt>
</event>
<event>
 6    1  0.1603085E-006  0.1118834E+04  0.7818608E-02  0.9187027E-01
         -2   -1    0    0    0  501 -0.00000000000E+00  0.00000000000E+00  0.61984194784E+03  0.61984194784E+03  0.00000000000E+00 0.  1.
          2   -1    0    0  501    0  0.00000000000E+00 -0.00000000000E+00 -0.50488215494E+03  0.50488215494E+03  0.00000000000E+00 0. -1.
         23    2    1    2    0    0 -0.41785036187E+03 -0.18665814559E+03 -0.25674887880E+03  0.53514160233E+03  0.10495884693E+03 0.  0.
         11    1    3    3    0    0 -0.28190829490E+03 -0.17467457054E+03 -0.16265389294E+03  0.36937755917E+03  0.00000000000E+00 0.  1.
        -11    1    3    3    0    0 -0.13594206696E+03 -0.11983575055E+02 -0.94094985856E+02  0.16576404316E+03  0.00000000000E+00 0. -1.
         22    1    1    2    0    0  0.41785036187E+03  0.18665814559E+03  0.37170867170E+03  0.58958250046E+03  0.00000000000E+00 0.  1.
<mgrwt>
<rscale>  0 0.11188336E+04</rscale>
<asrwt>0</asrwt>
<pdfrwt beam="1">  1        2 0.77674178E-01 0.11188336E+04</pdfrwt>
<pdfrwt beam="2">  1       -2 0.95360300E-01 0.11188336E+04</pdfrwt>
<totfact> 0.55802065E+01</totfact>
</mgrwt>
</event>
<event>
 6    1  0.1603085E-006  0.1524512E+04  0.7818608E-02  0.8868314E-01
          2   -1    0    0  501    0  0.00000000000E+00  0.00000000000E+00  0.31592069841E+04  0.31592069841E+04  0.00000000000E+00 0.  1.
         -2   -1    0    0    0  501 -0.00000000000E+00 -0.00000000000E+00 -0.18391780183E+03  0.18391780183E+03  0.00000000000E+00 0. -1.
         23    2    1    2    0    0 -0.42581559750E+03  0.19400349929E+03  0.18110275515E+03  0.51002858736E+03  0.91513229555E+02 0.  0.
         13    1    3    3    0    0 -0.31262464782E+03  0.14430052071E+03  0.17503641732E+03  0.38625711397E+03  0.00000000000E+00 0.  1.
        -13    1    3    3    0    0 -0.11319094968E+03  0.49702978576E+02  0.60663378264E+01  0.12377147339E+03  0.00000000000E+00 0. -1.
         22    1    1    2    0    0  0.42581559750E+03 -0.19400349929E+03  0.27941864271E+04  0.28330961986E+04  0.00000000000E+00 0.  1.
<mgrwt>
<rscale>  0 0.15245123E+04</rscale>
<asrwt>0</asrwt>
<pdfrwt beam="1">  1        2 0.48603180E+00 0.15245123E+04</pdfrwt>
<pdfrwt beam="2">  1       -2 0.28295049E-01 0.15245123E+04</pdfrwt>
<totfact> 0.15333530E+01</totfact>
</mgrwt>
</event>
<event>
 6    1  0.1603085E-006  0.2739159E+04  0.7818608E-02  0.8322410E-01
          1   -1    0    0  501    0  0.00000000000E+00  0.00000000000E+00  0.95553137693E+03  0.95553137693E+03  0.00000000000E+00 0. -1.
         -1   -1    0    0    0  501 -0.00000000000E+00 -0.00000000000E+00 -0.19630414851E+04  0.19630414851E+04  0.00000000000E+00 0.  1.
         23    2    1    2    0    0 -0.98929996021E+03 -0.93856273819E+03 -0.38779138049E+03  0.14206857747E+04  0.91386492331E+02 0.  0.
         13    1    3    3    0    0 -0.22597611679E+03 -0.26590966257E+03 -0.84785886070E+02  0.35911251786E+03  0.00000000000E+00 0.  1.
        -13    1    3    3    0    0 -0.76332384342E+03 -0.67265307561E+03 -0.30300549442E+03  0.10615732569E+04  0.00000000000E+00 0. -1.
         22    1    1    2    0    0  0.98929996021E+03  0.93856273819E+03 -0.61971872765E+03  0.14978870873E+04  0.00000000000E+00 0. -1.
<mgrwt>
<rscale>  0 0.27391588E+04</rscale>
<asrwt>0</asrwt>
<pdfrwt beam="1">  1        1 0.14700483E+00 0.27391588E+04</pdfrwt>
<pdfrwt beam="2">  1       -1 0.30200638E+00 0.27391588E+04</pdfrwt>
<totfact> 0.45758564E-01</totfact>
</mgrwt>
</event>
<event>
 6    1  0.1603085E-006  0.4276037E+04  0.7818608E-02  0.7951064E-01
          2   -1    0    0  501    0  0.00000000000E+00  0.00000000000E+00  0.20679076348E+04  0.20679076348E+04  0.00000000000E+00 0. -1.
         -2   -1    0    0    0  501 -0.00000000000E+00 -0.00000000000E+00 -0.22105062719E+04  0.22105062719E+04  0.00000000000E+00 0.  1.
         23    2    1    2    0    0  0.26193098770E+03  0.18527238053E+04  0.96163771696E+03  0.21057355443E+04  0.90452985741E+02 0.  0.
         13    1    3    3    0    0  0.24085780811E+03  0.15328607358E+04  0.76932726590E+03  0.17319177120E+04  0.00000000000E+00 0.  1.
        -13    1    3    3    0    0  0.21073179593E+02  0.31986306956E+03  0.19231045106E+03  0.37381783231E+03  0.00000000000E+00 0. -1.
         22    1    1    2    0    0 -0.26193098770E+03 -0.18527238053E+04 -0.11042363540E+04  0.21726783625E+04  0.00000000000E+00 0.  1.
<mgrwt>
<rscale>  0 0.42760369E+04</rscale>
<asrwt>0</asrwt>
<pdfrwt beam="1">  1        2 0.31813964E+00 0.42760369E+04</pdfrwt>
<pdfrwt beam="2">  1       -2 0.34007789E+00 0.42760369E+04</pdfrwt>
<totfact> 0.84847846E-02</totfact>
</mgrwt>
</event>
<event>
 6    1  0.1603085E-006  0.3655565E+04  0.7818608E-02  0.8077881E-01
          2   -1    0    0  501    0  0.00000000000E+00  0.00000000000E+00  0.18066734786E+04  0.18066734786E+04  0.00000000000E+00 0. -1.
         -2   -1    0    0    0  501 -0.00000000000E+00 -0.00000000000E+00 -0.18491380637E+04  0.18491380637E+04  0.00000000000E+00 0.  1.
         23    2    1    2    0    0  0.87501211274E+03  0.12212896967E+04  0.10178402670E+04  0.18169420255E+04  0.89915483102E+02 0.  0.
         11    1    3    3    0    0  0.68705608249E+03  0.89290539439E+03  0.76958135107E+03  0.13643978744E+04  0.00000000000E+00 0. -1.
        -11    1    3    3    0    0  0.18795603025E+03  0.32838430231E+03  0.24825891590E+03  0.45254415104E+03  0.00000000000E+00 0.  1.
         22    1    1    2    0    0 -0.87501211274E+03 -0.12212896967E+04 -0.10603048521E+04  0.18388695169E+04  0.00000000000E+00 0.  1.
<mgrwt>
<rscale>  0 0.36555649E+04</rscale>
<asrwt>0</asrwt>
<pdfrwt beam="1">  1        2 0.27794976E+00 0.36555649E+04</pdfrwt>
<pdfrwt beam="2">  1       -2 0.28448278E+00 0.36555649E+04</pdfrwt>
<totfact> 0.27448026E-01</totfact>
</mgrwt>
</event>
<event>
 6    1  0.1603085E-006  0.1611750E+04  0.7818608E-02  0.8813362E-01
          2   -1    0    0  501    0  0.00000000000E+00  0.00000000000E+00  0.14456515439E+04  0.14456515439E+04  0.00000000000E+00 0. -1.
         -2   -1    0    0    0  501 -0.00000000000E+00 -0.00000000000E+00 -0.44923302768E+03  0.44923302768E+03  0.00000000000E+00 0.  1.
         23    2    1    2    0    0 -0.29292346205E+03  0.25168170245E+03  0.13279553319E+04  0.13859007859E+04  0.90043273041E+02 0.  0.
         11    1    3    3    0    0 -0.11597907283E+03  0.12698820800E+03  0.45248470460E+03  0.48406565485E+03  0.00000000000E+00 0.  1.
        -11    1    3    3    0    0 -0.17694438923E+03  0.12469349444E+03  0.87547062727E+03  0.90183513108E+03  0.00000000000E+00 0. -1.
         22    1    1    2    0    0  0.29292346205E+03 -0.25168170245E+03 -0.33153681563E+03  0.50898378568E+03  0.00000000000E+00 0.  1.
<mgrwt>
<rscale>  0 0.16117499E+04</rscale>
<asrwt>0</asrwt>
<pdfrwt beam="1">  1        2 0.22240793E+00 0.16117499E+04</pdfrwt>
<pdfrwt beam="2">  1       -2 0.69112774E-01 0.16117499E+04</pdfrwt>
<totfact> 0.24954511E+01</totfact>
</mgrwt>
</event>
<event>
 6    1  0.1603085E-006  0.1161891E+04  0.7818608E-02  0.9146883E-01
         -2   -1    0    0    0  501 -0.00000000000E+00  0.00000000000E+00  0.23356451580E+03  0.23356451580E+03  0.00000000000E+00 0.  1.
          2   -1    0    0  501    0  0.00000000000E+00 -0.00000000000E+00 -0.14449878939E+04  0.14449878939E+04  0.00000000000E+00 0. -1.
         23    2    1    2    0    0 -0.15149594188E+03  0.41674542044E+03 -0.11435943189E+04  0.12299673597E+04  0.91564041826E+02 0.  0.
         11    1    3    3    0    0 -0.13248301249E+03  0.35984474325E+03 -0.10587814315E+04  0.11260808619E+04  0.00000000000E+00 0. -1.
        -11    1    3    3    0    0 -0.19012929388E+02  0.56900677188E+02 -0.84812887380E+02  0.10388649775E+03  0.00000000000E+00 0.  1.
         22    1    1    2    0    0  0.15149594188E+03 -0.41674542044E+03 -0.67829059232E+02  0.44858505007E+03  0.00000000000E+00 0.  1.
<mgrwt>
<rscale>  0 0.11618914E+04</rscale>
<asrwt>0</asrwt>
<pdfrwt beam="1">  1        2 0.22230583E+00 0.11618914E+04</pdfrwt>
<pdfrwt beam="2">  1       -2 0.35933002E-01 0.11618914E+04</pdfrwt>
<totfact> 0.98193922E+01</totfact>
</mgrwt>
</event>
<event>
 6    1  0.1603085E-006  0.1911740E+04  0.7818608E-02  0.8649035E-01
         -1   -1    0    0    0  501 -0.00000000000E+00  0.00000000000E+00  0.18073495050E+04  0.18073495050E+04  0.00000000000E+00 0. -1.
          1   -1    0    0  501    0  0.00000000000E+00 -0.00000000000E+00 -0.50553994130E+03  0.50553994130E+03  0.00000000000E+00 0.  1.
         23    2    1    2    0    0  0.38627590445E+03  0.48221190504E+03  0.15314325594E+04  0.16537505264E+04  0.88700190253E+02 0.  0.
         13    1    3    3    0    0  0.19750938754E+03  0.21646183416E+03  0.61942301582E+03  0.68523759116E+03  0.00000000000E+00 0. -1.
        -13    1    3    3    0    0  0.18876651690E+03  0.26575007088E+03  0.91200954357E+03  0.96851293519E+03  0.00000000000E+00 0.  1.
         22    1    1    2    0    0 -0.38627590445E+03 -0.48221190504E+03 -0.22962299564E+03  0.65913891999E+03  0.00000000000E+00 0.  1.
<mgrwt>
<rscale>  0 0.19117399E+04</rscale>
<asrwt>0</asrwt>
<pdfrwt beam="1">  1        1 0.77775376E-01 0.19117399E+04</pdfrwt>
<pdfrwt beam="2">  1       -1 0.27805377E+00 0.19117399E+04</pdfrwt>
<totfact> 0.18701438E+00</totfact>
</mgrwt>
</event>
<event>
 6    1  0.1603085E-006  0.3293269E+04  0.7818608E-02  0.8164610E-01
         -1   -1    0    0    0  501 -0.00000000000E+00  0.00000000000E+00  0.61150316865E+03  0.61150316865E+03  0.00000000000E+00 0.  1.
          1   -1    0    0  501    0  0.00000000000E+00 -0.00000000000E+00 -0.44339992997E+04  0.44339992997E+04  0.00000000000E+00 0. -1.
         23    2    1    2    0    0 -0.12289403022E+04  0.30901690516E+02 -0.35886759676E+04  0.37941347966E+04  0.74929793295E+02 0.  0.
         11    1    3    3    0    0 -0.75218019650E+03 -0.23182247905E+01 -0.22849933926E+04  0.24056132745E+04  0.00000000000E+00 0. -1.
        -11    1    3    3    0    0 -0.47676010575E+03  0.33219915307E+02 -0.13036825749E+04  0.13885215221E+04  0.00000000000E+00 0.  1.
         22    1    1    2    0    0  0.12289403022E+04 -0.30901690516E+02 -0.23382016350E+03  0.12513676717E+04  0.00000000000E+00 0.  1.
<mgrwt>
<rscale>  0 0.32932687E+04</rscale>
<asrwt>0</asrwt>
<pdfrwt beam="1">  1        1 0.68215371E+00 0.32932687E+04</pdfrwt>
<pdfrwt beam="2">  1       -1 0.94077414E-01 0.32932687E+04</pdfrwt>
<totfact> 0.34061911E-02</totfact>
</mgrwt>
</event>
<event>
 6    1  0.1603085E-006  0.1395521E+04  0.7818608E-02  0.8957067E-01
          2   -1    0    0  501    0  0.00000000000E+00  0.00000000000E+00  0.63054153698E+03  0.63054153698E+03  0.00000000000E+00 0. -1.
         -2   -1    0    0    0  501 -0.00000000000E+00 -0.00000000000E+00 -0.77214567826E+03  0.77214567826E+03  0.00000000000E+00 0.  1.
         23    2    1    2    0    0 -0.35433231206E+03  0.20661359077E+03  0.49258877092E+03  0.64741162769E+03  0.90871090966E+02 0.  0.
         13    1    3    3    0    0 -0.20758281540E+03  0.11630758077E+03  0.21500098465E+03  0.32069222316E+03  0.00000000000E+00 0. -1.
        -13    1    3    3    0    0 -0.14674949666E+03  0.90306009997E+02  0.27758778627E+03  0.32671940453E+03  0.00000000000E+00 0.  1.
         22    1    1    2    0    0  0.35433231206E+03 -0.20661359077E+03 -0.63419291220E+03  0.75527558755E+03  0.00000000000E+00 0.  1.
<mgrwt>
<rscale>  0 0.13955213E+04</rscale>
<asrwt>0</asrwt>
<pdfrwt beam="1">  1        2 0.97006390E-01 0.13955213E+04</pdfrwt>
<pdfrwt beam="2">  1       -2 0.11879164E+00 0.13955213E+04</pdfrwt>
<totfact> 0.24744273E+01</totfact>
</mgrwt>
</event>
<event>
 6    1  0.1603085E-006  0.1426025E+04  0.7818608E-02  0.8935193E-01
          1   -1    0    0  501    0  0.00000000000E+00  0.00000000000E+00  0.67367678457E+03  0.67367678457E+03  0.00000000000E+00 0. -1.
         -1   -1    0    0    0  501 -0.00000000000E+00 -0.00000000000E+00 -0.75464522978E+03  0.75464522978E+03  0.00000000000E+00 0.  1.
         23    2    1    2    0    0  0.63042334183E+03  0.29745485377E+03  0.94046179451E+02  0.70961268590E+03  0.93768332438E+02 0.  0.
         13    1    3    3    0    0  0.55002832449E+03  0.23633829704E+03  0.54398980807E+02  0.60112078445E+03  0.00000000000E+00 0. -1.
        -13    1    3    3    0    0  0.80395017342E+02  0.61116556731E+02  0.39647198644E+02  0.10849190145E+03  0.00000000000E+00 0.  1.
         22    1    1    2    0    0 -0.63042334183E+03 -0.29745485377E+03 -0.17501462467E+03  0.71870932845E+03  0.00000000000E+00 0. -1.
<mgrwt>
<rscale>  0 0.14260252E+04</rscale>
<asrwt>0</asrwt>
<pdfrwt beam="1">  1        1 0.10364258E+00 0.14260252E+04</pdfrwt>
<pdfrwt beam="2">  1       -1 0.11609927E+00 0.14260252E+04</pdfrwt>
<totfact> 0.18854125E+01</totfact>
</mgrwt>
</event>
<event>
 6    1  0.1603085E-006  0.2181443E+04  0.7818608E-02  0.8526192E-01
          1   -1    0    0  501    0  0.00000000000E+00  0.00000000000E+00  0.31034453775E+04  0.31034453775E+04  0.00000000000E+00 0. -1.
         -1   -1    0    0    0  501 -0.00000000000E+00 -0.00000000000E+00 -0.38333942965E+03  0.38333942965E+03  0.00000000000E+00 0.  1.
         23    2    1    2    0    0 -0.53063355683E+03  0.94234492809E+03  0.11589913725E+04  0.15876627330E+04  0.88464778973E+02 0.  0.
         13    1    3    3    0    0 -0.36212995465E+03  0.59272894128E+03  0.79327697074E+03  0.10543974840E+04  0.00000000000E+00 0.  1.
        -13    1    3    3    0    0 -0.16850360218E+03  0.34961598681E+03  0.36571440176E+03  0.53326524904E+03  0.00000000000E+00 0. -1.
         22    1    1    2    0    0  0.53063355683E+03 -0.94234492809E+03  0.15611145753E+04  0.18991220741E+04  0.00000000000E+00 0.  1.
<mgrwt>
<rscale>  0 0.21814426E+04</rscale>
<asrwt>0</asrwt>
<pdfrwt beam="1">  1        1 0.47745312E+00 0.21814426E+04</pdfrwt>
<pdfrwt beam="2">  1       -1 0.58975299E-01 0.21814426E+04</pdfrwt>
<totfact> 0.13368913E+00</totfact>
</mgrwt>
</event>
<event>
 6    1  0.1603085E-006  0.2139658E+04  0.7818608E-02  0.8543972E-01
          1   -1    0    0  501    0  0.00000000000E+00  0.00000000000E+00  0.13040307522E+04  0.13040307522E+04  0.00000000000E+00 0. -1.
         -1   -1    0    0    0  501 -0.00000000000E+00 -0.00000000000E+00 -0.87768951269E+03  0.87768951269E+03  0.00000000000E+00 0.  1.
         23    2    1    2    0    0  0.23024418778E+03 -0.10395120571E+04  0.13232473991E+03  0.10771645149E+04  0.95790670801E+02 0.  0.
         13    1    3    3    0    0  0.72821727484E+02 -0.17324615256E+03  0.93146977057E+01  0.18815949873E+03  0.00000000000E+00 0. -1.
        -13    1    3    3    0    0  0.15742246029E+03 -0.86626590450E+03  0.12301004220E+03  0.88900501618E+03  0.00000000000E+00 0.  1.
         22    1    1    2    0    0 -0.23024418778E+03  0.10395120571E+04  0.29401649961E+03  0.11045557500E+04  0.00000000000E+00 0.  1.
<mgrwt>
<rscale>  0 0.21396580E+04</rscale>
<asrwt>0</asrwt>
<pdfrwt beam="1">  1        1 0.20062011E+00 0.21396580E+04</pdfrwt>
<pdfrwt beam="2">  1       -1 0.13502916E+00 0.21396580E+04</pdfrwt>
<totfact> 0.37918403E+00</totfact>
</mgrwt>
</event>
<event>
 6    1  0.1603085E-006  0.2033691E+04  0.7818608E-02  0.8591029E-01
          2   -1    0    0  501    0  0.00000000000E+00  0.00000000000E+00  0.97292309913E+03  0.97292309913E+03  0.00000000000E+00 0.  1.
         -2   -1    0    0    0  501 -0.00000000000E+00 -0.00000000000E+00 -0.10627503230E+04  0.10627503230E+04  0.00000000000E+00 0. -1.
         23    2    1    2    0    0  0.67737373081E+03 -0.50241141807E+03 -0.60981988811E+03  0.10448935398E+04  0.93111811394E+02 0.  0.
         13    1    3    3    0    0  0.16178018354E+03 -0.11420645230E+03 -0.96724208822E+02  0.22038946006E+03  0.00000000000E+00 0.  1.
        -13    1    3    3    0    0  0.51559354727E+03 -0.38820496577E+03 -0.51309567929E+03  0.82450407976E+03  0.00000000000E+00 0. -1.
         22    1    1    2    0    0 -0.67737373081E+03  0.50241141807E+03  0.51999266429E+03  0.99077988227E+03  0.00000000000E+00 0. -1.
<mgrwt>
<rscale>  0 0.20336906E+04</rscale>
<asrwt>0</asrwt>
<pdfrwt beam="1">  1        2 0.14968048E+00 0.20336906E+04</pdfrwt>
<pdfrwt beam="2">  1       -2 0.16350005E+00 0.20336906E+04</pdfrwt>
<totfact> 0.57677980E+00</totfact>
</mgrwt>
</event>
<event>
 6    1  0.1603085E-006  0.3161806E+04  0.7818608E-02  0.8198978E-01
          2   -1    0    0  501    0  0.00000000000E+00  0.00000000000E+00  0.19789497803E+04  0.19789497803E+04  0.00000000000E+00 0. -1.
         -2   -1    0    0    0  501 -0.00000000000E+00 -0.00000000000E+00 -0.12629195203E+04  0.12629195203E+04  0.00000000000E+00 0.  1.
         23    2    1    2    0    0 -0.13378372746E+04  0.83692256347E+03  0.42973908940E+03  0.16380580321E+04  0.91161840243E+02 0.  0.
         11    1    3    3    0    0 -0.94137912930E+03  0.57481913861E+03  0.34161554507E+03  0.11546916852E+04  0.00000000000E+00 0. -1.
        -11    1    3    3    0    0 -0.39645814531E+03  0.26210342486E+03  0.88123544330E+02  0.48336634696E+03  0.00000000000E+00 0.  1.
         22    1    1    2    0    0  0.13378372746E+04 -0.83692256347E+03  0.28629117064E+03  0.16038112685E+04  0.00000000000E+00 0.  1.
<mgrwt>
<rscale>  0 0.31618060E+04</rscale>
<asrwt>0</asrwt>
<pdfrwt beam="1">  1        2 0.30445381E+00 0.31618060E+04</pdfrwt>
<pdfrwt beam="2">  1       -2 0.19429531E+00 0.31618060E+04</pdfrwt>
<totfact> 0.84122365E-01</totfact>
</mgrwt>
</event>
<event>
 6    1  0.1603085E-006  0.9794445E+03  0.7818608E-02  0.9331381E-01
          1   -1    0    0  501    0  0.00000000000E+00  0.00000000000E+00  0.14717332700E+04  0.14717332700E+04  0.00000000000E+00 0. -1.
         -1   -1    0    0    0  501 -0.00000000000E+00 -0.00000000000E+00 -0.16295609195E+03  0.16295609195E+03  0.00000000000E+00 0.  1.
         23    2    1    2    0    0  0.88728939540E+02 -0.40590429748E+03  0.10792408927E+04  0.11600125985E+04  0.90759027010E+02 0.  0.
         13    1    3    3    0    0  0.84865100541E+02 -0.25845584068E+03  0.60456935072E+03  0.66295219036E+03  0.00000000000E+00 0. -1.
        -13    1    3    3    0    0  0.38638389992E+01 -0.14744845679E+03  0.47467154194E+03  0.49706040819E+03  0.00000000000E+00 0.  1.
         22    1    1    2    0    0 -0.88728939540E+02  0.40590429748E+03  0.22953628542E+03  0.47467676344E+03  0.00000000000E+00 0.  1.
<mgrwt>
<rscale>  0 0.97944454E+03</rscale>
<asrwt>0</asrwt>
<pdfrwt beam="1">  1        1 0.22642049E+00 0.97944454E+03</pdfrwt>
<pdfrwt beam="2">  1       -1 0.25070169E-01 0.97944454E+03</pdfrwt>
<totfact> 0.95764216E+01</totfact>
</mgrwt>
</event>
<event>
 6    1  0.1603085E-006  0.3248198E+04  0.7818608E-02  0.8176203E-01
         -2   -1    0    0    0  501 -0.00000000000E+00  0.00000000000E+00  0.22429320030E+04  0.22429320030E+04  0.00000000000E+00 0.  1.
          2   -1    0    0  501    0  0.00000000000E+00 -0.00000000000E+00 -0.11760046060E+04  0.11760046060E+04  0.00000000000E+00 0. -1.
         23    2    1    2    0    0 -0.24360911307E+03  0.15010331537E+04 -0.61827613701E+02  0.15251219923E+04  0.98633205567E+02 0.  0.
         11    1    3    3    0    0 -0.26970388905E+02  0.43941066339E+03 -0.26879426292E+02  0.44105740730E+03  0.00000000000E+00 0. -1.
        -11    1    3    3    0    0 -0.21663872416E+03  0.10616224903E+04 -0.34948187409E+02  0.10840645850E+04  0.00000000000E+00 0.  1.
         22    1    1    2    0    0  0.24360911307E+03 -0.15010331537E+04  0.11287550107E+04  0.18938146167E+04  0.00000000000E+00 0.  1.
<mgrwt>
<rscale>  0 0.32481985E+04</rscale>
<asrwt>0</asrwt>
<pdfrwt beam="1">  1        2 0.18092379E+00 0.32481985E+04</pdfrwt>
<pdfrwt beam="2">  1       -2 0.34506646E+00 0.32481985E+04</pdfrwt>
<totfact> 0.27434284E-01</totfact>
</mgrwt>
</event>
<event>
 6    1  0.1603085E-006  0.2814154E+04  0.7818608E-02  0.8298887E-01
          1   -1    0    0  501    0  0.00000000000E+00  0.00000000000E+00  0.25940977561E+04  0.25940977561E+04  0.00000000000E+00 0. -1.
         -1   -1    0    0    0  501 -0.00000000000E+00 -0.00000000000E+00 -0.76321961890E+03  0.76321961890E+03  0.00000000000E+00 0.  1.
         23    2    1    2    0    0 -0.81932907831E+03  0.10692070437E+04  0.13955115003E+04  0.19416733698E+04  0.90217994774E+02 0.  0.
         13    1    3    3    0    0 -0.16534578991E+03  0.25683906442E+03  0.35784460535E+03  0.47048729720E+03  0.00000000000E+00 0. -1.
        -13    1    3    3    0    0 -0.65398328839E+03  0.81236797933E+03  0.10376668950E+04  0.14711860726E+04  0.00000000000E+00 0.  1.
         22    1    1    2    0    0  0.81932907831E+03 -0.10692070437E+04  0.43536663693E+03  0.14156440052E+04  0.00000000000E+00 0. -1.
<mgrwt>
<rscale>  0 0.28141544E+04</rscale>
<asrwt>0</asrwt>
<pdfrwt beam="1">  1        1 0.39909196E+00 0.28141544E+04</pdfrwt>
<pdfrwt beam="2">  1       -1 0.11741840E+00 0.28141544E+04</pdfrwt>
<totfact> 0.65721472E-01</totfact>
</mgrwt>
</event>
<event>
 6    1  0.1603085E-006  0.3507146E+04  0.7818608E-02  0.8112099E-01
          2   -1    0    0  501    0  0.00000000000E+00  0.00000000000E+00  0.28076362193E+04  0.28076362193E+04  0.00000000000E+00 0.  1.
         -2   -1    0    0    0  501 -0.00000000000E+00 -0.00000000000E+00 -0.10952335712E+04  0.10952335712E+04  0.00000000000E+00 0. -1.
         23    2    1    2    0    0  0.10815027990E+04  0.87033860609E+03  0.20469719374E+04  0.24749082354E+04  0.89101444292E+02 0.  0.
         11    1    3    3    0    0  0.80295490162E+03  0.69452656938E+03  0.15688360109E+04  0.18942941057E+04  0.00000000000E+00 0.  1.
        -11    1    3    3    0    0  0.27854789740E+03  0.17581203671E+03  0.47813592649E+03  0.58061412969E+03  0.00000000000E+00 0. -1.
         22    1    1    2    0    0 -0.10815027990E+04 -0.87033860609E+03 -0.33456928930E+03  0.14279615551E+04  0.00000000000E+00 0. -1.
<mgrwt>
<rscale>  0 0.35071455E+04</rscale>
<asrwt>0</asrwt>
<pdfrwt beam="1">  1        2 0.43194403E+00 0.35071455E+04</pdfrwt>
<pdfrwt beam="2">  1       -2 0.16849747E+00 0.35071455E+04</pdfrwt>
<totfact> 0.41029407E-01</totfact>
</mgrwt>
</event>
<event>
 6    1  0.1603085E-006  0.6352842E+03  0.7818608E-02  0.9834791E-01
          2   -1    0    0  501    0  0.00000000000E+00  0.00000000000E+00  0.92994265824E+03  0.92994265824E+03  0.00000000000E+00 0. -1.
         -2   -1    0    0    0  501 -0.00000000000E+00 -0.00000000000E+00 -0.10849754688E+03  0.10849754688E+03  0.00000000000E+00 0.  1.
         23    2    1    2    0    0 -0.19820211032E+03 -0.25102290233E+02  0.28815618904E+02  0.22102004766E+03  0.90029551064E+02 0.  0.
         11    1    3    3    0    0 -0.11774076799E+03  0.30101538849E+02  0.17729062777E+02  0.12281413093E+03  0.00000000000E+00 0.  1.
        -11    1    3    3    0    0 -0.80461342326E+02 -0.55203829083E+02  0.11086556127E+02  0.98205916731E+02  0.00000000000E+00 0. -1.
         22    1    1    2    0    0  0.19820211032E+03  0.25102290233E+02  0.79262949246E+03  0.81742015746E+03  0.00000000000E+00 0. -1.
<mgrwt>
<rscale>  0 0.63528418E+03</rscale>
<asrwt>0</asrwt>
<pdfrwt beam="1">  1        2 0.14306810E+00 0.63528418E+03</pdfrwt>
<pdfrwt beam="2">  1       -2 0.16691931E-01 0.63528418E+03</pdfrwt>
<totfact> 0.82316749E+02</totfact>
</mgrwt>
</event>
<event>
 6    1  0.1603085E-006  0.4019883E+04  0.7818608E-02  0.8000547E-01
         -2   -1    0    0    0  501 -0.00000000000E+00  0.00000000000E+00  0.16384589874E+04  0.16384589874E+04  0.00000000000E+00 0.  1.
          2   -1    0    0  501    0  0.00000000000E+00 -0.00000000000E+00 -0.24656495775E+04  0.24656495775E+04  0.00000000000E+00 0. -1.
         23    2    1    2    0    0 -0.63613749937E+03 -0.50693449670E+03 -0.22891592172E+04  0.24310856217E+04  0.90960850452E+02 0.  0.
         13    1    3    3    0    0 -0.48855334104E+03 -0.38951899252E+03 -0.16365318133E+04  0.17517550595E+04  0.00000000000E+00 0.  1.
        -13    1    3    3    0    0 -0.14758415833E+03 -0.11741550419E+03 -0.65262740384E+03  0.67933056214E+03  0.00000000000E+00 0. -1.
         22    1    1    2    0    0  0.63613749937E+03  0.50693449670E+03  0.14619686271E+04  0.16730229433E+04  0.00000000000E+00 0.  1.
<mgrwt>
<rscale>  0 0.40198834E+04</rscale>
<asrwt>0</asrwt>
<pdfrwt beam="1">  1        2 0.37933070E+00 0.40198834E+04</pdfrwt>
<pdfrwt beam="2">  1       -2 0.25207061E+00 0.40198834E+04</pdfrwt>
<totfact> 0.17912022E-01</totfact>
</mgrwt>
</event>
<event>
 6    1  0.1603085E-006  0.8043809E+03  0.7818608E-02  0.9553697E-01
         -1   -1    0    0    0  501 -0.00000000000E+00  0.00000000000E+00  0.57481725193E+03  0.57481725193E+03  0.00000000000E+00 0.  1.
          1   -1    0    0  501    0  0.00000000000E+00 -0.00000000000E+00 -0.28140625221E+03  0.28140625221E+03  0.00000000000E+00 0. -1.
         23    2    1    2    0    0 -0.25755448767E+03  0.14446663163E+03  0.43091848578E+03  0.53047324628E+03  0.92229072770E+02 0.  0.
         13    1    3    3    0    0 -0.10993531199E+03  0.90384483340E+02  0.13913916752E+03  0.19903475975E+03  0.00000000000E+00 0.  1.
        -13    1    3    3    0    0 -0.14761917568E+03  0.54082148292E+02  0.29177931826E+03  0.33143848653E+03  0.00000000000E+00 0. -1.
         22    1    1    2    0    0  0.25755448767E+03 -0.14446663163E+03 -0.13750748606E+03  0.32575025786E+03  0.00000000000E+00 0. -1.
<mgrwt>
<rscale>  0 0.80438093E+03</rscale>
<asrwt>0</asrwt>
<pdfrwt beam="1">  1        1 0.43293270E-01 0.80438093E+03</pdfrwt>
<pdfrwt beam="2">  1       -1 0.88433423E-01 0.80438093E+03</pdfrwt>
<totfact> 0.12116805E+02</totfact>
</mgrwt>
</event>
<event>
 6    1  0.1603085E-006  0.1273962E+04  0.7818608E-02  0.9050472E-01
          1   -1    0    0  501    0  0.00000000000E+00  0.00000000000E+00  0.80494589189E+03  0.80494589189E+03  0.00000000000E+00 0. -1.
         -1   -1    0    0    0  501 -0.00000000000E+00 -0.00000000000E+00 -0.50406448668E+03  0.50406448668E+03  0.00000000000E+00 0.  1.
         23    2    1    2    0    0 -0.21555015541E+02  0.26010819087E+03  0.74489280159E+03  0.79396959401E+03  0.86032207411E+02 0.  0.
         11    1    3    3    0    0 -0.23541859792E+02  0.26328926465E+03  0.68926048445E+03  0.73821099386E+03  0.00000000000E+00 0.  1.
        -11    1    3    3    0    0  0.19868442509E+01 -0.31810737785E+01  0.55632317139E+02  0.55758600151E+02  0.00000000000E+00 0. -1.
         22    1    1    2    0    0  0.21555015541E+02 -0.26010819087E+03 -0.44401139637E+03  0.51504078456E+03  0.00000000000E+00 0.  1.
<mgrwt>
<rscale>  0 0.12739618E+04</rscale>
<asrwt>0</asrwt>
<pdfrwt beam="1">  1        1 0.12383783E+00 0.12739618E+04</pdfrwt>
<pdfrwt beam="2">  1       -1 0.77548382E-01 0.12739618E+04</pdfrwt>
<totfact> 0.35926768E+01</totfact>
</mgrwt>
</event>
<event>
 6    1  0.1603085E-006  0.9219474E+03  0.7818608E-02  0.9398554E-01
         -2   -1    0    0    0  501 -0.00000000000E+00  0.00000000000E+00  0.78766345439E+02  0.78766345439E+02  0.00000000000E+00 0.  1.
          2   -1    0    0  501    0  0.00000000000E+00 -0.00000000000E+00 -0.26978114589E+04  0.26978114589E+04  0.00000000000E+00 0. -1.
         23    2    1    2    0    0 -0.36013466522E+02 -0.39062826434E+03 -0.20274321115E+04  0.20667233441E+04  0.83528459360E+02 0.  0.
         11    1    3    3    0    0 -0.89692046391E+01 -0.97607538952E+02 -0.71626780057E+03  0.72294345589E+03  0.00000000000E+00 0.  1.
        -11    1    3    3    0    0 -0.27044261882E+02 -0.29302072539E+03 -0.13111643109E+04  0.13437798882E+04  0.00000000000E+00 0. -1.
         22    1    1    2    0    0  0.36013466522E+02  0.39062826434E+03 -0.59161300198E+03  0.70985446029E+03  0.00000000000E+00 0.  1.
<mgrwt>
<rscale>  0 0.92194739E+03</rscale>
<asrwt>0</asrwt>
<pdfrwt beam="1">  1        2 0.41504798E+00 0.92194739E+03</pdfrwt>
<pdfrwt beam="2">  1       -2 0.12117897E-01 0.92194739E+03</pdfrwt>
<totfact> 0.13684381E+02</totfact>
</mgrwt>
</event>
<event>
 6    1  0.1603085E-006  0.1080364E+04  0.7818608E-02  0.9224545E-01
         -2   -1    0    0    0  501 -0.00000000000E+00  0.00000000000E+00  0.14940791202E+03  0.14940791202E+03  0.00000000000E+00 0.  1.
          2   -1    0    0  501    0  0.00000000000E+00 -0.00000000000E+00 -0.19530185698E+04  0.19530185698E+04  0.00000000000E+00 0. -1.
         23    2    1    2    0    0  0.37467478554E+03  0.10814525223E+03 -0.18939161403E+03  0.44177007193E+03  0.84941288505E+02 0.  0.
         11    1    3    3    0    0  0.17679487499E+03  0.94623810487E+02 -0.87433578503E+02  0.21875722613E+03  0.00000000000E+00 0. -1.
        -11    1    3    3    0    0  0.19787991055E+03  0.13521441748E+02 -0.10195803552E+03  0.22301284581E+03  0.00000000000E+00 0.  1.
         22    1    1    2    0    0 -0.37467478554E+03 -0.10814525223E+03 -0.16142190438E+04  0.16606564099E+04  0.00000000000E+00 0. -1.
<mgrwt>
<rscale>  0 0.10803637E+04</rscale>
<asrwt>0</asrwt>
<pdfrwt beam="1">  1        2 0.30046438E+00 0.10803637E+04</pdfrwt>
<pdfrwt beam="2">  1       -2 0.22985834E-01 0.10803637E+04</pdfrwt>
<totfact> 0.11797356E+02</totfact>
</mgrwt>
</event>
<event>
 6    1  0.1603085E-006  0.2655300E+04  0.7818608E-02  0.8349656E-01
          2   -1    0    0  501    0  0.00000000000E+00  0.00000000000E+00  0.13226126393E+04  0.13226126393E+04  0.00000000000E+00 0. -1.
         -2   -1    0    0    0  501 -0.00000000000E+00 -0.00000000000E+00 -0.13327065902E+04  0.13327065902E+04  0.00000000000E+00 0.  1.
         23    2    1    2    0    0 -0.21529281507E+03  0.12217321053E+04 -0.47378181615E+03  0.13309375739E+04  0.89136315997E+02 0.  0.
         13    1    3    3    0    0 -0.88039413518E+02  0.71161683544E+03 -0.24740759585E+03  0.75852486927E+03  0.00000000000E+00 0. -1.
        -13    1    3    3    0    0 -0.12725340155E+03  0.51011526990E+03 -0.22637422030E+03  0.57241270462E+03  0.00000000000E+00 0.  1.
         22    1    1    2    0    0  0.21529281507E+03 -0.12217321053E+04  0.46368786523E+03  0.13243816556E+04  0.00000000000E+00 0.  1.
<mgrwt>
<rscale>  0 0.26553000E+04</rscale>
<asrwt>0</asrwt>
<pdfrwt beam="1">  1        2 0.20347887E+00 0.26553000E+04</pdfrwt>
<pdfrwt beam="2">  1       -2 0.20503178E+00 0.26553000E+04</pdfrwt>
<totfact> 0.17412834E+00</totfact>
</mgrwt>
</event>
<event>
 6    1  0.1603085E-006  0.1969911E+04  0.7818608E-02  0.8620819E-01
          2   -1    0    0  501    0  0.00000000000E+00  0.00000000000E+00  0.18433094201E+04  0.18433094201E+04  0.00000000000E+00 0.  1.
         -2   -1    0    0    0  501 -0.00000000000E+00 -0.00000000000E+00 -0.52630168355E+03  0.52630168355E+03  0.00000000000E+00 0. -1.
         23    2    1    2    0    0 -0.93106287298E+03  0.31046764694E+03  0.72347108507E+03  0.12226350839E+04  0.90321116815E+02 0.  0.
         11    1    3    3    0    0 -0.53942780470E+03  0.21256521071E+03  0.46570186158E+03  0.74366965056E+03  0.00000000000E+00 0.  1.
        -11    1    3    3    0    0 -0.39163506828E+03  0.97902436225E+02  0.25776922349E+03  0.47896543331E+03  0.00000000000E+00 0. -1.
         22    1    1    2    0    0  0.93106287298E+03 -0.31046764694E+03  0.59353665143E+03  0.11469760197E+04  0.00000000000E+00 0. -1.
<mgrwt>
<rscale>  0 0.19699105E+04</rscale>
<asrwt>0</asrwt>
<pdfrwt beam="1">  1        2 0.28358606E+00 0.19699105E+04</pdfrwt>
<pdfrwt beam="2">  1       -2 0.80969491E-01 0.19699105E+04</pdfrwt>
<totfact> 0.10227797E+01</totfact>
</mgrwt>
</event>
<event>
 6    1  0.1603085E-006  0.2726458E+04  0.7818608E-02  0.8326471E-01
          2   -1    0    0  501    0  0.00000000000E+00  0.00000000000E+00  0.40278892480E+04  0.40278892480E+04  0.00000000000E+00 0. -1.
         -2   -1    0    0    0  501 -0.00000000000E+00 -0.00000000000E+00 -0.46138143765E+03  0.46138143765E+03  0.00000000000E+00 0.  1.
         23    2    1    2    0    0 -0.11263823497E+04  0.75933157044E+03  0.16299852316E+04  0.21238021634E+04  0.91444751822E+02 0.  0.
         13    1    3    3    0    0 -0.88430156467E+03  0.60574968698E+03  0.13409145016E+04  0.17166751705E+04  0.00000000000E+00 0. -1.
        -13    1    3    3    0    0 -0.24208078502E+03  0.15358188345E+03  0.28907072999E+03  0.40712699289E+03  0.00000000000E+00 0.  1.
         22    1    1    2    0    0  0.11263823497E+04 -0.75933157044E+03  0.19365225787E+04  0.23654685222E+04  0.00000000000E+00 0.  1.
<mgrwt>
<rscale>  0 0.27264580E+04</rscale>
<asrwt>0</asrwt>
<pdfrwt beam="1">  1        2 0.61967525E+00 0.27264580E+04</pdfrwt>
<pdfrwt beam="2">  1       -2 0.70981762E-01 0.27264580E+04</pdfrwt>
<totfact> 0.51318908E-01</totfact>
</mgrwt>
</event>
<event>
 6    1  0.1603085E-006  0.1683741E+04  0.7818608E-02  0.8770692E-01
          1   -1    0    0  501    0  0.00000000000E+00  0.00000000000E+00  0.23123761145E+04  0.23123761145E+04  0.00000000000E+00 0. -1.
         -1   -1    0    0    0  501 -0.00000000000E+00 -0.00000000000E+00 -0.30650114451E+03  0.30650114451E+03  0.00000000000E+00 0.  1.
         23    2    1    2    0    0 -0.16608758693E+03 -0.48614028867E+03  0.20383584960E+04  0.21041223210E+04  0.92238367654E+02 0.  0.
         11    1    3    3    0    0 -0.15007985310E+03 -0.30884113924E+03  0.12960122777E+04  0.13407291433E+04  0.00000000000E+00 0.  1.
        -11    1    3    3    0    0 -0.16007733828E+02 -0.17729914943E+03  0.74234621828E+03  0.76339317768E+03  0.00000000000E+00 0. -1.
         22    1    1    2    0    0  0.16608758693E+03  0.48614028867E+03 -0.32483526005E+02  0.51475493807E+03  0.00000000000E+00 0.  1.
<mgrwt>
<rscale>  0 0.16837410E+04</rscale>
<asrwt>0</asrwt>
<pdfrwt beam="1">  1        1 0.35575016E+00 0.16837410E+04</pdfrwt>
<pdfrwt beam="2">  1       -1 0.47154024E-01 0.16837410E+04</pdfrwt>
<totfact> 0.78091739E+00</totfact>
</mgrwt>
</event>
<event>
 6    1  0.1603085E-006  0.1796935E+04  0.7818608E-02  0.8707931E-01
         -1   -1    0    0    0  501 -0.00000000000E+00  0.00000000000E+00  0.16669134222E+04  0.16669134222E+04  0.00000000000E+00 0.  1.
          1   -1    0    0  501    0  0.00000000000E+00 -0.00000000000E+00 -0.48427436787E+03  0.48427436787E+03  0.00000000000E+00 0. -1.
         23    2    1    2    0    0 -0.68505198877E+03  0.57410854973E+03  0.67092035227E+03  0.11212592080E+04  0.90505459553E+02 0.  0.
         13    1    3    3    0    0 -0.52959746305E+03  0.42799973132E+03  0.55503626996E+03  0.87847737811E+03  0.00000000000E+00 0.  1.
        -13    1    3    3    0    0 -0.15545452571E+03  0.14610881842E+03  0.11588408230E+03  0.24278182987E+03  0.00000000000E+00 0. -1.
         22    1    1    2    0    0  0.68505198877E+03 -0.57410854973E+03  0.51171870208E+03  0.10299285821E+04  0.00000000000E+00 0.  1.
<mgrwt>
<rscale>  0 0.17969345E+04</rscale>
<asrwt>0</asrwt>
<pdfrwt beam="1">  1        1 0.74503750E-01 0.17969345E+04</pdfrwt>
<pdfrwt beam="2">  1       -1 0.25644822E+00 0.17969345E+04</pdfrwt>
<totfact> 0.27671881E+00</totfact>
</mgrwt>
</event>
<event>
 6    1  0.1603085E-006  0.2751871E+04  0.7818608E-02  0.8318368E-01
          1   -1    0    0  501    0  0.00000000000E+00  0.00000000000E+00  0.34776435968E+04  0.34776435968E+04  0.00000000000E+00 0. -1.
         -1   -1    0    0    0  501 -0.00000000000E+00 -0.00000000000E+00 -0.54439133973E+03  0.54439133973E+03  0.00000000000E+00 0.  1.
         23    2    1    2    0    0  0.32480800986E+02 -0.11530731477E+04  0.37612884237E+03  0.12167697361E+04  0.91776893934E+02 0.  0.
         11    1    3    3    0    0 -0.29967020189E+01 -0.83844437364E+03  0.23999247768E+03  0.87212059789E+03  0.00000000000E+00 0. -1.
        -11    1    3    3    0    0  0.35477503004E+02 -0.31462877410E+03  0.13613636470E+03  0.34464913826E+03  0.00000000000E+00 0.  1.
         22    1    1    2    0    0 -0.32480800986E+02  0.11530731477E+04  0.25571234147E+04  0.28052652004E+04  0.00000000000E+00 0. -1.
<mgrwt>
<rscale>  0 0.27518714E+04</rscale>
<asrwt>0</asrwt>
<pdfrwt beam="1">  1        1 0.53502208E+00 0.27518714E+04</pdfrwt>
<pdfrwt beam="2">  1       -1 0.83752516E-01 0.27518714E+04</pdfrwt>
<totfact> 0.31973173E-01</totfact>
</mgrwt>
</event>
<event>
 6    1  0.1603085E-006  0.1571592E+04  0.7818608E-02  0.8838192E-01
          3   -1    0    0  501    0  0.00000000000E+00  0.00000000000E+00  0.23063150820E+03  0.23063150820E+03  0.00000000000E+00 0. -1.
         -3   -1    0    0    0  501 -0.00000000000E+00 -0.00000000000E+00 -0.26773259432E+04  0.26773259432E+04  0.00000000000E+00 0.  1.
         23    2    1    2    0    0  0.45963770168E+03  0.63293957048E+03 -0.12950513730E+04  0.15157789215E+04  0.92457361039E+02 0.  0.
         11    1    3    3    0    0  0.36389632253E+03  0.43637523324E+03 -0.90326436842E+03  0.10671131135E+04  0.00000000000E+00 0. -1.
        -11    1    3    3    0    0  0.95741379146E+02  0.19656433724E+03 -0.39178700458E+03  0.44866580805E+03  0.00000000000E+00 0.  1.
         22    1    1    2    0    0 -0.45963770168E+03 -0.63293957048E+03 -0.11516430620E+04  0.13921785298E+04  0.00000000000E+00 0. -1.
<mgrwt>
<rscale>  0 0.15715925E+04</rscale>
<asrwt>0</asrwt>
<pdfrwt beam="1">  1        3 0.35481772E-01 0.15715925E+04</pdfrwt>
<pdfrwt beam="2">  1       -3 0.41189628E+00 0.15715925E+04</pdfrwt>
<totfact> 0.18169938E-01</totfact>
</mgrwt>
</event>
<event>
 6    1  0.1603085E-006  0.2509827E+04  0.7818608E-02  0.8399493E-01
          1   -1    0    0  501    0  0.00000000000E+00  0.00000000000E+00  0.28889108574E+04  0.28889108574E+04  0.00000000000E+00 0. -1.
         -1   -1    0    0    0  501 -0.00000000000E+00 -0.00000000000E+00 -0.54512177453E+03  0.54512177453E+03  0.00000000000E+00 0.  1.
         23    2    1    2    0    0  0.43559765533E+03 -0.11673477886E+04  0.98325316194E+03  0.15891737839E+04  0.78995937699E+02 0.  0.
         11    1    3    3    0    0  0.30022053807E+03 -0.89763802386E+03  0.73384568145E+03  0.11976710222E+04  0.00000000000E+00 0.  1.
        -11    1    3    3    0    0  0.13537711726E+03 -0.26970976474E+03  0.24940748049E+03  0.39150276168E+03  0.00000000000E+00 0. -1.
         22    1    1    2    0    0 -0.43559765533E+03  0.11673477886E+04  0.13605359209E+04  0.18448588480E+04  0.00000000000E+00 0. -1.
<mgrwt>
<rscale>  0 0.25098273E+04</rscale>
<asrwt>0</asrwt>
<pdfrwt beam="1">  1        1 0.44444782E+00 0.25098273E+04</pdfrwt>
<pdfrwt beam="2">  1       -1 0.83864890E-01 0.25098273E+04</pdfrwt>
<totfact> 0.90024202E-01</totfact>
</mgrwt>
</event>
<event>
 6    1  0.1603085E-006  0.1108010E+04  0.7818608E-02  0.9197420E-01
          3   -1    0    0  501    0  0.00000000000E+00  0.00000000000E+00  0.73694708961E+03  0.73694708961E+03  0.00000000000E+00 0. -1.
         -3   -1    0    0    0  501 -0.00000000000E+00 -0.00000000000E+00 -0.41647694232E+03  0.41647694232E+03  0.00000000000E+00 0.  1.
         23    2    1    2    0    0 -0.13714985244E+03 -0.48584597164E+03  0.38947979019E+03  0.64389609256E+03  0.89728929911E+02 0.  0.
         11    1    3    3    0    0 -0.24765929520E+02 -0.22607260554E+03  0.20385188794E+03  0.30541409014E+03  0.00000000000E+00 0. -1.
        -11    1    3    3    0    0 -0.11238392292E+03 -0.25977336610E+03  0.18562790224E+03  0.33848200241E+03  0.00000000000E+00 0.  1.
         22    1    1    2    0    0  0.13714985244E+03  0.48584597164E+03 -0.69009642899E+02  0.50952793937E+03  0.00000000000E+00 0.  1.
<mgrwt>
<rscale>  0 0.11080099E+04</rscale>
<asrwt>0</asrwt>
<pdfrwt beam="1">  1        3 0.11337648E+00 0.11080099E+04</pdfrwt>
<pdfrwt beam="2">  1       -3 0.64073376E-01 0.11080099E+04</pdfrwt>
<totfact> 0.39910007E+00</totfact>
</mgrwt>
</event>
<event>
 6    1  0.1603085E-006  0.3207204E+04  0.7818608E-02  0.8186917E-01
          2   -1    0    0  501    0  0.00000000000E+00  0.00000000000E+00  0.22747429593E+04  0.22747429593E+04  0.00000000000E+00 0. -1.
         -2   -1    0    0    0  501 -0.00000000000E+00 -0.00000000000E+00 -0.11304749901E+04  0.11304749901E+04  0.00000000000E+00 0.  1.
         23    2    1    2    0    0  0.14655314659E+04 -0.63876422243E+03  0.46222851031E+03  0.16671212797E+04  0.99176388646E+02 0.  0.
         13    1    3    3    0    0  0.11448713046E+04 -0.52183697151E+03  0.32695395345E+03  0.12999780831E+04  0.00000000000E+00 0.  1.
        -13    1    3    3    0    0  0.32066016132E+03 -0.11692725093E+03  0.13527455686E+03  0.36714319659E+03  0.00000000000E+00 0. -1.
         22    1    1    2    0    0 -0.14655314659E+04  0.63876422243E+03  0.68203945892E+03  0.17380966696E+04  0.00000000000E+00 0. -1.
<mgrwt>
<rscale>  0 0.32072044E+04</rscale>
<asrwt>0</asrwt>
<pdfrwt beam="1">  1        2 0.34996045E+00 0.32072044E+04</pdfrwt>
<pdfrwt beam="2">  1       -2 0.17391923E+00 0.32072044E+04</pdfrwt>
<totfact> 0.78842507E-01</totfact>
</mgrwt>
</event>
<event>
 6    1  0.1603085E-006  0.4155369E+04  0.7818608E-02  0.7973917E-01
         -1   -1    0    0    0  501 -0.00000000000E+00  0.00000000000E+00  0.14698874341E+04  0.14698874341E+04  0.00000000000E+00 0.  1.
          1   -1    0    0  501    0  0.00000000000E+00 -0.00000000000E+00 -0.29368045651E+04  0.29368045651E+04  0.00000000000E+00 0. -1.
         23    2    1    2    0    0 -0.15277670430E+03  0.19767643733E+04 -0.13889466881E+04  0.24225000984E+04  0.91628135139E+02 0.  0.
         11    1    3    3    0    0 -0.85755003687E+02  0.15843469394E+04 -0.11133974271E+04  0.19383402632E+04  0.00000000000E+00 0.  1.
        -11    1    3    3    0    0 -0.67021700609E+02  0.39241743391E+03 -0.27554926096E+03  0.48415983518E+03  0.00000000000E+00 0. -1.
         22    1    1    2    0    0  0.15277670430E+03 -0.19767643733E+04 -0.77970442919E+02  0.19841919008E+04  0.00000000000E+00 0.  1.
<mgrwt>
<rscale>  0 0.41553686E+04</rscale>
<asrwt>0</asrwt>
<pdfrwt beam="1">  1        1 0.45181608E+00 0.41553686E+04</pdfrwt>
<pdfrwt beam="2">  1       -1 0.22613653E+00 0.41553686E+04</pdfrwt>
<totfact> 0.51405673E-02</totfact>
</mgrwt>
</event>
<event>
 6    1  0.1603085E-006  0.1288592E+04  0.7818608E-02  0.9038661E-01
          1   -1    0    0  501    0  0.00000000000E+00  0.00000000000E+00  0.10642731910E+04  0.10642731910E+04  0.00000000000E+00 0. -1.
         -1   -1    0    0    0  501 -0.00000000000E+00 -0.00000000000E+00 -0.39004754777E+03  0.39004754777E+03  0.00000000000E+00 0.  1.
         23    2    1    2    0    0  0.10919332521E+01 -0.46119417256E+03 -0.16390138466E+03  0.49768174103E+03  0.90123217568E+02 0.  0.
         13    1    3    3    0    0 -0.39993112122E+02 -0.25968691840E+03 -0.72044141582E+02  0.27244651391E+03  0.00000000000E+00 0. -1.
        -13    1    3    3    0    0  0.41085045374E+02 -0.20150725416E+03 -0.91857243077E+02  0.22523522713E+03  0.00000000000E+00 0.  1.
         22    1    1    2    0    0 -0.10919332521E+01  0.46119417256E+03  0.83812702793E+03  0.95663899778E+03  0.00000000000E+00 0. -1.
<mgrwt>
<rscale>  0 0.12885917E+04</rscale>
<asrwt>0</asrwt>
<pdfrwt beam="1">  1        1 0.16373434E+00 0.12885917E+04</pdfrwt>
<pdfrwt beam="2">  1       -1 0.60007315E-01 0.12885917E+04</pdfrwt>
<totfact> 0.37368021E+01</totfact>
</mgrwt>
</event>
<event>
 6    1  0.1603085E-006  0.3476268E+04  0.7818608E-02  0.8119437E-01
         -1   -1    0    0    0  501 -0.00000000000E+00  0.00000000000E+00  0.18962347151E+04  0.18962347151E+04  0.00000000000E+00 0.  1.
          1   -1    0    0  501    0  0.00000000000E+00 -0.00000000000E+00 -0.15932153309E+04  0.15932153309E+04  0.00000000000E+00 0. -1.
         23    2    1    2    0    0 -0.16385785856E+04 -0.78417973841E+02  0.72460775095E+03  0.17956891683E+04  0.91400419977E+02 0.  0.
         13    1    3    3    0    0 -0.13910839336E+04 -0.76660211305E+02  0.58053160637E+03  0.15093072067E+04  0.00000000000E+00 0.  1.
        -13    1    3    3    0    0 -0.24749465200E+03 -0.17577625354E+01  0.14407614458E+03  0.28638196161E+03  0.00000000000E+00 0. -1.
         22    1    1    2    0    0  0.16385785856E+04  0.78417973841E+02 -0.42158836671E+03  0.16937608776E+04  0.00000000000E+00 0. -1.
<mgrwt>
<rscale>  0 0.34762682E+04</rscale>
<asrwt>0</asrwt>
<pdfrwt beam="1">  1        1 0.24511005E+00 0.34762682E+04</pdfrwt>
<pdfrwt beam="2">  1       -1 0.29172842E+00 0.34762682E+04</pdfrwt>
<totfact> 0.17226333E-01</totfact>
</mgrwt>
</event>
<event>
 6    1  0.1603085E-006  0.1755071E+04  0.7818608E-02  0.8730564E-01
          2   -1    0    0  501    0  0.00000000000E+00  0.00000000000E+00  0.64360400714E+03  0.64360400714E+03  0.00000000000E+00 0. -1.
         -2   -1    0    0    0  501 -0.00000000000E+00 -0.00000000000E+00 -0.11964942527E+04  0.11964942527E+04  0.00000000000E+00 0.  1.
         23    2    1    2    0    0  0.53874751032E+03 -0.48127499064E+03  0.24068118518E+03  0.76695795578E+03  0.91774596383E+02 0.  0.
         13    1    3    3    0    0  0.20359558076E+03 -0.24137897506E+03  0.93936674665E+02  0.32945268090E+03  0.00000000000E+00 0.  1.
        -13    1    3    3    0    0  0.33515192956E+03 -0.23989601558E+03  0.14674451052E+03  0.43750527488E+03  0.00000000000E+00 0. -1.
         22    1    1    2    0    0 -0.53874751032E+03  0.48127499064E+03 -0.79357143074E+03  0.10731403040E+04  0.00000000000E+00 0.  1.
<mgrwt>
<rscale>  0 0.17550709E+04</rscale>
<asrwt>0</asrwt>
<pdfrwt beam="1">  1        2 0.99016000E-01 0.17550709E+04</pdfrwt>
<pdfrwt beam="2">  1       -2 0.18407604E+00 0.17550709E+04</pdfrwt>
<totfact> 0.73250032E+00</totfact>
</mgrwt>
</event>
<event>
 6    1  0.1603085E-006  0.6606217E+04  0.7818608E-02  0.7619468E-01
         -1   -1    0    0    0  501 -0.00000000000E+00  0.00000000000E+00  0.37943545387E+04  0.37943545387E+04  0.00000000000E+00 0.  1.
          1   -1    0    0  501    0  0.00000000000E+00 -0.00000000000E+00 -0.28754626928E+04  0.28754626928E+04  0.00000000000E+00 0. -1.
         23    2    1    2    0    0  0.37135006377E+02 -0.22946253625E+04 -0.19381183580E+04  0.30052310519E+04  0.91795113065E+02 0.  0.
         11    1    3    3    0    0 -0.13563235946E+02 -0.14902144133E+04 -0.12869660087E+04  0.19690618240E+04  0.00000000000E+00 0.  1.
        -11    1    3    3    0    0  0.50698242323E+02 -0.80441094913E+03 -0.65115234929E+03  0.10361692279E+04  0.00000000000E+00 0. -1.
         22    1    1    2    0    0 -0.37135006377E+02  0.22946253625E+04  0.28570102039E+04  0.36645861796E+04  0.00000000000E+00 0.  1.
<mgrwt>
<rscale>  0 0.66062167E+04</rscale>
<asrwt>0</asrwt>
<pdfrwt beam="1">  1        1 0.44237888E+00 0.66062167E+04</pdfrwt>
<pdfrwt beam="2">  1       -1 0.58374685E+00 0.66062167E+04</pdfrwt>
<totfact> 0.24811014E-04</totfact>
</mgrwt>
</event>
<event>
 6    1  0.1603085E-006  0.1472348E+04  0.7818608E-02  0.8903052E-01
          1   -1    0    0  501    0  0.00000000000E+00  0.00000000000E+00  0.70129673416E+03  0.70129673416E+03  0.00000000000E+00 0. -1.
         -1   -1    0    0    0  501 -0.00000000000E+00 -0.00000000000E+00 -0.77278572594E+03  0.77278572594E+03  0.00000000000E+00 0.  1.
         23    2    1    2    0    0 -0.29254915022E+02 -0.72371012182E+03 -0.15172736453E+03  0.74535041954E+03  0.88959902668E+02 0.  0.
         11    1    3    3    0    0 -0.20101070787E+02 -0.20642636683E+03 -0.45257731787E+01  0.20745211638E+03  0.00000000000E+00 0.  1.
        -11    1    3    3    0    0 -0.91538442352E+01 -0.51728375499E+03 -0.14720159135E+03  0.53789830316E+03  0.00000000000E+00 0. -1.
         22    1    1    2    0    0  0.29254915022E+02  0.72371012182E+03  0.80238372752E+02  0.72873204056E+03  0.00000000000E+00 0. -1.
<mgrwt>
<rscale>  0 0.14723479E+04</rscale>
<asrwt>0</asrwt>
<pdfrwt beam="1">  1        1 0.10789180E+00 0.14723479E+04</pdfrwt>
<pdfrwt beam="2">  1       -1 0.11889011E+00 0.14723479E+04</pdfrwt>
<totfact> 0.16686901E+01</totfact>
</mgrwt>
</event>
<event>
 6    1  0.1603085E-006  0.1923869E+04  0.7818608E-02  0.8643066E-01
          2   -1    0    0  501    0  0.00000000000E+00  0.00000000000E+00  0.24407868979E+04  0.24407868979E+04  0.00000000000E+00 0. -1.
         -2   -1    0    0    0  501 -0.00000000000E+00 -0.00000000000E+00 -0.37910632478E+03  0.37910632478E+03  0.00000000000E+00 0.  1.
         23    2    1    2    0    0 -0.47681067002E+03  0.79848006810E+03  0.13807513127E+04  0.16672512610E+04  0.91289350459E+02 0.  0.
         13    1    3    3    0    0 -0.49203338746E+02  0.14612697633E+03  0.24341735436E+03  0.28814244768E+03  0.00000000000E+00 0. -1.
        -13    1    3    3    0    0 -0.42760733128E+03  0.65235309178E+03  0.11373339583E+04  0.13791088133E+04  0.00000000000E+00 0.  1.
         22    1    1    2    0    0  0.47681067002E+03 -0.79848006810E+03  0.68092926047E+03  0.11526419617E+04  0.00000000000E+00 0. -1.
<mgrwt>
<rscale>  0 0.19238688E+04</rscale>
<asrwt>0</asrwt>
<pdfrwt beam="1">  1        2 0.37550567E+00 0.19238688E+04</pdfrwt>
<pdfrwt beam="2">  1       -2 0.58324052E-01 0.19238688E+04</pdfrwt>
<totfact> 0.96867335E+00</totfact>
</mgrwt>
</event>
<event>
 6    1  0.1603085E-006  0.3394422E+04  0.7818608E-02  0.8139277E-01
         -2   -1    0    0    0  501 -0.00000000000E+00  0.00000000000E+00  0.75497685667E+03  0.75497685667E+03  0.00000000000E+00 0.  1.
          2   -1    0    0  501    0  0.00000000000E+00 -0.00000000000E+00 -0.38153823368E+04  0.38153823368E+04  0.00000000000E+00 0. -1.
         23    2    1    2    0    0 -0.36124958148E+03 -0.16470185450E+04 -0.12861484161E+04  0.21226746801E+04  0.91644430795E+02 0.  0.
         11    1    3    3    0    0 -0.29458743247E+03 -0.11705643116E+04 -0.89612508816E+03  0.15033438518E+04  0.00000000000E+00 0. -1.
        -11    1    3    3    0    0 -0.66662149005E+02 -0.47645423338E+03 -0.39002332789E+03  0.61933082832E+03  0.00000000000E+00 0.  1.
         22    1    1    2    0    0  0.36124958148E+03  0.16470185450E+04 -0.17742570641E+04  0.24476845134E+04  0.00000000000E+00 0. -1.
<mgrwt>
<rscale>  0 0.33944221E+04</rscale>
<asrwt>0</asrwt>
<pdfrwt beam="1">  1        2 0.58698190E+00 0.33944221E+04</pdfrwt>
<pdfrwt beam="2">  1       -2 0.11615028E+00 0.33944221E+04</pdfrwt>
<totfact> 0.22753258E-01</totfact>
</mgrwt>
</event>
<event>
 6    1  0.2209453E-006  0.3562651E+04  0.7818608E-02  0.8099101E-01
         -2   -1    0    0    0  501 -0.00000000000E+00  0.00000000000E+00  0.10606257842E+04  0.10606257842E+04  0.00000000000E+00 0.  1.
          2   -1    0    0  501    0  0.00000000000E+00 -0.00000000000E+00 -0.29917443439E+04  0.29917443439E+04  0.00000000000E+00 0. -1.
         23    2    1    2    0    0 -0.29339969540E+02  0.14987697952E+04 -0.20582691700E+04  0.25479303619E+04  0.91134078418E+02 0.  0.
         13    1    3    3    0    0  0.15822491777E+02  0.82486909795E+03 -0.10770051760E+04  0.13566869680E+04  0.00000000000E+00 0.  1.
        -13    1    3    3    0    0 -0.45162461317E+02  0.67390069720E+03 -0.98126399397E+03  0.11912433939E+04  0.00000000000E+00 0. -1.
         22    1    1    2    0    0  0.29339969540E+02 -0.14987697952E+04  0.12715061021E+03  0.15044397663E+04  0.00000000000E+00 0.  1.
<mgrwt>
<rscale>  0 0.35626514E+04</rscale>
<asrwt>0</asrwt>
<pdfrwt beam="1">  1        2 0.46026836E+00 0.35626514E+04</pdfrwt>
<pdfrwt beam="2">  1       -2 0.16317320E+00 0.35626514E+04</pdfrwt>
<totfact> 0.34363417E-01</totfact>
</mgrwt>
</event>
<event>
 6    1  0.1603085E-006  0.2419636E+03  0.7818608E-02  0.1118492E+00
         -1   -1    0    0    0  501 -0.00000000000E+00  0.00000000000E+00  0.68794084869E+02  0.68794084869E+02  0.00000000000E+00 0.  1.
          1   -1    0    0  501    0  0.00000000000E+00 -0.00000000000E+00 -0.21275955133E+03  0.21275955133E+03  0.00000000000E+00 0. -1.
         23    2    1    2    0    0 -0.19226278822E+02 -0.54784629989E+02 -0.18389205135E+03  0.21108990325E+03  0.85858343948E+02 0.  0.
         13    1    3    3    0    0 -0.23739944694E+02 -0.10401779111E+01 -0.13871330718E+03  0.14073396368E+03  0.00000000000E+00 0.  1.
        -13    1    3    3    0    0  0.45136658716E+01 -0.53744452077E+02 -0.45178744173E+02  0.70355939577E+02  0.00000000000E+00 0. -1.
         22    1    1    2    0    0  0.19226278822E+02  0.54784629989E+02  0.39926584886E+02  0.70463732948E+02  0.00000000000E+00 0.  1.
<mgrwt>
<rscale>  0 0.24196362E+03</rscale>
<asrwt>0</asrwt>
<pdfrwt beam="1">  1        1 0.32732238E-01 0.24196362E+03</pdfrwt>
<pdfrwt beam="2">  1       -1 0.10583706E-01 0.24196362E+03</pdfrwt>
<totfact> 0.74451545E+03</totfact>
</mgrwt>
</event>
<event>
 6    1  0.1603085E-006  0.1357557E+04  0.7818608E-02  0.8985128E-01
          1   -1    0    0  501    0  0.00000000000E+00  0.00000000000E+00  0.44114651397E+03  0.44114651397E+03  0.00000000000E+00 0. -1.
         -1   -1    0    0    0  501 -0.00000000000E+00 -0.00000000000E+00 -0.10444148554E+04  0.10444148554E+04  0.00000000000E+00 0.  1.
         23    2    1    2    0    0 -0.32507471254E+03  0.31221055066E+03 -0.85397349430E+03  0.96980748395E+03  0.90037938024E+02 0.  0.
         11    1    3    3    0    0 -0.22879616535E+03  0.22459784169E+03 -0.68663159379E+03  0.75779602886E+03  0.00000000000E+00 0. -1.
        -11    1    3    3    0    0 -0.96278547188E+02  0.87612708975E+02 -0.16734190051E+03  0.21201145509E+03  0.00000000000E+00 0.  1.
         22    1    1    2    0    0  0.32507471254E+03 -0.31221055066E+03  0.25070515285E+03  0.51575388544E+03  0.00000000000E+00 0.  1.
<mgrwt>
<rscale>  0 0.13575566E+04</rscale>
<asrwt>0</asrwt>
<pdfrwt beam="1">  1        1 0.67868695E-01 0.13575566E+04</pdfrwt>
<pdfrwt beam="2">  1       -1 0.16067921E+00 0.13575566E+04</pdfrwt>
<totfact> 0.14860632E+01</totfact>
</mgrwt>
</event>
<event>
 6    1  0.1603085E-006  0.2032588E+04  0.7818608E-02  0.8591534E-01
         -2   -1    0    0    0  501 -0.00000000000E+00  0.00000000000E+00  0.31781910693E+03  0.31781910693E+03  0.00000000000E+00 0. -1.
          2   -1    0    0  501    0  0.00000000000E+00 -0.00000000000E+00 -0.32498168874E+04  0.32498168874E+04  0.00000000000E+00 0.  1.
         23    2    1    2    0    0  0.63037902502E+03  0.79346032669E+03 -0.15484121021E+04  0.18526239435E+04  0.87626667011E+02 0.  0.
         13    1    3    3    0    0  0.57822111154E+02  0.39203144997E+02 -0.94447800963E+02  0.11747625387E+03  0.00000000000E+00 0.  1.
        -13    1    3    3    0    0  0.57255691386E+03  0.75425718169E+03 -0.14539643012E+04  0.17351476896E+04  0.00000000000E+00 0. -1.
         22    1    1    2    0    0 -0.63037902502E+03 -0.79346032669E+03 -0.13835856783E+04  0.17150120508E+04  0.00000000000E+00 0. -1.
<mgrwt>
<rscale>  0 0.20325884E+04</rscale>
<asrwt>0</asrwt>
<pdfrwt beam="1">  1        2 0.49997182E+00 0.20325884E+04</pdfrwt>
<pdfrwt beam="2">  1       -2 0.48895248E-01 0.20325884E+04</pdfrwt>
<totfact> 0.44294563E+00</totfact>
</mgrwt>
</event>
<event>
 6    1  0.1603085E-006  0.3066588E+04  0.7818608E-02  0.8224968E-01
         -2   -1    0    0    0  501 -0.00000000000E+00  0.00000000000E+00  0.86518974827E+03  0.86518974827E+03  0.00000000000E+00 0.  1.
          2   -1    0    0  501    0  0.00000000000E+00 -0.00000000000E+00 -0.27173117080E+04  0.27173117080E+04  0.00000000000E+00 0. -1.
         23    2    1    2    0    0  0.10759888322E+04 -0.99575886824E+03 -0.40759850148E+03  0.15243625610E+04  0.90867972431E+02 0.  0.
         13    1    3    3    0    0  0.40447636643E+03 -0.43193928207E+03 -0.14966319273E+03  0.61038655429E+03  0.00000000000E+00 0.  1.
        -13    1    3    3    0    0  0.67151246576E+03 -0.56381958617E+03 -0.25793530875E+03  0.91397600675E+03  0.00000000000E+00 0. -1.
         22    1    1    2    0    0 -0.10759888322E+04  0.99575886824E+03 -0.14445234583E+04  0.20581388953E+04  0.00000000000E+00 0. -1.
<mgrwt>
<rscale>  0 0.30665878E+04</rscale>
<asrwt>0</asrwt>
<pdfrwt beam="1">  1        2 0.41804795E+00 0.30665878E+04</pdfrwt>
<pdfrwt beam="2">  1       -2 0.13310612E+00 0.30665878E+04</pdfrwt>
<totfact> 0.90256976E-01</totfact>
</mgrwt>
</event>
<event>
 6    1  0.1657099E-006  0.2222391E+04  0.7818608E-02  0.8509166E-01
          2   -1    0    0  501    0  0.00000000000E+00  0.00000000000E+00  0.15908607794E+04  0.15908607794E+04  0.00000000000E+00 0. -1.
         -2   -1    0    0    0  501 -0.00000000000E+00 -0.00000000000E+00 -0.77615540749E+03  0.77615540749E+03  0.00000000000E+00 0.  1.
         23    2    1    2    0    0 -0.73547080961E+03  0.95188787991E+02 -0.47057940018E+03  0.88312428971E+03  0.92115807868E+02 0.  0.
         11    1    3    3    0    0 -0.42276869840E+03  0.93532733094E+01 -0.27547222048E+03  0.50468386176E+03  0.00000000000E+00 0. -1.
        -11    1    3    3    0    0 -0.31270211121E+03  0.85835514681E+02 -0.19510717970E+03  0.37844042795E+03  0.00000000000E+00 0.  1.
         22    1    1    2    0    0  0.73547080961E+03 -0.95188787991E+02  0.12852847721E+04  0.14838918972E+04  0.00000000000E+00 0. -1.
<mgrwt>
<rscale>  0 0.22223908E+04</rscale>
<asrwt>0</asrwt>
<pdfrwt beam="1">  1        2 0.24474781E+00 0.22223908E+04</pdfrwt>
<pdfrwt beam="2">  1       -2 0.11940852E+00 0.22223908E+04</pdfrwt>
<totfact> 0.55351654E+00</totfact>
</mgrwt>
</event>
<event>
 6    1  0.1603085E-006  0.2845043E+04  0.7818608E-02  0.8289419E-01
          2   -1    0    0  501    0  0.00000000000E+00  0.00000000000E+00  0.27007539547E+04  0.27007539547E+04  0.00000000000E+00 0. -1.
         -2   -1    0    0    0  501 -0.00000000000E+00 -0.00000000000E+00 -0.74926008208E+03  0.74926008208E+03  0.00000000000E+00 0.  1.
         23    2    1    2    0    0 -0.74405790484E+03  0.80182819993E+03 -0.12333989153E+03  0.11044894096E+04  0.90185914093E+02 0.  0.
         13    1    3    3    0    0 -0.47909367848E+03  0.46082037025E+03 -0.97639546740E+02  0.67187770277E+03  0.00000000000E+00 0.  1.
        -13    1    3    3    0    0 -0.26496422636E+03  0.34100782969E+03 -0.25700344786E+02  0.43261170682E+03  0.00000000000E+00 0. -1.
         22    1    1    2    0    0  0.74405790484E+03 -0.80182819993E+03  0.20748337642E+04  0.23455246272E+04  0.00000000000E+00 0.  1.
<mgrwt>
<rscale>  0 0.28450428E+04</rscale>
<asrwt>0</asrwt>
<pdfrwt beam="1">  1        2 0.41550060E+00 0.28450428E+04</pdfrwt>
<pdfrwt beam="2">  1       -2 0.11527078E+00 0.28450428E+04</pdfrwt>
<totfact> 0.13478504E+00</totfact>
</mgrwt>
</event>
<event>
 6    1  0.1603085E-006  0.2642768E+04  0.7818608E-02  0.8353817E-01
         -1   -1    0    0    0  501 -0.00000000000E+00  0.00000000000E+00  0.65649478610E+03  0.65649478610E+03  0.00000000000E+00 0.  1.
          1   -1    0    0  501    0  0.00000000000E+00 -0.00000000000E+00 -0.26596638504E+04  0.26596638504E+04  0.00000000000E+00 0. -1.
         23    2    1    2    0    0  0.33479554118E+03 -0.31735816928E+03 -0.25543473143E+04  0.25974085233E+04  0.95060887847E+02 0.  0.
         13    1    3    3    0    0  0.18063967132E+03 -0.14688059045E+03 -0.15284237941E+04  0.15460542982E+04  0.00000000000E+00 0.  1.
        -13    1    3    3    0    0  0.15415586986E+03 -0.17047757883E+03 -0.10259235203E+04  0.10513542250E+04  0.00000000000E+00 0. -1.
         22    1    1    2    0    0 -0.33479554118E+03  0.31735816928E+03  0.55117825003E+03  0.71875011326E+03  0.00000000000E+00 0.  1.
<mgrwt>
<rscale>  0 0.26427678E+04</rscale>
<asrwt>0</asrwt>
<pdfrwt beam="1">  1        1 0.40917905E+00 0.26427678E+04</pdfrwt>
<pdfrwt beam="2">  1       -1 0.10099920E+00 0.26427678E+04</pdfrwt>
<totfact> 0.85614065E-01</totfact>
</mgrwt>
</event>
<event>
 6    1  0.1603085E-006  0.7129552E+03  0.7818608E-02  0.9695330E-01
         -2   -1    0    0    0  501 -0.00000000000E+00  0.00000000000E+00  0.14347716791E+03  0.14347716791E+03  0.00000000000E+00 0.  1.
          2   -1    0    0  501    0  0.00000000000E+00 -0.00000000000E+00 -0.88568983968E+03  0.88568983968E+03  0.00000000000E+00 0. -1.
         23    2    1    2    0    0 -0.22074147673E+03 -0.20349301585E+03 -0.63885266400E+03  0.71164614488E+03  0.90395255310E+02 0.  0.
         11    1    3    3    0    0 -0.15466468991E+03 -0.90672075813E+02 -0.31586775511E+03  0.36320108805E+03  0.00000000000E+00 0. -1.
        -11    1    3    3    0    0 -0.66076786815E+02 -0.11282094004E+03 -0.32298490889E+03  0.34844505684E+03  0.00000000000E+00 0.  1.
         22    1    1    2    0    0  0.22074147673E+03  0.20349301585E+03 -0.10336000778E+03  0.31752086271E+03  0.00000000000E+00 0.  1.
<mgrwt>
<rscale>  0 0.71295517E+03</rscale>
<asrwt>0</asrwt>
<pdfrwt beam="1">  1        2 0.13625998E+00 0.71295517E+03</pdfrwt>
<pdfrwt beam="2">  1       -2 0.22073410E-01 0.71295517E+03</pdfrwt>
<totfact> 0.54076241E+02</totfact>
</mgrwt>
</event>
<event>
 6    1  0.1603085E-006  0.1058766E+04  0.7818608E-02  0.9246340E-01
          2   -1    0    0  501    0  0.00000000000E+00  0.00000000000E+00  0.67918046289E+03  0.67918046289E+03  0.00000000000E+00 0. -1.
         -2   -1    0    0    0  501 -0.00000000000E+00 -0.00000000000E+00 -0.41262436294E+03  0.41262436294E+03  0.00000000000E+00 0.  1.
         23    2    1    2    0    0 -0.36028267384E+02 -0.52127985898E+03  0.19137051975E+03  0.56389991119E+03  0.91267226231E+02 0.  0.
         13    1    3    3    0    0 -0.15456799147E+02 -0.39230595718E+03  0.18261538349E+03  0.43300260388E+03  0.00000000000E+00 0.  1.
        -13    1    3    3    0    0 -0.20571468237E+02 -0.12897390180E+03  0.87551362608E+01  0.13089730731E+03  0.00000000000E+00 0. -1.
         22    1    1    2    0    0  0.36028267384E+02  0.52127985898E+03  0.75185580205E+02  0.52790491464E+03  0.00000000000E+00 0. -1.
<mgrwt>
<rscale>  0 0.10587661E+04</rscale>
<asrwt>0</asrwt>
<pdfrwt beam="1">  1        2 0.10448930E+00 0.10587661E+04</pdfrwt>
<pdfrwt beam="2">  1       -2 0.63480671E-01 0.10587661E+04</pdfrwt>
<totfact> 0.97355436E+01</totfact>
</mgrwt>
</event>
<event>
 6    1  0.1603085E-006  0.3077512E+04  0.7818608E-02  0.8221937E-01
         -2   -1    0    0    0  501 -0.00000000000E+00  0.00000000000E+00  0.13375411041E+04  0.13375411041E+04  0.00000000000E+00 0.  1.
          2   -1    0    0  501    0  0.00000000000E+00 -0.00000000000E+00 -0.17702414610E+04  0.17702414610E+04  0.00000000000E+00 0. -1.
         23    2    1    2    0    0  0.14304218672E+04 -0.54916406006E+03 -0.88421503028E+02  0.15373635725E+04  0.89333693254E+02 0.  0.
         13    1    3    3    0    0  0.56590352591E+03 -0.17074065132E+03 -0.35895372615E+02  0.59218886213E+03  0.00000000000E+00 0.  1.
        -13    1    3    3    0    0  0.86451834130E+03 -0.37842340873E+03 -0.52526130413E+02  0.94517471035E+03  0.00000000000E+00 0. -1.
         22    1    1    2    0    0 -0.14304218672E+04  0.54916406006E+03 -0.34427885395E+03  0.15704189926E+04  0.00000000000E+00 0. -1.
<mgrwt>
<rscale>  0 0.30775124E+04</rscale>
<asrwt>0</asrwt>
<pdfrwt beam="1">  1        2 0.27234484E+00 0.30775124E+04</pdfrwt>
<pdfrwt beam="2">  1       -2 0.20577556E+00 0.30775124E+04</pdfrwt>
<totfact> 0.92977415E-01</totfact>
</mgrwt>
</event>
<event>
 6    1  0.2258362E-006  0.2477593E+04  0.7818608E-02  0.8411012E-01
          2   -1    0    0  501    0  0.00000000000E+00  0.00000000000E+00  0.18813708246E+04  0.18813708246E+04  0.00000000000E+00 0. -1.
         -2   -1    0    0    0  501 -0.00000000000E+00 -0.00000000000E+00 -0.81569092453E+03  0.81569092453E+03  0.00000000000E+00 0.  1.
         23    2    1    2    0    0  0.61220198086E+03 -0.29971133372E+03  0.16573848128E+04  0.17944362162E+04  0.91971557269E+02 0.  0.
         11    1    3    3    0    0  0.29807669565E+03 -0.16930311424E+03  0.72516291405E+03  0.80210629775E+03  0.00000000000E+00 0. -1.
        -11    1    3    3    0    0  0.31412528521E+03 -0.13040821948E+03  0.93222189879E+03  0.99232991848E+03  0.00000000000E+00 0.  1.
         22    1    1    2    0    0 -0.61220198086E+03  0.29971133372E+03 -0.59170491274E+03  0.90262553293E+03  0.00000000000E+00 0.  1.
<mgrwt>
<rscale>  0 0.24775933E+04</rscale>
<asrwt>0</asrwt>
<pdfrwt beam="1">  1        2 0.28944166E+00 0.24775933E+04</pdfrwt>
<pdfrwt beam="2">  1       -2 0.12549091E+00 0.24775933E+04</pdfrwt>
<totfact> 0.32992087E+00</totfact>
</mgrwt>
</event>
<event>
 6    1  0.1603085E-006  0.2093639E+04  0.7818608E-02  0.8564051E-01
         -2   -1    0    0    0  501 -0.00000000000E+00  0.00000000000E+00  0.58199454852E+03  0.58199454852E+03  0.00000000000E+00 0. -1.
          2   -1    0    0  501    0  0.00000000000E+00 -0.00000000000E+00 -0.18828882272E+04  0.18828882272E+04  0.00000000000E+00 0.  1.
         23    2    1    2    0    0  0.64730952705E+03  0.60171228615E+03 -0.13082445082E+04  0.15810720868E+04  0.84958526725E+02 0.  0.
         11    1    3    3    0    0  0.13154281257E+03  0.16148421041E+03 -0.34723381399E+03  0.40490984593E+03  0.00000000000E+00 0.  1.
        -11    1    3    3    0    0  0.51576671448E+03  0.44022807573E+03 -0.96101069425E+03  0.11761622409E+04  0.00000000000E+00 0. -1.
         22    1    1    2    0    0 -0.64730952705E+03 -0.60171228615E+03  0.73508295787E+01  0.88381068889E+03  0.00000000000E+00 0. -1.
<mgrwt>
<rscale>  0 0.20936386E+04</rscale>
<asrwt>0</asrwt>
<pdfrwt beam="1">  1        2 0.28967511E+00 0.20936386E+04</pdfrwt>
<pdfrwt beam="2">  1       -2 0.89537623E-01 0.20936386E+04</pdfrwt>
<totfact> 0.76527538E+00</totfact>
</mgrwt>
</event>
<event>
 6    1  0.1603085E-006  0.3071973E+04  0.7818608E-02  0.8223472E-01
         -2   -1    0    0    0  501 -0.00000000000E+00  0.00000000000E+00  0.13203191376E+04  0.13203191376E+04  0.00000000000E+00 0.  1.
          2   -1    0    0  501    0  0.00000000000E+00 -0.00000000000E+00 -0.17868824713E+04  0.17868824713E+04  0.00000000000E+00 0. -1.
         23    2    1    2    0    0  0.38494394593E+03  0.14257853318E+04 -0.65533909801E+03  0.16183490496E+04  0.92404865581E+02 0.  0.
         13    1    3    3    0    0  0.25729116432E+03  0.97682807107E+03 -0.49427364342E+03  0.11245880394E+04  0.00000000000E+00 0. -1.
        -13    1    3    3    0    0  0.12765278161E+03  0.44895726072E+03 -0.16106545460E+03  0.49376101028E+03  0.00000000000E+00 0.  1.
         22    1    1    2    0    0 -0.38494394593E+03 -0.14257853318E+04  0.18877576433E+03  0.14888525592E+04  0.00000000000E+00 0.  1.
<mgrwt>
<rscale>  0 0.30719734E+04</rscale>
<asrwt>0</asrwt>
<pdfrwt beam="1">  1        2 0.27490499E+00 0.30719734E+04</pdfrwt>
<pdfrwt beam="2">  1       -2 0.20312602E+00 0.30719734E+04</pdfrwt>
<totfact> 0.94749142E-01</totfact>
</mgrwt>
</event>
<event>
 6    1  0.1603085E-006  0.1207124E+04  0.7818608E-02  0.9106643E-01
         -2   -1    0    0    0  501 -0.00000000000E+00  0.00000000000E+00  0.18656146641E+03  0.18656146641E+03  0.00000000000E+00 0.  1.
          2   -1    0    0  501    0  0.00000000000E+00 -0.00000000000E+00 -0.19526398008E+04  0.19526398008E+04  0.00000000000E+00 0. -1.
         23    2    1    2    0    0  0.52987067821E+02  0.28384964619E+03 -0.18203403525E+04  0.18453941577E+04  0.91991016429E+02 0.  0.
         11    1    3    3    0    0 -0.20520245601E+02  0.18259110102E+02 -0.16918678376E+03  0.17140199351E+03  0.00000000000E+00 0.  1.
        -11    1    3    3    0    0  0.73507313423E+02  0.26559053608E+03 -0.16511535688E+04  0.16739921642E+04  0.00000000000E+00 0. -1.
         22    1    1    2    0    0 -0.52987067821E+02 -0.28384964619E+03  0.54262018162E+02  0.29380710953E+03  0.00000000000E+00 0.  1.
<mgrwt>
<rscale>  0 0.12071244E+04</rscale>
<asrwt>0</asrwt>
<pdfrwt beam="1">  1        2 0.30040612E+00 0.12071244E+04</pdfrwt>
<pdfrwt beam="2">  1       -2 0.28701764E-01 0.12071244E+04</pdfrwt>
<totfact> 0.78040979E+01</totfact>
</mgrwt>
</event>
<event>
 6    1  0.1603085E-006  0.3045592E+04  0.7818608E-02  0.8230830E-01
          2   -1    0    0  501    0  0.00000000000E+00  0.00000000000E+00  0.26914080166E+04  0.26914080166E+04  0.00000000000E+00 0. -1.
         -2   -1    0    0    0  501 -0.00000000000E+00 -0.00000000000E+00 -0.86159671537E+03  0.86159671537E+03  0.00000000000E+00 0.  1.
         23    2    1    2    0    0  0.11847633630E+04  0.91143762978E+03  0.58496521854E+03  0.16077477955E+04  0.91026851160E+02 0.  0.
         11    1    3    3    0    0  0.93305721072E+03  0.70419973843E+03  0.41814263719E+03  0.12415056565E+04  0.00000000000E+00 0. -1.
        -11    1    3    3    0    0  0.25170615232E+03  0.20723789135E+03  0.16682258136E+03  0.36624213900E+03  0.00000000000E+00 0.  1.
         22    1    1    2    0    0 -0.11847633630E+04 -0.91143762978E+03  0.12448460827E+04  0.19452569365E+04  0.00000000000E+00 0. -1.
<mgrwt>
<rscale>  0 0.30455924E+04</rscale>
<asrwt>0</asrwt>
<pdfrwt beam="1">  1        2 0.41406277E+00 0.30455924E+04</pdfrwt>
<pdfrwt beam="2">  1       -2 0.13255334E+00 0.30455924E+04</pdfrwt>
<totfact> 0.94688547E-01</totfact>
</mgrwt>
</event>
<event>
 6    1  0.1603085E-006  0.5796229E+03  0.7818608E-02  0.9948608E-01
         -2   -1    0    0    0  501 -0.00000000000E+00  0.00000000000E+00  0.26975290229E+02  0.26975290229E+02  0.00000000000E+00 0.  1.
          2   -1    0    0  501    0  0.00000000000E+00 -0.00000000000E+00 -0.31136154622E+04  0.31136154622E+04  0.00000000000E+00 0. -1.
         23    2    1    2    0    0  0.24554664564E+03 -0.92072362990E+02 -0.21526988827E+04  0.21705305445E+04  0.91213429917E+02 0.  0.
         11    1    3    3    0    0  0.35704699633E+02 -0.50354950266E+02 -0.59848839611E+03  0.60166336674E+03  0.00000000000E+00 0.  1.
        -11    1    3    3    0    0  0.20984194600E+03 -0.41717412724E+02 -0.15542104866E+04  0.15688671778E+04  0.00000000000E+00 0. -1.
         22    1    1    2    0    0 -0.24554664564E+03  0.92072362990E+02 -0.93394128924E+03  0.97006020790E+03  0.00000000000E+00 0.  1.
<mgrwt>
<rscale>  0 0.57962291E+03</rscale>
<asrwt>0</asrwt>
<pdfrwt beam="1">  1        2 0.47901758E+00 0.57962291E+03</pdfrwt>
<pdfrwt beam="2">  1       -2 0.41500462E-02 0.57962291E+03</pdfrwt>
<totfact> 0.43903422E+02</totfact>
</mgrwt>
</event>
<event>
 6    1  0.1603085E-006  0.3052400E+04  0.7818608E-02  0.8228924E-01
         -2   -1    0    0    0  501 -0.00000000000E+00  0.00000000000E+00  0.14936010193E+04  0.14936010193E+04  0.00000000000E+00 0.  1.
          2   -1    0    0  501    0  0.00000000000E+00 -0.00000000000E+00 -0.15595108094E+04  0.15595108094E+04  0.00000000000E+00 0. -1.
         23    2    1    2    0    0  0.15204973760E+04 -0.52952294597E+02 -0.14206082207E+03  0.15297880957E+04  0.73171885122E+02 0.  0.
         11    1    3    3    0    0  0.19292795170E+03 -0.28696293423E+02 -0.28963790688E+02  0.19718918068E+03  0.00000000000E+00 0. -1.
        -11    1    3    3    0    0  0.13275694243E+04 -0.24256001174E+02 -0.11309703138E+03  0.13325989150E+04  0.00000000000E+00 0.  1.
         22    1    1    2    0    0 -0.15204973760E+04  0.52952294597E+02  0.76151031906E+02  0.15233237330E+04  0.00000000000E+00 0. -1.
<mgrwt>
<rscale>  0 0.30524003E+04</rscale>
<asrwt>0</asrwt>
<pdfrwt beam="1">  1        2 0.23992474E+00 0.30524003E+04</pdfrwt>
<pdfrwt beam="2">  1       -2 0.22978477E+00 0.30524003E+04</pdfrwt>
<totfact> 0.85903160E-01</totfact>
</mgrwt>
</event>
<event>
 6    1  0.1603085E-006  0.1622958E+04  0.7818608E-02  0.8806567E-01
          2   -1    0    0  501    0  0.00000000000E+00  0.00000000000E+00  0.10946717657E+04  0.10946717657E+04  0.00000000000E+00 0. -1.
         -2   -1    0    0    0  501 -0.00000000000E+00 -0.00000000000E+00 -0.60154875339E+03  0.60154875339E+03  0.00000000000E+00 0.  1.
         23    2    1    2    0    0 -0.74583305609E+03  0.18986019789E+02  0.57496536195E+03  0.94567032975E+03  0.84141479689E+02 0.  0.
         11    1    3    3    0    0 -0.60138026386E+03 -0.80233303837E+01  0.49110169713E+03  0.77646859081E+03  0.00000000000E+00 0. -1.
        -11    1    3    3    0    0 -0.14445279224E+03  0.27009350173E+02  0.83863664824E+02  0.16920173894E+03  0.00000000000E+00 0.  1.
         22    1    1    2    0    0  0.74583305609E+03 -0.18986019789E+02 -0.81842349655E+02  0.75055018933E+03  0.00000000000E+00 0.  1.
<mgrwt>
<rscale>  0 0.16229583E+04</rscale>
<asrwt>0</asrwt>
<pdfrwt beam="1">  1        2 0.16841104E+00 0.16229583E+04</pdfrwt>
<pdfrwt beam="2">  1       -2 0.92545962E-01 0.16229583E+04</pdfrwt>
<totfact> 0.20821424E+01</totfact>
</mgrwt>
</event>
<event>
 6    1  0.1603085E-006  0.2692009E+04  0.7818608E-02  0.8337602E-01
          2   -1    0    0  501    0  0.00000000000E+00  0.00000000000E+00  0.59407671679E+03  0.59407671679E+03  0.00000000000E+00 0. -1.
         -2   -1    0    0    0  501 -0.00000000000E+00 -0.00000000000E+00 -0.30496532590E+04  0.30496532590E+04  0.00000000000E+00 0.  1.
         23    2    1    2    0    0  0.91071309549E+03  0.59046292055E+03 -0.23029170916E+04  0.25476689781E+04  0.95631002341E+02 0.  0.
         13    1    3    3    0    0  0.61842266273E+03  0.38309573766E+03 -0.14409914882E+04  0.16142073606E+04  0.00000000000E+00 0. -1.
        -13    1    3    3    0    0  0.29229043276E+03  0.20736718289E+03 -0.86192560334E+03  0.93346161749E+03  0.00000000000E+00 0.  1.
         22    1    1    2    0    0 -0.91071309549E+03 -0.59046292055E+03 -0.15265945070E+03  0.10960609977E+04  0.00000000000E+00 0. -1.
<mgrwt>
<rscale>  0 0.26920089E+04</rscale>
<asrwt>0</asrwt>
<pdfrwt beam="1">  1        2 0.91396416E-01 0.26920089E+04</pdfrwt>
<pdfrwt beam="2">  1       -2 0.46917744E+00 0.26920089E+04</pdfrwt>
<totfact> 0.11415549E-01</totfact>
</mgrwt>
</event>
<event>
 6    1  0.1603085E-006  0.3076279E+04  0.7818608E-02  0.8222278E-01
         -2   -1    0    0    0  501 -0.00000000000E+00  0.00000000000E+00  0.99440224214E+03  0.99440224214E+03  0.00000000000E+00 0.  1.
          2   -1    0    0  501    0  0.00000000000E+00 -0.00000000000E+00 -0.23791909422E+04  0.23791909422E+04  0.00000000000E+00 0. -1.
         23    2    1    2    0    0  0.12484808773E+04 -0.51563574310E+03  0.11087423685E+03  0.13582539223E+04  0.89307897270E+02 0.  0.
         13    1    3    3    0    0  0.11121349479E+03 -0.50729200327E+02  0.35651704198E+02  0.12733003260E+03  0.00000000000E+00 0.  1.
        -13    1    3    3    0    0  0.11372673825E+04 -0.46490654277E+03  0.75222532650E+02  0.12309238897E+04  0.00000000000E+00 0. -1.
         22    1    1    2    0    0 -0.12484808773E+04  0.51563574310E+03 -0.14956629369E+04  0.20153392621E+04  0.00000000000E+00 0. -1.
<mgrwt>
<rscale>  0 0.30762788E+04</rscale>
<asrwt>0</asrwt>
<pdfrwt beam="1">  1        2 0.36602937E+00 0.30762788E+04</pdfrwt>
<pdfrwt beam="2">  1       -2 0.15298496E+00 0.30762788E+04</pdfrwt>
<totfact> 0.98812287E-01</totfact>
</mgrwt>
</event>
<event>
 6    1  0.1603085E-006  0.3456820E+04  0.7818608E-02  0.8124100E-01
         -2   -1    0    0    0  501 -0.00000000000E+00  0.00000000000E+00  0.13474902018E+04  0.13474902018E+04  0.00000000000E+00 0.  1.
          2   -1    0    0  501    0  0.00000000000E+00 -0.00000000000E+00 -0.22170116078E+04  0.22170116078E+04  0.00000000000E+00 0. -1.
         23    2    1    2    0    0  0.82085521480E+03 -0.15189900039E+04 -0.38552030661E+03  0.17713506782E+04  0.89013498359E+02 0.  0.
         11    1    3    3    0    0  0.42055468754E+03 -0.74256888934E+03 -0.23267365511E+03  0.88454046285E+03  0.00000000000E+00 0. -1.
        -11    1    3    3    0    0  0.40030052726E+03 -0.77642111456E+03 -0.15284665150E+03  0.88681021540E+03  0.00000000000E+00 0.  1.
         22    1    1    2    0    0 -0.82085521480E+03  0.15189900039E+04 -0.48400109935E+03  0.17931511313E+04  0.00000000000E+00 0. -1.
<mgrwt>
<rscale>  0 0.34568202E+04</rscale>
<asrwt>0</asrwt>
<pdfrwt beam="1">  1        2 0.34107870E+00 0.34568202E+04</pdfrwt>
<pdfrwt beam="2">  1       -2 0.20730619E+00 0.34568202E+04</pdfrwt>
<totfact> 0.49643972E-01</totfact>
</mgrwt>
</event>
<event>
 6    1  0.1603085E-006  0.2380267E+04  0.7818608E-02  0.8446928E-01
         -1   -1    0    0    0  501 -0.00000000000E+00  0.00000000000E+00  0.69454573186E+03  0.69454573186E+03  0.00000000000E+00 0.  1.
          1   -1    0    0  501    0  0.00000000000E+00 -0.00000000000E+00 -0.20393441997E+04  0.20393441997E+04  0.00000000000E+00 0. -1.
         23    2    1    2    0    0  0.14133843364E+03 -0.39666514498E+03 -0.19498095290E+04  0.19967616020E+04  0.89330318222E+02 0.  0.
         11    1    3    3    0    0  0.66182865535E+02 -0.10012386838E+03 -0.68857199049E+03  0.69895375154E+03  0.00000000000E+00 0. -1.
        -11    1    3    3    0    0  0.75155568107E+02 -0.29654127660E+03 -0.12612375386E+04  0.12978078505E+04  0.00000000000E+00 0.  1.
         22    1    1    2    0    0 -0.14133843364E+03  0.39666514498E+03  0.60501106119E+03  0.73712832955E+03  0.00000000000E+00 0.  1.
<mgrwt>
<rscale>  0 0.23802671E+04</rscale>
<asrwt>0</asrwt>
<pdfrwt beam="1">  1        1 0.31374526E+00 0.23802671E+04</pdfrwt>
<pdfrwt beam="2">  1       -1 0.10685319E+00 0.23802671E+04</pdfrwt>
<totfact> 0.20552046E+00</totfact>
</mgrwt>
</event>
<event>
 6    1  0.1603085E-006  0.4133156E+04  0.7818608E-02  0.7978210E-01
         -4   -1    0    0    0  501 -0.00000000000E+00  0.00000000000E+00  0.19993999035E+04  0.19993999035E+04  0.00000000000E+00 0.  1.
          4   -1    0    0  501    0  0.00000000000E+00 -0.00000000000E+00 -0.21360137299E+04  0.21360137299E+04  0.00000000000E+00 0. -1.
         23    2    1    2    0    0 -0.38747263408E+03 -0.17792861532E+04 -0.10439410557E+04  0.21009021544E+04  0.89345831110E+02 0.  0.
         11    1    3    3    0    0 -0.22577054217E+03 -0.11482596142E+04 -0.62930586779E+03  0.13287205705E+04  0.00000000000E+00 0. -1.
        -11    1    3    3    0    0 -0.16170209191E+03 -0.63102653906E+03 -0.41463518788E+03  0.77218158392E+03  0.00000000000E+00 0.  1.
         22    1    1    2    0    0  0.38747263408E+03  0.17792861532E+04  0.90732722922E+03  0.20345114790E+04  0.00000000000E+00 0.  1.
<mgrwt>
<rscale>  0 0.41331565E+04</rscale>
<asrwt>0</asrwt>
<pdfrwt beam="1">  1        4 0.32861750E+00 0.41331565E+04</pdfrwt>
<pdfrwt beam="2">  1       -4 0.30759998E+00 0.41331565E+04</pdfrwt>
<totfact> 0.85972581E-04</totfact>
</mgrwt>
</event>
<event>
 6    1  0.1603085E-006  0.2215146E+04  0.7818608E-02  0.8512150E-01
          2   -1    0    0  501    0  0.00000000000E+00  0.00000000000E+00  0.15672500941E+04  0.15672500941E+04  0.00000000000E+00 0. -1.
         -2   -1    0    0    0  501 -0.00000000000E+00 -0.00000000000E+00 -0.78271979959E+03  0.78271979959E+03  0.00000000000E+00 0.  1.
         23    2    1    2    0    0  0.11334732266E+03  0.10858271760E+04  0.57922413286E+03  0.12391058644E+04  0.89523602780E+02 0.  0.
         13    1    3    3    0    0  0.18966604857E+02  0.60017198052E+03  0.32870840046E+03  0.68455485597E+03  0.00000000000E+00 0.  1.
        -13    1    3    3    0    0  0.94380717805E+02  0.48565519545E+03  0.25051573240E+03  0.55455100842E+03  0.00000000000E+00 0. -1.
         22    1    1    2    0    0 -0.11334732266E+03 -0.10858271760E+04  0.20530616166E+03  0.11108640293E+04  0.00000000000E+00 0.  1.
<mgrwt>
<rscale>  0 0.22151458E+04</rscale>
<asrwt>0</asrwt>
<pdfrwt beam="1">  1        2 0.24111540E+00 0.22151458E+04</pdfrwt>
<pdfrwt beam="2">  1       -2 0.12041843E+00 0.22151458E+04</pdfrwt>
<totfact> 0.55916204E+00</totfact>
</mgrwt>
</event>
<event>
 6    1  0.1603085E-006  0.2749770E+04  0.7818608E-02  0.8319035E-01
         -2   -1    0    0    0  501 -0.00000000000E+00  0.00000000000E+00  0.12623426566E+04  0.12623426566E+04  0.00000000000E+00 0.  1.
          2   -1    0    0  501    0  0.00000000000E+00 -0.00000000000E+00 -0.14974606965E+04  0.14974606965E+04  0.00000000000E+00 0. -1.
         23    2    1    2    0    0 -0.61641817388E+03 -0.91403288463E+03 -0.93944743683E+03  0.14515574363E+04  0.95026444611E+02 0.  0.
         13    1    3    3    0    0 -0.13830527804E+03 -0.27846395012E+03 -0.24872142468E+03  0.39816186225E+03  0.00000000000E+00 0.  1.
        -13    1    3    3    0    0 -0.47811289584E+03 -0.63556893450E+03 -0.69072601215E+03  0.10533955741E+04  0.00000000000E+00 0. -1.
         22    1    1    2    0    0  0.61641817388E+03  0.91403288463E+03  0.70432939690E+03  0.13082459167E+04  0.00000000000E+00 0.  1.
<mgrwt>
<rscale>  0 0.27497698E+04</rscale>
<asrwt>0</asrwt>
<pdfrwt beam="1">  1        2 0.23037857E+00 0.27497698E+04</pdfrwt>
<pdfrwt beam="2">  1       -2 0.19420656E+00 0.27497698E+04</pdfrwt>
<totfact> 0.16167713E+00</totfact>
</mgrwt>
</event>
<event>
 6    1  0.1603085E-006  0.1783951E+04  0.7818608E-02  0.8714881E-01
          1   -1    0    0  501    0  0.00000000000E+00  0.00000000000E+00  0.25931010607E+04  0.25931010607E+04  0.00000000000E+00 0. -1.
         -1   -1    0    0    0  501 -0.00000000000E+00 -0.00000000000E+00 -0.30682179536E+03  0.30682179536E+03  0.00000000000E+00 0.  1.
         23    2    1    2    0    0  0.73421774633E+03  0.10901826119E+03  0.34905102057E+03  0.82535929892E+03  0.91764247159E+02 0.  0.
         11    1    3    3    0    0  0.38116273400E+03  0.18195692476E+02  0.20687236474E+03  0.43406484343E+03  0.00000000000E+00 0. -1.
        -11    1    3    3    0    0  0.35305501233E+03  0.90822568719E+02  0.14217865584E+03  0.39129445549E+03  0.00000000000E+00 0.  1.
         22    1    1    2    0    0 -0.73421774633E+03 -0.10901826119E+03  0.19372282447E+04  0.20745635571E+04  0.00000000000E+00 0. -1.
<mgrwt>
<rscale>  0 0.17839506E+04</rscale>
<asrwt>0</asrwt>
<pdfrwt beam="1">  1        1 0.39893861E+00 0.17839506E+04</pdfrwt>
<pdfrwt beam="2">  1       -1 0.47203355E-01 0.17839506E+04</pdfrwt>
<totfact> 0.49427766E+00</totfact>
</mgrwt>
</event>
<event>
 6    1  0.1603085E-006  0.2115572E+04  0.7818608E-02  0.8554415E-01
         -2   -1    0    0    0  501 -0.00000000000E+00  0.00000000000E+00  0.38176283780E+04  0.38176283780E+04  0.00000000000E+00 0.  1.
          2   -1    0    0  501    0  0.00000000000E+00 -0.00000000000E+00 -0.29309057531E+03  0.29309057531E+03  0.00000000000E+00 0. -1.
         23    2    1    2    0    0  0.77680234669E+03 -0.68189186060E+03  0.13470176479E+04  0.17003263670E+04  0.90856014532E+02 0.  0.
         11    1    3    3    0    0  0.68524340117E+03 -0.63502433053E+03  0.12289334886E+04  0.15437266399E+04  0.00000000000E+00 0. -1.
        -11    1    3    3    0    0  0.91558945513E+02 -0.46867530065E+02  0.11808415924E+03  0.15659972714E+03  0.00000000000E+00 0.  1.
         22    1    1    2    0    0 -0.77680234669E+03  0.68189186060E+03  0.21775201549E+04  0.24103925863E+04  0.00000000000E+00 0.  1.
<mgrwt>
<rscale>  0 0.21155717E+04</rscale>
<asrwt>0</asrwt>
<pdfrwt beam="1">  1        2 0.45090860E-01 0.21155717E+04</pdfrwt>
<pdfrwt beam="2">  1       -2 0.58732741E+00 0.21155717E+04</pdfrwt>
<totfact> 0.58152678E-02</totfact>
</mgrwt>
</event>
<event>
 6    1  0.1603085E-006  0.2861625E+04  0.7818608E-02  0.8284388E-01
         -1   -1    0    0    0  501 -0.00000000000E+00  0.00000000000E+00  0.18517972249E+04  0.18517972249E+04  0.00000000000E+00 0.  1.
          1   -1    0    0  501    0  0.00000000000E+00 -0.00000000000E+00 -0.11055335363E+04  0.11055335363E+04  0.00000000000E+00 0. -1.
         23    2    1    2    0    0  0.22414204827E+03  0.13972545100E+04  0.58158475714E+03  0.15326627388E+04  0.90853825963E+02 0.  0.
         13    1    3    3    0    0  0.31043685166E+02  0.42889151335E+03  0.15620128621E+03  0.45750462558E+03  0.00000000000E+00 0.  1.
        -13    1    3    3    0    0  0.19309836311E+03  0.96836299664E+03  0.42538347092E+03  0.10751581132E+04  0.00000000000E+00 0. -1.
         22    1    1    2    0    0 -0.22414204827E+03 -0.13972545100E+04  0.16467893143E+03  0.14246680224E+04  0.00000000000E+00 0. -1.
<mgrwt>
<rscale>  0 0.28616247E+04</rscale>
<asrwt>0</asrwt>
<pdfrwt beam="1">  1        1 0.17008208E+00 0.28616247E+04</pdfrwt>
<pdfrwt beam="2">  1       -1 0.28489188E+00 0.28616247E+04</pdfrwt>
<totfact> 0.44742561E-01</totfact>
</mgrwt>
</event>
<event>
 6    1  0.1603085E-006  0.3674190E+04  0.7818608E-02  0.8073706E-01
         -1   -1    0    0    0  501 -0.00000000000E+00  0.00000000000E+00  0.11983003983E+04  0.11983003983E+04  0.00000000000E+00 0. -1.
          1   -1    0    0  501    0  0.00000000000E+00 -0.00000000000E+00 -0.28164206188E+04  0.28164206188E+04  0.00000000000E+00 0.  1.
         23    2    1    2    0    0  0.31843700605E+03  0.85971165009E+03 -0.25476864218E+04  0.27091178727E+04  0.90040525191E+02 0.  0.
         13    1    3    3    0    0  0.19416547957E+03  0.59527289946E+03 -0.18339342886E+04  0.19378764236E+04  0.00000000000E+00 0. -1.
        -13    1    3    3    0    0  0.12427152649E+03  0.26443875063E+03 -0.71375213326E+03  0.77124144913E+03  0.00000000000E+00 0.  1.
         22    1    1    2    0    0 -0.31843700605E+03 -0.85971165009E+03  0.92956620135E+03  0.13056031445E+04  0.00000000000E+00 0. -1.
<mgrwt>
<rscale>  0 0.36741900E+04</rscale>
<asrwt>0</asrwt>
<pdfrwt beam="1">  1        1 0.43329547E+00 0.36741900E+04</pdfrwt>
<pdfrwt beam="2">  1       -1 0.18435391E+00 0.36741900E+04</pdfrwt>
<totfact> 0.12629313E-01</totfact>
</mgrwt>
</event>
<event>
 6    1  0.1603085E-006  0.2878027E+04  0.7818608E-02  0.8279445E-01
         -2   -1    0    0    0  501 -0.00000000000E+00  0.00000000000E+00  0.68841807630E+03  0.68841807630E+03  0.00000000000E+00 0.  1.
          2   -1    0    0  501    0  0.00000000000E+00 -0.00000000000E+00 -0.30079984154E+04  0.30079984154E+04  0.00000000000E+00 0. -1.
         23    2    1    2    0    0 -0.52247333853E+03  0.87451891245E+02  0.55546348557E+03  0.77297618678E+03  0.91248445294E+02 0.  0.
         11    1    3    3    0    0 -0.24229628109E+03  0.75583210912E+01  0.29821273833E+03  0.38431166174E+03  0.00000000000E+00 0. -1.
        -11    1    3    3    0    0 -0.28017705744E+03  0.79893570154E+02  0.25725074724E+03  0.38866452504E+03  0.00000000000E+00 0.  1.
         22    1    1    2    0    0  0.52247333853E+03 -0.87451891245E+02 -0.28750438247E+04  0.29234403049E+04  0.00000000000E+00 0. -1.
<mgrwt>
<rscale>  0 0.28780274E+04</rscale>
<asrwt>0</asrwt>
<pdfrwt beam="1">  1        2 0.46276900E+00 0.28780274E+04</pdfrwt>
<pdfrwt beam="2">  1       -2 0.10591047E+00 0.28780274E+04</pdfrwt>
<totfact> 0.10708791E+00</totfact>
</mgrwt>
</event>
<event>
 6    1  0.1603085E-006  0.1864739E+04  0.7818608E-02  0.8672610E-01
         -2   -1    0    0    0  501 -0.00000000000E+00  0.00000000000E+00  0.35183019318E+03  0.35183019318E+03  0.00000000000E+00 0.  1.
          2   -1    0    0  501    0  0.00000000000E+00 -0.00000000000E+00 -0.24708319762E+04  0.24708319762E+04  0.00000000000E+00 0. -1.
         23    2    1    2    0    0  0.78822163146E+03  0.49190702220E+03 -0.10028139406E+04  0.13703739203E+04  0.94989595244E+02 0.  0.
         11    1    3    3    0    0  0.43656654987E+03  0.25285798270E+03 -0.60879600888E+03  0.79067065983E+03  0.00000000000E+00 0.  1.
        -11    1    3    3    0    0  0.35165508158E+03  0.23904903950E+03 -0.39401793168E+03  0.57970326045E+03  0.00000000000E+00 0. -1.
         22    1    1    2    0    0 -0.78822163146E+03 -0.49190702220E+03 -0.11161878424E+04  0.14522882491E+04  0.00000000000E+00 0. -1.
<mgrwt>
<rscale>  0 0.18647394E+04</rscale>
<asrwt>0</asrwt>
<pdfrwt beam="1">  1        2 0.38012801E+00 0.18647394E+04</pdfrwt>
<pdfrwt beam="2">  1       -2 0.54127720E-01 0.18647394E+04</pdfrwt>
<totfact> 0.10934087E+01</totfact>
</mgrwt>
</event>
<event>
 6    1  0.1603085E-006  0.3122751E+04  0.7818608E-02  0.8209522E-01
         -2   -1    0    0    0  501 -0.00000000000E+00  0.00000000000E+00  0.63868920773E+03  0.63868920773E+03  0.00000000000E+00 0. -1.
          2   -1    0    0  501    0  0.00000000000E+00 -0.00000000000E+00 -0.38170259924E+04  0.38170259924E+04  0.00000000000E+00 0.  1.
         23    2    1    2    0    0 -0.51233930825E+03  0.13717398643E+04 -0.82273025060E+03  0.16820814887E+04  0.91385158789E+02 0.  0.
         11    1    3    3    0    0 -0.18134355690E+03  0.39134539065E+03 -0.27147195406E+03  0.50964077766E+03  0.00000000000E+00 0.  1.
        -11    1    3    3    0    0 -0.33099575135E+03  0.98039447361E+03 -0.55125829654E+03  0.11724407110E+04  0.00000000000E+00 0. -1.
         22    1    1    2    0    0  0.51233930825E+03 -0.13717398643E+04 -0.23556065341E+04  0.27736337115E+04  0.00000000000E+00 0.  1.
<mgrwt>
<rscale>  0 0.31227509E+04</rscale>
<asrwt>0</asrwt>
<pdfrwt beam="1">  1        2 0.58723476E+00 0.31227509E+04</pdfrwt>
<pdfrwt beam="2">  1       -2 0.98259879E-01 0.31227509E+04</pdfrwt>
<totfact> 0.34735235E-01</totfact>
</mgrwt>
</event>
<event>
 6    1  0.1603085E-006  0.3465001E+04  0.7818608E-02  0.8122135E-01
         -2   -1    0    0    0  501 -0.00000000000E+00  0.00000000000E+00  0.12215840286E+04  0.12215840286E+04  0.00000000000E+00 0.  1.
          2   -1    0    0  501    0  0.00000000000E+00 -0.00000000000E+00 -0.24571034222E+04  0.24571034222E+04  0.00000000000E+00 0. -1.
         23    2    1    2    0    0 -0.13339720746E+04 -0.10963123001E+04 -0.75189720700E+03  0.18855693358E+04  0.92952433390E+02 0.  0.
         11    1    3    3    0    0 -0.10553507544E+04 -0.87705464754E+03 -0.55675523653E+03  0.14808667944E+04  0.00000000000E+00 0. -1.
        -11    1    3    3    0    0 -0.27862132027E+03 -0.21925765255E+03 -0.19514197047E+03  0.40470254132E+03  0.00000000000E+00 0.  1.
         22    1    1    2    0    0  0.13339720746E+04  0.10963123001E+04 -0.48362218661E+03  0.17931181151E+04  0.00000000000E+00 0.  1.
<mgrwt>
<rscale>  0 0.34650012E+04</rscale>
<asrwt>0</asrwt>
<pdfrwt beam="1">  1        2 0.37801590E+00 0.34650012E+04</pdfrwt>
<pdfrwt beam="2">  1       -2 0.18793601E+00 0.34650012E+04</pdfrwt>
<totfact> 0.48606365E-01</totfact>
</mgrwt>
</event>
<event>
 6    1  0.1603085E-006  0.2852847E+04  0.7818608E-02  0.8287047E-01
         -1   -1    0    0    0  501 -0.00000000000E+00  0.00000000000E+00  0.15544101321E+04  0.15544101321E+04  0.00000000000E+00 0.  1.
          1   -1    0    0  501    0  0.00000000000E+00 -0.00000000000E+00 -0.13089754072E+04  0.13089754072E+04  0.00000000000E+00 0. -1.
         23    2    1    2    0    0  0.13417378446E+04  0.38328600318E+03  0.41288012630E+03  0.14579651159E+04  0.89574977690E+02 0.  0.
         11    1    3    3    0    0  0.97934828772E+03  0.30136846396E+03  0.26757748106E+03  0.10590296163E+04  0.00000000000E+00 0. -1.
        -11    1    3    3    0    0  0.36238955691E+03  0.81917539221E+02  0.14530264523E+03  0.39893549968E+03  0.00000000000E+00 0.  1.
         22    1    1    2    0    0 -0.13417378446E+04 -0.38328600318E+03 -0.16744540143E+03  0.14054204234E+04  0.00000000000E+00 0. -1.
<mgrwt>
<rscale>  0 0.28528474E+04</rscale>
<asrwt>0</asrwt>
<pdfrwt beam="1">  1        1 0.20138083E+00 0.28528474E+04</pdfrwt>
<pdfrwt beam="2">  1       -1 0.23914002E+00 0.28528474E+04</pdfrwt>
<totfact> 0.63091915E-01</totfact>
</mgrwt>
</event>
<event>
 6    1  0.1603085E-006  0.3594331E+04  0.7818608E-02  0.8091791E-01
          1   -1    0    0  501    0  0.00000000000E+00  0.00000000000E+00  0.18778820434E+04  0.18778820434E+04  0.00000000000E+00 0.  1.
         -1   -1    0    0    0  501 -0.00000000000E+00 -0.00000000000E+00 -0.17199183105E+04  0.17199183105E+04  0.00000000000E+00 0. -1.
         23    2    1    2    0    0  0.12873873523E+04 -0.12245436181E+04  0.34138929704E+03  0.18115981802E+04  0.92021990674E+02 0.  0.
         13    1    3    3    0    0  0.65692220820E+03 -0.63581011599E+03  0.12951224351E+03  0.92334972380E+03  0.00000000000E+00 0.  1.
        -13    1    3    3    0    0  0.63046514412E+03 -0.58873350212E+03  0.21187705353E+03  0.88824845639E+03  0.00000000000E+00 0. -1.
         22    1    1    2    0    0 -0.12873873523E+04  0.12245436181E+04 -0.18342556411E+03  0.17862021736E+04  0.00000000000E+00 0.  1.
<mgrwt>
<rscale>  0 0.35943309E+04</rscale>
<asrwt>0</asrwt>
<pdfrwt beam="1">  1        1 0.28890493E+00 0.35943309E+04</pdfrwt>
<pdfrwt beam="2">  1       -1 0.26460282E+00 0.35943309E+04</pdfrwt>
<totfact> 0.16351974E-01</totfact>
</mgrwt>
</event>
<event>
 6    1  0.1603085E-006  0.2577617E+04  0.7818608E-02  0.8375844E-01
          2   -1    0    0  501    0  0.00000000000E+00  0.00000000000E+00  0.20462437534E+04  0.20462437534E+04  0.00000000000E+00 0. -1.
         -2   -1    0    0    0  501 -0.00000000000E+00 -0.00000000000E+00 -0.81174433451E+03  0.81174433451E+03  0.00000000000E+00 0.  1.
         23    2    1    2    0    0 -0.56923441115E+03  0.72496831220E+03  0.16142391848E+04  0.18610883144E+04  0.90965376706E+02 0.  0.
         11    1    3    3    0    0 -0.35221976455E+03  0.45072080948E+03  0.91121704714E+03  0.10758831338E+04  0.00000000000E+00 0. -1.
        -11    1    3    3    0    0 -0.21701464660E+03  0.27424750272E+03  0.70302213767E+03  0.78520518060E+03  0.00000000000E+00 0.  1.
         22    1    1    2    0    0  0.56923441115E+03 -0.72496831220E+03 -0.37973976594E+03  0.99689977348E+03  0.00000000000E+00 0.  1.
<mgrwt>
<rscale>  0 0.25776166E+04</rscale>
<asrwt>0</asrwt>
<pdfrwt beam="1">  1        2 0.31480673E+00 0.25776166E+04</pdfrwt>
<pdfrwt beam="2">  1       -2 0.12488374E+00 0.25776166E+04</pdfrwt>
<totfact> 0.26816714E+00</totfact>
</mgrwt>
</event>
<event>
 6    1  0.1626378E-006  0.2729978E+04  0.7818608E-02  0.8325343E-01
         -2   -1    0    0    0  501 -0.00000000000E+00  0.00000000000E+00  0.20068638888E+04  0.20068638888E+04  0.00000000000E+00 0.  1.
          2   -1    0    0  501    0  0.00000000000E+00 -0.00000000000E+00 -0.92841109762E+03  0.92841109762E+03  0.00000000000E+00 0. -1.
         23    2    1    2    0    0  0.12269461673E+03 -0.13567500795E+04  0.60554561838E+03  0.14932396397E+04  0.85172639456E+02 0.  0.
         13    1    3    3    0    0  0.75726275940E+02 -0.45673314992E+03  0.22883446554E+03  0.51643475069E+03  0.00000000000E+00 0.  1.
        -13    1    3    3    0    0  0.46968340795E+02 -0.90001692955E+03  0.37671115284E+03  0.97680488901E+03  0.00000000000E+00 0. -1.
         22    1    1    2    0    0 -0.12269461673E+03  0.13567500795E+04  0.47290717281E+03  0.14420353467E+04  0.00000000000E+00 0. -1.
<mgrwt>
<rscale>  0 0.27299778E+04</rscale>
<asrwt>0</asrwt>
<pdfrwt beam="1">  1        2 0.14283248E+00 0.27299778E+04</pdfrwt>
<pdfrwt beam="2">  1       -2 0.30874829E+00 0.27299778E+04</pdfrwt>
<totfact> 0.68978295E-01</totfact>
</mgrwt>
</event>
<event>
 6    1  0.1603085E-006  0.2706141E+04  0.7818608E-02  0.8333015E-01
         -1   -1    0    0    0  501 -0.00000000000E+00  0.00000000000E+00  0.15375668442E+04  0.15375668442E+04  0.00000000000E+00 0.  1.
          1   -1    0    0  501    0  0.00000000000E+00 -0.00000000000E+00 -0.11907124827E+04  0.11907124827E+04  0.00000000000E+00 0. -1.
         23    2    1    2    0    0 -0.93010812163E+03  0.96953635441E+03  0.25650339445E+02  0.13468764588E+04  0.91194269761E+02 0.  0.
         11    1    3    3    0    0 -0.39479168582E+03  0.47681704115E+03  0.70368785212E+01  0.61908358368E+03  0.00000000000E+00 0.  1.
        -11    1    3    3    0    0 -0.53531643580E+03  0.49271931326E+03  0.18613460924E+02  0.72779287509E+03  0.00000000000E+00 0. -1.
         22    1    1    2    0    0  0.93010812163E+03 -0.96953635441E+03  0.32120402204E+03  0.13814028682E+04  0.00000000000E+00 0.  1.
<mgrwt>
<rscale>  0 0.27061412E+04</rscale>
<asrwt>0</asrwt>
<pdfrwt beam="1">  1        1 0.18318654E+00 0.27061412E+04</pdfrwt>
<pdfrwt beam="2">  1       -1 0.23654874E+00 0.27061412E+04</pdfrwt>
<totfact> 0.80923407E-01</totfact>
</mgrwt>
</event>
<event>
 6    1  0.1603085E-006  0.3058689E+04  0.7818608E-02  0.8227168E-01
         -1   -1    0    0    0  501 -0.00000000000E+00  0.00000000000E+00  0.90014892813E+03  0.90014892813E+03  0.00000000000E+00 0.  1.
          1   -1    0    0  501    0  0.00000000000E+00 -0.00000000000E+00 -0.25983424565E+04  0.25983424565E+04  0.00000000000E+00 0. -1.
         23    2    1    2    0    0  0.53051396462E+03 -0.93455659228E+03  0.39248868278E+03  0.11477908085E+04  0.92386595504E+02 0.  0.
         11    1    3    3    0    0  0.47284535223E+03 -0.82711841202E+03  0.37804917169E+03  0.10250018394E+04  0.00000000000E+00 0.  1.
        -11    1    3    3    0    0  0.57668612384E+02 -0.10743818026E+03  0.14439511095E+02  0.12278896902E+03  0.00000000000E+00 0. -1.
         22    1    1    2    0    0 -0.53051396462E+03  0.93455659228E+03 -0.20906822112E+04  0.23507005762E+04  0.00000000000E+00 0. -1.
<mgrwt>
<rscale>  0 0.30586894E+04</rscale>
<asrwt>0</asrwt>
<pdfrwt beam="1">  1        1 0.39974499E+00 0.30586894E+04</pdfrwt>
<pdfrwt beam="2">  1       -1 0.13848445E+00 0.30586894E+04</pdfrwt>
<totfact> 0.42230184E-01</totfact>
</mgrwt>
</event>
<event>
 6    1  0.1603085E-006  0.3450306E+04  0.7818608E-02  0.8125669E-01
         -1   -1    0    0    0  501 -0.00000000000E+00  0.00000000000E+00  0.93462228747E+03  0.93462228747E+03  0.00000000000E+00 0.  1.
          1   -1    0    0  501    0  0.00000000000E+00 -0.00000000000E+00 -0.31843382948E+04  0.31843382948E+04  0.00000000000E+00 0. -1.
         23    2    1    2    0    0  0.13207908430E+04  0.14878593670E+03  0.18497638764E+03  0.13450909451E+04  0.91802401211E+02 0.  0.
         13    1    3    3    0    0  0.73243959624E+03  0.52812740295E+02  0.66901577538E+02  0.73738237622E+03  0.00000000000E+00 0.  1.
        -13    1    3    3    0    0  0.58835124671E+03  0.95973196403E+02  0.11807481010E+03  0.60770856890E+03  0.00000000000E+00 0. -1.
         22    1    1    2    0    0 -0.13207908430E+04 -0.14878593670E+03 -0.24346923950E+04  0.27738696372E+04  0.00000000000E+00 0. -1.
<mgrwt>
<rscale>  0 0.34503064E+04</rscale>
<asrwt>0</asrwt>
<pdfrwt beam="1">  1        1 0.48989821E+00 0.34503064E+04</pdfrwt>
<pdfrwt beam="2">  1       -1 0.14378804E+00 0.34503064E+04</pdfrwt>
<totfact> 0.13963852E-01</totfact>
</mgrwt>
</event>
<event>
 6    1  0.1603085E-006  0.1848043E+04  0.7818608E-02  0.8681160E-01
         -1   -1    0    0    0  501 -0.00000000000E+00  0.00000000000E+00  0.41830610634E+03  0.41830610634E+03  0.00000000000E+00 0.  1.
          1   -1    0    0  501    0  0.00000000000E+00 -0.00000000000E+00 -0.20411266741E+04  0.20411266741E+04  0.00000000000E+00 0. -1.
         23    2    1    2    0    0  0.74712508076E+02  0.82717779318E+03 -0.28212733496E+03  0.88232675836E+03  0.95391902171E+02 0.  0.
         11    1    3    3    0    0  0.60671770015E+02  0.44067750586E+03 -0.10563955813E+03  0.45720612866E+03  0.00000000000E+00 0.  1.
        -11    1    3    3    0    0  0.14040738061E+02  0.38650028732E+03 -0.17648777683E+03  0.42512062970E+03  0.00000000000E+00 0. -1.
         22    1    1    2    0    0 -0.74712508076E+02 -0.82717779318E+03 -0.13406932328E+04  0.15771060220E+04  0.00000000000E+00 0. -1.
<mgrwt>
<rscale>  0 0.18480430E+04</rscale>
<asrwt>0</asrwt>
<pdfrwt beam="1">  1        1 0.31401949E+00 0.18480430E+04</pdfrwt>
<pdfrwt beam="2">  1       -1 0.64354785E-01 0.18480430E+04</pdfrwt>
<totfact> 0.64303537E+00</totfact>
</mgrwt>
</event>
<event>
 6    1  0.1603085E-006  0.3101454E+04  0.7818608E-02  0.8215339E-01
          1   -1    0    0  501    0  0.00000000000E+00  0.00000000000E+00  0.72248985677E+03  0.72248985677E+03  0.00000000000E+00 0. -1.
         -1   -1    0    0    0  501 -0.00000000000E+00 -0.00000000000E+00 -0.33284267967E+04  0.33284267967E+04  0.00000000000E+00 0.  1.
         23    2    1    2    0    0 -0.14347500898E+04  0.27530460177E+03 -0.19780026427E+04  0.24607588231E+04  0.92407181570E+02 0.  0.
         13    1    3    3    0    0 -0.89800465432E+03  0.20930943384E+03 -0.12899255385E+04  0.15856010511E+04  0.00000000000E+00 0. -1.
        -13    1    3    3    0    0 -0.53674543544E+03  0.65995167927E+02 -0.68807710421E+03  0.87515777205E+03  0.00000000000E+00 0.  1.
         22    1    1    2    0    0  0.14347500898E+04 -0.27530460177E+03 -0.62793429723E+03  0.15901578304E+04  0.00000000000E+00 0. -1.
<mgrwt>
<rscale>  0 0.31014542E+04</rscale>
<asrwt>0</asrwt>
<pdfrwt beam="1">  1        1 0.11115229E+00 0.31014542E+04</pdfrwt>
<pdfrwt beam="2">  1       -1 0.51206566E+00 0.31014542E+04</pdfrwt>
<totfact> 0.27260327E-02</totfact>
</mgrwt>
</event>
<event>
 6    1  0.1603085E-006  0.2347708E+04  0.7818608E-02  0.8459344E-01
         -1   -1    0    0    0  501 -0.00000000000E+00  0.00000000000E+00  0.45353045674E+03  0.45353045674E+03  0.00000000000E+00 0.  1.
          1   -1    0    0  501    0  0.00000000000E+00 -0.00000000000E+00 -0.30382385684E+04  0.30382385684E+04  0.00000000000E+00 0. -1.
         23    2    1    2    0    0  0.20801398877E+03 -0.30762223386E+03 -0.29477240553E+04  0.29724600288E+04  0.92413519677E+02 0.  0.
         13    1    3    3    0    0  0.21012515931E+02 -0.10248546009E+03 -0.87488055761E+03  0.88111337831E+03  0.00000000000E+00 0.  1.
        -13    1    3    3    0    0  0.18700147284E+03 -0.20513677377E+03 -0.20728434977E+04  0.20913466505E+04  0.00000000000E+00 0. -1.
         22    1    1    2    0    0 -0.20801398877E+03  0.30762223386E+03  0.36301594364E+03  0.51930899629E+03  0.00000000000E+00 0.  1.
<mgrwt>
<rscale>  0 0.23477084E+04</rscale>
<asrwt>0</asrwt>
<pdfrwt beam="1">  1        1 0.46742133E+00 0.23477084E+04</pdfrwt>
<pdfrwt beam="2">  1       -1 0.69773915E-01 0.23477084E+04</pdfrwt>
<totfact> 0.10483167E+00</totfact>
</mgrwt>
</event>
<event>
 6    1  0.1603085E-006  0.2997023E+04  0.7818608E-02  0.8244582E-01
          1   -1    0    0  501    0  0.00000000000E+00  0.00000000000E+00  0.24421380952E+04  0.24421380952E+04  0.00000000000E+00 0. -1.
         -1   -1    0    0    0  501 -0.00000000000E+00 -0.00000000000E+00 -0.91949590960E+03  0.91949590960E+03  0.00000000000E+00 0.  1.
         23    2    1    2    0    0 -0.14584460741E+04 -0.15902503326E+03  0.10959743711E+04  0.18337598817E+04  0.95716088332E+02 0.  0.
         11    1    3    3    0    0 -0.12472409278E+04 -0.16970215074E+03  0.93741476975E+03  0.15694442336E+04  0.00000000000E+00 0. -1.
        -11    1    3    3    0    0 -0.21120514626E+03  0.10677117474E+02  0.15855960140E+03  0.26431564811E+03  0.00000000000E+00 0.  1.
         22    1    1    2    0    0  0.14584460741E+04  0.15902503326E+03  0.42666781451E+03  0.15278741231E+04  0.00000000000E+00 0.  1.
<mgrwt>
<rscale>  0 0.29970225E+04</rscale>
<asrwt>0</asrwt>
<pdfrwt beam="1">  1        1 0.37571355E+00 0.29970225E+04</pdfrwt>
<pdfrwt beam="2">  1       -1 0.14146091E+00 0.29970225E+04</pdfrwt>
<totfact> 0.51571505E-01</totfact>
</mgrwt>
</event>
<event>
 6    1  0.1603085E-006  0.6625515E+03  0.7818608E-02  0.9783508E-01
          2   -1    0    0  501    0  0.00000000000E+00  0.00000000000E+00  0.65870923581E+03  0.65870923581E+03  0.00000000000E+00 0. -1.
         -2   -1    0    0    0  501 -0.00000000000E+00 -0.00000000000E+00 -0.16660405423E+03  0.16660405423E+03  0.00000000000E+00 0.  1.
         23    2    1    2    0    0 -0.13584398650E+03  0.27991210422E+03  0.36746973657E+03  0.49014412542E+03  0.91667233133E+02 0.  0.
         13    1    3    3    0    0 -0.94000123509E+02  0.17774910569E+03  0.29871370542E+03  0.36008422015E+03  0.00000000000E+00 0. -1.
        -13    1    3    3    0    0 -0.41843862987E+02  0.10216299854E+03  0.68756031142E+02  0.13005990527E+03  0.00000000000E+00 0.  1.
         22    1    1    2    0    0  0.13584398650E+03 -0.27991210422E+03  0.12463544502E+03  0.33516916462E+03  0.00000000000E+00 0. -1.
<mgrwt>
<rscale>  0 0.66255152E+03</rscale>
<asrwt>0</asrwt>
<pdfrwt beam="1">  1        2 0.10133988E+00 0.66255152E+03</pdfrwt>
<pdfrwt beam="2">  1       -2 0.25631393E-01 0.66255152E+03</pdfrwt>
<totfact> 0.60938025E+02</totfact>
</mgrwt>
</event>
<event>
 6    1  0.1603085E-006  0.3112343E+04  0.7818608E-02  0.8212359E-01
          1   -1    0    0  501    0  0.00000000000E+00  0.00000000000E+00  0.18600353655E+04  0.18600353655E+04  0.00000000000E+00 0. -1.
         -1   -1    0    0    0  501 -0.00000000000E+00 -0.00000000000E+00 -0.13019486345E+04  0.13019486345E+04  0.00000000000E+00 0.  1.
         23    2    1    2    0    0  0.11686601753E+04  0.55176382096E+03  0.11574881048E+04  0.17373816252E+04  0.92229493550E+02 0.  0.
         11    1    3    3    0    0  0.93677159060E+03  0.40493194556E+03  0.88948667801E+03  0.13537715627E+04  0.00000000000E+00 0. -1.
        -11    1    3    3    0    0  0.23188858466E+03  0.14683187540E+03  0.26800142678E+03  0.38361006255E+03  0.00000000000E+00 0.  1.
         22    1    1    2    0    0 -0.11686601753E+04 -0.55176382096E+03 -0.59940137375E+03  0.14246023748E+04  0.00000000000E+00 0.  1.
<mgrwt>
<rscale>  0 0.31123435E+04</rscale>
<asrwt>0</asrwt>
<pdfrwt beam="1">  1        1 0.28615929E+00 0.31123435E+04</pdfrwt>
<pdfrwt beam="2">  1       -1 0.20029979E+00 0.31123435E+04</pdfrwt>
<totfact> 0.46829764E-01</totfact>
</mgrwt>
</event>
<event>
 6    1  0.1662032E-006  0.3862469E+04  0.7818608E-02  0.8032880E-01
         -2   -1    0    0    0  501 -0.00000000000E+00  0.00000000000E+00  0.17408023850E+04  0.17408023850E+04  0.00000000000E+00 0.  1.
          2   -1    0    0  501    0  0.00000000000E+00 -0.00000000000E+00 -0.21424987153E+04  0.21424987153E+04  0.00000000000E+00 0. -1.
         23    2    1    2    0    0 -0.16952176636E+03  0.19209155958E+04 -0.28624024173E+03  0.19514666188E+04  0.87373523971E+02 0.  0.
         13    1    3    3    0    0 -0.11183786390E+03  0.93989882407E+03 -0.10722247918E+03  0.95258289264E+03  0.00000000000E+00 0.  1.
        -13    1    3    3    0    0 -0.57683902452E+02  0.98101677176E+03 -0.17901776255E+03  0.99888372616E+03  0.00000000000E+00 0. -1.
         22    1    1    2    0    0  0.16952176636E+03 -0.19209155958E+04 -0.11545608853E+03  0.19318344815E+04  0.00000000000E+00 0. -1.
<mgrwt>
<rscale>  0 0.38624691E+04</rscale>
<asrwt>0</asrwt>
<pdfrwt beam="1">  1        2 0.32961518E+00 0.38624691E+04</pdfrwt>
<pdfrwt beam="2">  1       -2 0.26781575E+00 0.38624691E+04</pdfrwt>
<totfact> 0.22179485E-01</totfact>
</mgrwt>
</event>
<event>
 6    1  0.1603085E-006  0.2892726E+04  0.7818608E-02  0.8275045E-01
          2   -1    0    0  501    0  0.00000000000E+00  0.00000000000E+00  0.12735224983E+04  0.12735224983E+04  0.00000000000E+00 0. -1.
         -2   -1    0    0    0  501 -0.00000000000E+00 -0.00000000000E+00 -0.16426607856E+04  0.16426607856E+04  0.00000000000E+00 0.  1.
         23    2    1    2    0    0  0.80210707300E+03 -0.69551366464E+03  0.80335472698E+03  0.13344579971E+04  0.91018208881E+02 0.  0.
         11    1    3    3    0    0  0.60710000666E+03 -0.47809361631E+03  0.60494437112E+03  0.98137740762E+03  0.00000000000E+00 0. -1.
        -11    1    3    3    0    0  0.19500706634E+03 -0.21742004832E+03  0.19841035586E+03  0.35308058946E+03  0.00000000000E+00 0.  1.
         22    1    1    2    0    0 -0.80210707300E+03  0.69551366464E+03 -0.11724930143E+04  0.15817252868E+04  0.00000000000E+00 0.  1.
<mgrwt>
<rscale>  0 0.28927257E+04</rscale>
<asrwt>0</asrwt>
<pdfrwt beam="1">  1        2 0.19592654E+00 0.28927257E+04</pdfrwt>
<pdfrwt beam="2">  1       -2 0.25271704E+00 0.28927257E+04</pdfrwt>
<totfact> 0.91486571E-01</totfact>
</mgrwt>
</event>
<event>
 6    1  0.1603085E-006  0.8403465E+03  0.7818608E-02  0.9503386E-01
          1   -1    0    0  501    0  0.00000000000E+00  0.00000000000E+00  0.21747194262E+04  0.21747194262E+04  0.00000000000E+00 0. -1.
         -1   -1    0    0    0  501 -0.00000000000E+00 -0.00000000000E+00 -0.81180849783E+02  0.81180849783E+02  0.00000000000E+00 0.  1.
         23    2    1    2    0    0 -0.67708346572E+02  0.37131752330E+03  0.59696499584E+03  0.71246462608E+03  0.93688386975E+02 0.  0.
         11    1    3    3    0    0 -0.13752410406E+02  0.10018072226E+03  0.91666573013E+02  0.13648467501E+03  0.00000000000E+00 0. -1.
        -11    1    3    3    0    0 -0.53955936166E+02  0.27113680104E+03  0.50529842283E+03  0.57597995107E+03  0.00000000000E+00 0.  1.
         22    1    1    2    0    0  0.67708346572E+02 -0.37131752330E+03  0.14965735805E+04  0.15434356499E+04  0.00000000000E+00 0. -1.
<mgrwt>
<rscale>  0 0.84034653E+03</rscale>
<asrwt>0</asrwt>
<pdfrwt beam="1">  1        1 0.33457218E+00 0.84034653E+03</pdfrwt>
<pdfrwt beam="2">  1       -1 0.12489363E-01 0.84034653E+03</pdfrwt>
<totfact> 0.10283346E+02</totfact>
</mgrwt>
</event>
<event>
 6    1  0.1603085E-006  0.1536875E+04  0.7818608E-02  0.8860295E-01
         -2   -1    0    0    0  501 -0.00000000000E+00  0.00000000000E+00  0.30284027358E+03  0.30284027358E+03  0.00000000000E+00 0.  1.
          2   -1    0    0  501    0  0.00000000000E+00 -0.00000000000E+00 -0.19498603459E+04  0.19498603459E+04  0.00000000000E+00 0. -1.
         23    2    1    2    0    0 -0.55802082172E+03 -0.43192941616E+03 -0.12618792135E+04  0.14487828754E+04  0.93179465151E+02 0.  0.
         11    1    3    3    0    0 -0.32162085845E+03 -0.22041314653E+03 -0.61255128715E+03  0.72611363514E+03  0.00000000000E+00 0.  1.
        -11    1    3    3    0    0 -0.23639996327E+03 -0.21151626963E+03 -0.64932792632E+03  0.72266924028E+03  0.00000000000E+00 0. -1.
         22    1    1    2    0    0  0.55802082172E+03  0.43192941616E+03 -0.38514085881E+03  0.80391774401E+03  0.00000000000E+00 0.  1.
<mgrwt>
<rscale>  0 0.15368751E+04</rscale>
<asrwt>0</asrwt>
<pdfrwt beam="1">  1        2 0.29997852E+00 0.15368751E+04</pdfrwt>
<pdfrwt beam="2">  1       -2 0.46590811E-01 0.15368751E+04</pdfrwt>
<totfact> 0.29985585E+01</totfact>
</mgrwt>
</event>
<event>
 6    1  0.1603085E-006  0.2312195E+04  0.7818608E-02  0.8473128E-01
         -1   -1    0    0    0  501 -0.00000000000E+00  0.00000000000E+00  0.13339315563E+04  0.13339315563E+04  0.00000000000E+00 0.  1.
          1   -1    0    0  501    0  0.00000000000E+00 -0.00000000000E+00 -0.10019715447E+04  0.10019715447E+04  0.00000000000E+00 0. -1.
         23    2    1    2    0    0  0.28651504366E+03  0.11476030085E+03 -0.95748855445E+03  0.10100304068E+04  0.90090476037E+02 0.  0.
         13    1    3    3    0    0  0.15133274780E+02 -0.95304102507E+01 -0.11156181510E+03  0.11298620851E+03  0.00000000000E+00 0. -1.
        -13    1    3    3    0    0  0.27138176888E+03  0.12429071110E+03 -0.84592673935E+03  0.89704419830E+03  0.00000000000E+00 0.  1.
         22    1    1    2    0    0 -0.28651504366E+03 -0.11476030085E+03  0.12894485660E+04  0.13258726942E+04  0.00000000000E+00 0.  1.
<mgrwt>
<rscale>  0 0.23121950E+04</rscale>
<asrwt>0</asrwt>
<pdfrwt beam="1">  1        1 0.15414947E+00 0.23121950E+04</pdfrwt>
<pdfrwt beam="2">  1       -1 0.20522024E+00 0.23121950E+04</pdfrwt>
<totfact> 0.18864376E+00</totfact>
</mgrwt>
</event>
<event>
 6    1  0.1603085E-006  0.2344543E+04  0.7818608E-02  0.8460563E-01
          2   -1    0    0  501    0  0.00000000000E+00  0.00000000000E+00  0.87777334621E+03  0.87777334621E+03  0.00000000000E+00 0. -1.
         -2   -1    0    0    0  501 -0.00000000000E+00 -0.00000000000E+00 -0.15655755647E+04  0.15655755647E+04  0.00000000000E+00 0.  1.
         23    2    1    2    0    0 -0.42224722117E+03  0.10445892050E+04 -0.13384198599E+02  0.11302232549E+04  0.88125740526E+02 0.  0.
         13    1    3    3    0    0 -0.33527534576E+03  0.89839742795E+03  0.66360100389E+01  0.95894292460E+03  0.00000000000E+00 0. -1.
        -13    1    3    3    0    0 -0.86971875416E+02  0.14619177704E+03 -0.20020208638E+02  0.17128033028E+03  0.00000000000E+00 0.  1.
         22    1    1    2    0    0  0.42224722117E+03 -0.10445892050E+04 -0.67441801990E+03  0.13131256560E+04  0.00000000000E+00 0.  1.
<mgrwt>
<rscale>  0 0.23445430E+04</rscale>
<asrwt>0</asrwt>
<pdfrwt beam="1">  1        2 0.13504205E+00 0.23445430E+04</pdfrwt>
<pdfrwt beam="2">  1       -2 0.24085778E+00 0.23445430E+04</pdfrwt>
<totfact> 0.20066024E+00</totfact>
</mgrwt>
</event>
<event>
 6    1  0.1603085E-006  0.1630849E+04  0.7818608E-02  0.8801818E-01
         -2   -1    0    0    0  501 -0.00000000000E+00  0.00000000000E+00  0.82996070703E+03  0.82996070703E+03  0.00000000000E+00 0.  1.
          2   -1    0    0  501    0  0.00000000000E+00 -0.00000000000E+00 -0.80114242581E+03  0.80114242581E+03  0.00000000000E+00 0. -1.
         23    2    1    2    0    0 -0.37768504138E+03  0.56866153673E+03 -0.42693948167E+03  0.81028824977E+03  0.90927404364E+02 0.  0.
         11    1    3    3    0    0 -0.17514552539E+03  0.21242951055E+03 -0.21247068617E+03  0.34777297839E+03  0.00000000000E+00 0. -1.
        -11    1    3    3    0    0 -0.20253951599E+03  0.35623202618E+03 -0.21446879550E+03  0.46251527138E+03  0.00000000000E+00 0.  1.
         22    1    1    2    0    0  0.37768504138E+03 -0.56866153673E+03  0.45575776289E+03  0.82081488307E+03  0.00000000000E+00 0.  1.
<mgrwt>
<rscale>  0 0.16308485E+04</rscale>
<asrwt>0</asrwt>
<pdfrwt beam="1">  1        2 0.12325268E+00 0.16308485E+04</pdfrwt>
<pdfrwt beam="2">  1       -2 0.12768626E+00 0.16308485E+04</pdfrwt>
<totfact> 0.14946022E+01</totfact>
</mgrwt>
</event>
<event>
 6    1  0.1603085E-006  0.4347594E+04  0.7818608E-02  0.7937876E-01
         -2   -1    0    0    0  501 -0.00000000000E+00  0.00000000000E+00  0.19503891584E+04  0.19503891584E+04  0.00000000000E+00 0.  1.
          2   -1    0    0  501    0  0.00000000000E+00 -0.00000000000E+00 -0.24227949255E+04  0.24227949255E+04  0.00000000000E+00 0. -1.
         23    2    1    2    0    0  0.18381500823E+04  0.11520994396E+04 -0.11241518294E+03  0.21741565569E+04  0.90502579958E+02 0.  0.
         11    1    3    3    0    0  0.31287253097E+03  0.18774324233E+03  0.14199228661E+02  0.36515525981E+03  0.00000000000E+00 0. -1.
        -11    1    3    3    0    0  0.15252775513E+04  0.96435619723E+03 -0.12661441160E+03  0.18090012971E+04  0.00000000000E+00 0.  1.
         22    1    1    2    0    0 -0.18381500823E+04 -0.11520994396E+04 -0.35999058418E+03  0.21990275270E+04  0.00000000000E+00 0. -1.
<mgrwt>
<rscale>  0 0.43475938E+04</rscale>
<asrwt>0</asrwt>
<pdfrwt beam="1">  1        2 0.37273768E+00 0.43475938E+04</pdfrwt>
<pdfrwt beam="2">  1       -2 0.30005987E+00 0.43475938E+04</pdfrwt>
<totfact> 0.93970731E-02</totfact>
</mgrwt>
</event>
<event>
 6    1  0.1603085E-006  0.1018962E+04  0.7818608E-02  0.9287989E-01
          1   -1    0    0  501    0  0.00000000000E+00  0.00000000000E+00  0.66872214837E+03  0.66872214837E+03  0.00000000000E+00 0. -1.
         -1   -1    0    0    0  501 -0.00000000000E+00 -0.00000000000E+00 -0.38815962737E+03  0.38815962737E+03  0.00000000000E+00 0.  1.
         23    2    1    2    0    0  0.33483429880E+03  0.33947364997E+03  0.31500804770E+03  0.57882020964E+03  0.91904288822E+02 0.  0.
         13    1    3    3    0    0  0.42685760089E+02  0.10889359016E+02  0.14989725406E+02  0.46533258235E+02  0.00000000000E+00 0.  1.
        -13    1    3    3    0    0  0.29214853871E+03  0.32858429095E+03  0.30001832229E+03  0.53228695141E+03  0.00000000000E+00 0. -1.
         22    1    1    2    0    0 -0.33483429880E+03 -0.33947364997E+03 -0.34445526694E+02  0.47806156610E+03  0.00000000000E+00 0.  1.
<mgrwt>
<rscale>  0 0.10189621E+04</rscale>
<asrwt>0</asrwt>
<pdfrwt beam="1">  1        1 0.10288033E+00 0.10189621E+04</pdfrwt>
<pdfrwt beam="2">  1       -1 0.59716866E-01 0.10189621E+04</pdfrwt>
<totfact> 0.83132857E+01</totfact>
</mgrwt>
</event>
<event>
 6    1  0.1603085E-006  0.3965599E+04  0.7818608E-02  0.8011523E-01
          1   -1    0    0  501    0  0.00000000000E+00  0.00000000000E+00  0.26287172984E+04  0.26287172984E+04  0.00000000000E+00 0. -1.
         -1   -1    0    0    0  501 -0.00000000000E+00 -0.00000000000E+00 -0.14955939613E+04  0.14955939613E+04  0.00000000000E+00 0.  1.
         23    2    1    2    0    0 -0.12925655631E+04  0.93316136890E+03 -0.65748898083E+03  0.17268525325E+04  0.90620273017E+02 0.  0.
         11    1    3    3    0    0 -0.64075741757E+03  0.40916378498E+03 -0.29891013948E+03  0.81690412081E+03  0.00000000000E+00 0.  1.
        -11    1    3    3    0    0 -0.65180814550E+03  0.52399758392E+03 -0.35857884135E+03  0.90994841170E+03  0.00000000000E+00 0. -1.
         22    1    1    2    0    0  0.12925655631E+04 -0.93316136890E+03  0.17906123180E+04  0.23974587272E+04  0.00000000000E+00 0. -1.
<mgrwt>
<rscale>  0 0.39655989E+04</rscale>
<asrwt>0</asrwt>
<pdfrwt beam="1">  1        1 0.40441805E+00 0.39655989E+04</pdfrwt>
<pdfrwt beam="2">  1       -1 0.23009138E+00 0.39655989E+04</pdfrwt>
<totfact> 0.81489583E-02</totfact>
</mgrwt>
</event>
<event>
 6    1  0.1603085E-006  0.8630285E+03  0.7818608E-02  0.9473015E-01
         -2   -1    0    0    0  501 -0.00000000000E+00  0.00000000000E+00  0.60049698561E+02  0.60049698561E+02  0.00000000000E+00 0.  1.
          2   -1    0    0  501    0  0.00000000000E+00 -0.00000000000E+00 -0.31008405715E+04  0.31008405715E+04  0.00000000000E+00 0. -1.
         23    2    1    2    0    0 -0.15171410123E+03  0.37900641858E+03 -0.19918557451E+04  0.20353113363E+04  0.91323010906E+02 0.  0.
         11    1    3    3    0    0 -0.33830839465E+02  0.20135989630E+03 -0.90596938420E+03  0.92869309174E+03  0.00000000000E+00 0.  1.
        -11    1    3    3    0    0 -0.11788326177E+03  0.17764652228E+03 -0.10858863609E+04  0.11066182445E+04  0.00000000000E+00 0. -1.
         22    1    1    2    0    0  0.15171410123E+03 -0.37900641858E+03 -0.10489351278E+04  0.11255789338E+04  0.00000000000E+00 0.  1.
<mgrwt>
<rscale>  0 0.86302849E+03</rscale>
<asrwt>0</asrwt>
<pdfrwt beam="1">  1        2 0.47705236E+00 0.86302849E+03</pdfrwt>
<pdfrwt beam="2">  1       -2 0.92384158E-02 0.86302849E+03</pdfrwt>
<totfact> 0.12261054E+02</totfact>
</mgrwt>
</event>
<event>
 6    1  0.1603085E-006  0.1647278E+04  0.7818608E-02  0.8792019E-01
         -2   -1    0    0    0  501 -0.00000000000E+00  0.00000000000E+00  0.60085379779E+03  0.60085379779E+03  0.00000000000E+00 0.  1.
          2   -1    0    0  501    0  0.00000000000E+00 -0.00000000000E+00 -0.11290281409E+04  0.11290281409E+04  0.00000000000E+00 0. -1.
         23    2    1    2    0    0 -0.28761648276E+03  0.70571858006E+03 -0.58676577445E+03  0.96555549586E+03  0.85096334438E+02 0.  0.
         11    1    3    3    0    0 -0.10723632453E+03  0.16521288258E+03 -0.15502175383E+03  0.25065248858E+03  0.00000000000E+00 0. -1.
        -11    1    3    3    0    0 -0.18038015823E+03  0.54050569748E+03 -0.43174402062E+03  0.71490300729E+03  0.00000000000E+00 0.  1.
         22    1    1    2    0    0  0.28761648276E+03 -0.70571858006E+03  0.58591431326E+02  0.76432644284E+03  0.00000000000E+00 0.  1.
<mgrwt>
<rscale>  0 0.16472776E+04</rscale>
<asrwt>0</asrwt>
<pdfrwt beam="1">  1        2 0.17369664E+00 0.16472776E+04</pdfrwt>
<pdfrwt beam="2">  1       -2 0.92439046E-01 0.16472776E+04</pdfrwt>
<totfact> 0.19847948E+01</totfact>
</mgrwt>
</event>
<event>
 6    1  0.1603085E-006  0.1887581E+04  0.7818608E-02  0.8661063E-01
         -2   -1    0    0    0  501 -0.00000000000E+00  0.00000000000E+00  0.72970984751E+03  0.72970984751E+03  0.00000000000E+00 0.  1.
          2   -1    0    0  501    0  0.00000000000E+00 -0.00000000000E+00 -0.12206771870E+04  0.12206771870E+04  0.00000000000E+00 0. -1.
         23    2    1    2    0    0  0.45259290029E+03 -0.57293709619E+03  0.36847636524E+03  0.82267220745E+03  0.88980220127E+02 0.  0.
         11    1    3    3    0    0  0.20160451321E+03 -0.32664331741E+03  0.18798939580E+03  0.42741110127E+03  0.00000000000E+00 0.  1.
        -11    1    3    3    0    0  0.25098838709E+03 -0.24629377878E+03  0.18048696943E+03  0.39526110618E+03  0.00000000000E+00 0. -1.
         22    1    1    2    0    0 -0.45259290029E+03  0.57293709619E+03 -0.85944370472E+03  0.11277148271E+04  0.00000000000E+00 0. -1.
<mgrwt>
<rscale>  0 0.18875806E+04</rscale>
<asrwt>0</asrwt>
<pdfrwt beam="1">  1        2 0.18779649E+00 0.18875806E+04</pdfrwt>
<pdfrwt beam="2">  1       -2 0.11226305E+00 0.18875806E+04</pdfrwt>
<totfact> 0.10794522E+01</totfact>
</mgrwt>
</event>
<event>
 6    1  0.1603085E-006  0.2003449E+04  0.7818608E-02  0.8605010E-01
          1   -1    0    0  501    0  0.00000000000E+00  0.00000000000E+00  0.92972790658E+03  0.92972790658E+03  0.00000000000E+00 0. -1.
         -1   -1    0    0    0  501 -0.00000000000E+00 -0.00000000000E+00 -0.10792958565E+04  0.10792958565E+04  0.00000000000E+00 0.  1.
         23    2    1    2    0    0 -0.51992952593E+03  0.62300746830E+03 -0.66042252988E+03  0.10501507687E+04  0.90519067695E+02 0.  0.
         13    1    3    3    0    0 -0.28913142711E+03  0.41479771162E+03 -0.40439156904E+03  0.64744626404E+03  0.00000000000E+00 0.  1.
        -13    1    3    3    0    0 -0.23079809882E+03  0.20820975668E+03 -0.25603096084E+03  0.40270450470E+03  0.00000000000E+00 0. -1.
         22    1    1    2    0    0  0.51992952593E+03 -0.62300746830E+03  0.51085457994E+03  0.95887299437E+03  0.00000000000E+00 0. -1.
<mgrwt>
<rscale>  0 0.20034485E+04</rscale>
<asrwt>0</asrwt>
<pdfrwt beam="1">  1        1 0.14303506E+00 0.20034485E+04</pdfrwt>
<pdfrwt beam="2">  1       -1 0.16604552E+00 0.20034485E+04</pdfrwt>
<totfact> 0.42009116E+00</totfact>
</mgrwt>
</event>
<event>
 6    1  0.1603085E-006  0.2577395E+04  0.7818608E-02  0.8375921E-01
         -2   -1    0    0    0  501 -0.00000000000E+00  0.00000000000E+00  0.12490620437E+04  0.12490620437E+04  0.00000000000E+00 0.  1.
          2   -1    0    0  501    0  0.00000000000E+00 -0.00000000000E+00 -0.13295902544E+04  0.13295902544E+04  0.00000000000E+00 0. -1.
         23    2    1    2    0    0 -0.11268665437E+04  0.16846903997E+03  0.55892359528E+03  0.12720886231E+04  0.87200085980E+02 0.  0.
         11    1    3    3    0    0 -0.80807785275E+03  0.98961739238E+02  0.36182058797E+03  0.89089695241E+03  0.00000000000E+00 0.  1.
        -11    1    3    3    0    0 -0.31878869094E+03  0.69507300728E+02  0.19710300732E+03  0.38119167071E+03  0.00000000000E+00 0. -1.
         22    1    1    2    0    0  0.11268665437E+04 -0.16846903997E+03 -0.63945180590E+03  0.13065636750E+04  0.00000000000E+00 0. -1.
<mgrwt>
<rscale>  0 0.25773946E+04</rscale>
<asrwt>0</asrwt>
<pdfrwt beam="1">  1        2 0.20455235E+00 0.25773946E+04</pdfrwt>
<pdfrwt beam="2">  1       -2 0.19216339E+00 0.25773946E+04</pdfrwt>
<totfact> 0.21110035E+00</totfact>
</mgrwt>
</event>
<event>
 6    1  0.1603085E-006  0.2244246E+04  0.7818608E-02  0.8500234E-01
          2   -1    0    0  501    0  0.00000000000E+00  0.00000000000E+00  0.26968784265E+04  0.26968784265E+04  0.00000000000E+00 0. -1.
         -2   -1    0    0    0  501 -0.00000000000E+00 -0.00000000000E+00 -0.46689548327E+03  0.46689548327E+03  0.00000000000E+00 0.  1.
         23    2    1    2    0    0 -0.57303615027E+03  0.22904085467E+03 -0.20110443768E+03  0.65558412503E+03  0.92289801752E+02 0.  0.
         13    1    3    3    0    0 -0.43639954083E+03  0.15848455009E+03 -0.18916352806E+03  0.50134294869E+03  0.00000000000E+00 0.  1.
        -13    1    3    3    0    0 -0.13663660945E+03  0.70556304572E+02 -0.11940909622E+02  0.15424117634E+03  0.00000000000E+00 0. -1.
         22    1    1    2    0    0  0.57303615027E+03 -0.22904085467E+03  0.24310873809E+04  0.25081897847E+04  0.00000000000E+00 0. -1.
<mgrwt>
<rscale>  0 0.22442463E+04</rscale>
<asrwt>0</asrwt>
<pdfrwt beam="1">  1        2 0.41490436E+00 0.22442463E+04</pdfrwt>
<pdfrwt beam="2">  1       -2 0.71830076E-01 0.22442463E+04</pdfrwt>
<totfact> 0.42679726E+00</totfact>
</mgrwt>
</event>
<event>
 6    1  0.1603085E-006  0.2421705E+04  0.7818608E-02  0.8431422E-01
          2   -1    0    0  501    0  0.00000000000E+00  0.00000000000E+00  0.16793584300E+04  0.16793584300E+04  0.00000000000E+00 0. -1.
         -2   -1    0    0    0  501 -0.00000000000E+00 -0.00000000000E+00 -0.87304982670E+03  0.87304982670E+03  0.00000000000E+00 0.  1.
         23    2    1    2    0    0 -0.96884026339E+03  0.62006470493E+03  0.11046850107E+02  0.11539902397E+04  0.91868090994E+02 0.  0.
         13    1    3    3    0    0 -0.78235015580E+03  0.52585747076E+03  0.37425199297E+02  0.94339731364E+03  0.00000000000E+00 0. -1.
        -13    1    3    3    0    0 -0.18649010758E+03  0.94207234167E+02 -0.26378349190E+02  0.21059292605E+03  0.00000000000E+00 0.  1.
         22    1    1    2    0    0  0.96884026339E+03 -0.62006470493E+03  0.79526175321E+03  0.13984180170E+04  0.00000000000E+00 0.  1.
<mgrwt>
<rscale>  0 0.24217048E+04</rscale>
<asrwt>0</asrwt>
<pdfrwt beam="1">  1        2 0.25836283E+00 0.24217048E+04</pdfrwt>
<pdfrwt beam="2">  1       -2 0.13431536E+00 0.24217048E+04</pdfrwt>
<totfact> 0.36132540E+00</totfact>
</mgrwt>
</event>
<event>
 6    1  0.1603085E-006  0.7248760E+03  0.7818608E-02  0.9675612E-01
         -2   -1    0    0    0  501 -0.00000000000E+00  0.00000000000E+00  0.21021073558E+03  0.21021073558E+03  0.00000000000E+00 0.  1.
          2   -1    0    0  501    0  0.00000000000E+00 -0.00000000000E+00 -0.62490285224E+03  0.62490285224E+03  0.00000000000E+00 0. -1.
         23    2    1    2    0    0 -0.54812211833E+01 -0.82891127592E+02 -0.61020767603E+03  0.62268167690E+03  0.92076490183E+02 0.  0.
         11    1    3    3    0    0  0.40765492081E+02 -0.22090668738E+02 -0.27486922923E+03  0.27875242809E+03  0.00000000000E+00 0.  1.
        -11    1    3    3    0    0 -0.46246713264E+02 -0.60800458854E+02 -0.33533844680E+03  0.34392924881E+03  0.00000000000E+00 0. -1.
         22    1    1    2    0    0  0.54812211833E+01  0.82891127592E+02  0.19551555937E+03  0.21243191091E+03  0.00000000000E+00 0.  1.
<mgrwt>
<rscale>  0 0.72487596E+03</rscale>
<asrwt>0</asrwt>
<pdfrwt beam="1">  1        2 0.96138899E-01 0.72487596E+03</pdfrwt>
<pdfrwt beam="2">  1       -2 0.32340114E-01 0.72487596E+03</pdfrwt>
<totfact> 0.42289249E+02</totfact>
</mgrwt>
</event>
<event>
 6    1  0.1603085E-006  0.3210963E+04  0.7818608E-02  0.8185928E-01
          1   -1    0    0  501    0  0.00000000000E+00  0.00000000000E+00  0.10937822576E+04  0.10937822576E+04  0.00000000000E+00 0. -1.
         -1   -1    0    0    0  501 -0.00000000000E+00 -0.00000000000E+00 -0.23565666717E+04  0.23565666717E+04  0.00000000000E+00 0.  1.
         23    2    1    2    0    0  0.10540039012E+04  0.11198417466E+04 -0.11222729122E+04  0.19060972519E+04  0.93490550089E+02 0.  0.
         11    1    3    3    0    0  0.78408865380E+03  0.77502898523E+03 -0.82041282256E+03  0.13742423892E+04  0.00000000000E+00 0. -1.
        -11    1    3    3    0    0  0.26991524738E+03  0.34481276139E+03 -0.30186008962E+03  0.53185486262E+03  0.00000000000E+00 0.  1.
         22    1    1    2    0    0 -0.10540039012E+04 -0.11198417466E+04 -0.14051150190E+03  0.15442516775E+04  0.00000000000E+00 0. -1.
<mgrwt>
<rscale>  0 0.32109630E+04</rscale>
<asrwt>0</asrwt>
<pdfrwt beam="1">  1        1 0.16827420E+00 0.32109630E+04</pdfrwt>
<pdfrwt beam="2">  1       -1 0.36254871E+00 0.32109630E+04</pdfrwt>
<totfact> 0.13725226E-01</totfact>
</mgrwt>
</event>
<event>
 6    1  0.1603085E-006  0.2257206E+04  0.7818608E-02  0.8494988E-01
          2   -1    0    0  501    0  0.00000000000E+00  0.00000000000E+00  0.12819395667E+04  0.12819395667E+04  0.00000000000E+00 0. -1.
         -2   -1    0    0    0  501 -0.00000000000E+00 -0.00000000000E+00 -0.99360749512E+03  0.99360749512E+03  0.00000000000E+00 0.  1.
         23    2    1    2    0    0 -0.41967812003E+03 -0.53801739398E+03 -0.75955553912E+03  0.10250827939E+04  0.90981738420E+02 0.  0.
         13    1    3    3    0    0 -0.14595031087E+03 -0.16398095528E+03 -0.18653787976E+03  0.28807573228E+03  0.00000000000E+00 0. -1.
        -13    1    3    3    0    0 -0.27372780916E+03 -0.37403643870E+03 -0.57301765936E+03  0.73700706164E+03  0.00000000000E+00 0.  1.
         22    1    1    2    0    0  0.41967812003E+03  0.53801739398E+03  0.10478876107E+04  0.12504642679E+04  0.00000000000E+00 0. -1.
<mgrwt>
<rscale>  0 0.22572060E+04</rscale>
<asrwt>0</asrwt>
<pdfrwt beam="1">  1        2 0.19722147E+00 0.22572060E+04</pdfrwt>
<pdfrwt beam="2">  1       -2 0.15286269E+00 0.22572060E+04</pdfrwt>
<totfact> 0.43911787E+00</totfact>
</mgrwt>
</event>
<event>
 6    1  0.1603085E-006  0.2335504E+04  0.7818608E-02  0.8464053E-01
          1   -1    0    0  501    0  0.00000000000E+00  0.00000000000E+00  0.17621341114E+04  0.17621341114E+04  0.00000000000E+00 0. -1.
         -1   -1    0    0    0  501 -0.00000000000E+00 -0.00000000000E+00 -0.77385969899E+03  0.77385969899E+03  0.00000000000E+00 0.  1.
         23    2    1    2    0    0  0.60825633516E+03  0.53980377744E+03  0.14021781117E+04  0.16234807092E+04  0.90676726466E+02 0.  0.
         11    1    3    3    0    0  0.21866384985E+03  0.25341364559E+03  0.56572490117E+03  0.65732565658E+03  0.00000000000E+00 0.  1.
        -11    1    3    3    0    0  0.38959248531E+03  0.28639013185E+03  0.83645321057E+03  0.96615505262E+03  0.00000000000E+00 0. -1.
         22    1    1    2    0    0 -0.60825633516E+03 -0.53980377744E+03 -0.41390369937E+03  0.91251310114E+03  0.00000000000E+00 0.  1.
<mgrwt>
<rscale>  0 0.23355039E+04</rscale>
<asrwt>0</asrwt>
<pdfrwt beam="1">  1        1 0.27109756E+00 0.23355039E+04</pdfrwt>
<pdfrwt beam="2">  1       -1 0.11905534E+00 0.23355039E+04</pdfrwt>
<totfact> 0.24586418E+00</totfact>
</mgrwt>
</event>
<event>
 6    1  0.1603085E-006  0.1249114E+04  0.7818608E-02  0.9070921E-01
         -1   -1    0    0    0  501 -0.00000000000E+00  0.00000000000E+00  0.38187826003E+03  0.38187826003E+03  0.00000000000E+00 0.  1.
          1   -1    0    0  501    0  0.00000000000E+00 -0.00000000000E+00 -0.10214543532E+04  0.10214543532E+04  0.00000000000E+00 0. -1.
         23    2    1    2    0    0 -0.22475473017E+02  0.42770927664E+03  0.18394156323E+03  0.47509681204E+03  0.91880955134E+02 0.  0.
         13    1    3    3    0    0 -0.34843271975E+02  0.30929896747E+03  0.91677394095E+02  0.32447596131E+03  0.00000000000E+00 0.  1.
        -13    1    3    3    0    0  0.12367798958E+02  0.11841030917E+03  0.92264169130E+02  0.15062085073E+03  0.00000000000E+00 0. -1.
         22    1    1    2    0    0  0.22475473017E+02 -0.42770927664E+03 -0.82351765639E+03  0.92823580118E+03  0.00000000000E+00 0. -1.
<mgrwt>
<rscale>  0 0.12491136E+04</rscale>
<asrwt>0</asrwt>
<pdfrwt beam="1">  1        1 0.15714682E+00 0.12491136E+04</pdfrwt>
<pdfrwt beam="2">  1       -1 0.58750502E-01 0.12491136E+04</pdfrwt>
<totfact> 0.42159619E+01</totfact>
</mgrwt>
</event>
<event>
 6    1  0.1603085E-006  0.3675198E+04  0.7818608E-02  0.8073481E-01
         -3   -1    0    0    0  501 -0.00000000000E+00  0.00000000000E+00  0.10196070473E+04  0.10196070473E+04  0.00000000000E+00 0.  1.
          3   -1    0    0  501    0  0.00000000000E+00 -0.00000000000E+00 -0.33118345399E+04  0.33118345399E+04  0.00000000000E+00 0. -1.
         23    2    1    2    0    0 -0.48055335136E+03  0.27566390815E+03 -0.32103964138E+04  0.32590814418E+04  0.89691677200E+02 0.  0.
         13    1    3    3    0    0 -0.31545053690E+03  0.22633110167E+03 -0.21492900467E+04  0.21840747500E+04  0.00000000000E+00 0. -1.
        -13    1    3    3    0    0 -0.16510281446E+03  0.49332806479E+02 -0.10611063670E+04  0.10750066917E+04  0.00000000000E+00 0.  1.
         22    1    1    2    0    0  0.48055335136E+03 -0.27566390815E+03  0.91816892115E+03  0.10723601454E+04  0.00000000000E+00 0.  1.
<mgrwt>
<rscale>  0 0.36751979E+04</rscale>
<asrwt>0</asrwt>
<pdfrwt beam="1">  1        3 0.50951302E+00 0.36751979E+04</pdfrwt>
<pdfrwt beam="2">  1       -3 0.15686262E+00 0.36751979E+04</pdfrwt>
<totfact> 0.18497921E-03</totfact>
</mgrwt>
</event>
<event>
 6    1  0.1603085E-006  0.1145355E+04  0.7818608E-02  0.9162080E-01
         -2   -1    0    0    0  501 -0.00000000000E+00  0.00000000000E+00  0.10166879879E+04  0.10166879879E+04  0.00000000000E+00 0.  1.
          2   -1    0    0  501    0  0.00000000000E+00 -0.00000000000E+00 -0.32257622766E+03  0.32257622766E+03  0.00000000000E+00 0. -1.
         23    2    1    2    0    0 -0.75758057870E+02 -0.37319762751E+03 -0.14495341504E+03  0.41782722864E+03  0.92478905444E+02 0.  0.
         13    1    3    3    0    0 -0.80688055823E+02 -0.27619682973E+03 -0.72729004603E+02  0.29679076673E+03  0.00000000000E+00 0. -1.
        -13    1    3    3    0    0  0.49299979534E+01 -0.97000797785E+02 -0.72224410434E+02  0.12103646192E+03  0.00000000000E+00 0.  1.
         22    1    1    2    0    0  0.75758057870E+02  0.37319762751E+03  0.83906517532E+03  0.92143698696E+03  0.00000000000E+00 0.  1.
<mgrwt>
<rscale>  0 0.11453548E+04</rscale>
<asrwt>0</asrwt>
<pdfrwt beam="1">  1        2 0.49627112E-01 0.11453548E+04</pdfrwt>
<pdfrwt beam="2">  1       -2 0.15641354E+00 0.11453548E+04</pdfrwt>
<totfact> 0.26823789E+01</totfact>
</mgrwt>
</event>
<event>
 6    1  0.1603085E-006  0.2787971E+04  0.7818608E-02  0.8307013E-01
          2   -1    0    0  501    0  0.00000000000E+00  0.00000000000E+00  0.19733613299E+04  0.19733613299E+04  0.00000000000E+00 0.  1.
         -2   -1    0    0    0  501 -0.00000000000E+00 -0.00000000000E+00 -0.98471334935E+03  0.98471334935E+03  0.00000000000E+00 0. -1.
         23    2    1    2    0    0 -0.38777225998E+03  0.83025686219E+03 -0.61758054112E+03  0.11088413661E+04  0.91813220792E+02 0.  0.
         11    1    3    3    0    0 -0.32840426655E+03  0.61173462335E+03 -0.45615900898E+03  0.83075246203E+03  0.00000000000E+00 0. -1.
        -11    1    3    3    0    0 -0.59367993425E+02  0.21852223883E+03 -0.16142153214E+03  0.27808890403E+03  0.00000000000E+00 0.  1.
         22    1    1    2    0    0  0.38777225998E+03 -0.83025686219E+03  0.16062285217E+04  0.18492333132E+04  0.00000000000E+00 0.  1.
<mgrwt>
<rscale>  0 0.27879708E+04</rscale>
<asrwt>0</asrwt>
<pdfrwt beam="1">  1        2 0.30359405E+00 0.27879708E+04</pdfrwt>
<pdfrwt beam="2">  1       -2 0.15149436E+00 0.27879708E+04</pdfrwt>
<totfact> 0.17573665E+00</totfact>
</mgrwt>
</event>
<event>
 6    1  0.1603085E-006  0.2550600E+04  0.7818608E-02  0.8385178E-01
          2   -1    0    0  501    0  0.00000000000E+00  0.00000000000E+00  0.36279843439E+04  0.36279843439E+04  0.00000000000E+00 0.  1.
         -2   -1    0    0    0  501 -0.00000000000E+00 -0.00000000000E+00 -0.44829017718E+03  0.44829017718E+03  0.00000000000E+00 0. -1.
         23    2    1    2    0    0 -0.11912885022E+03  0.12676531876E+04  0.16604563431E+04  0.20940485370E+04  0.82387626433E+02 0.  0.
         13    1    3    3    0    0 -0.72572089761E+02  0.61353401258E+03  0.86860181107E+03  0.10659079693E+04  0.00000000000E+00 0. -1.
        -13    1    3    3    0    0 -0.46556760455E+02  0.65411917506E+03  0.79185453206E+03  0.10281405678E+04  0.00000000000E+00 0.  1.
         22    1    1    2    0    0  0.11912885022E+03 -0.12676531876E+04  0.15192378236E+04  0.19822259840E+04  0.00000000000E+00 0. -1.
<mgrwt>
<rscale>  0 0.25505997E+04</rscale>
<asrwt>0</asrwt>
<pdfrwt beam="1">  1        2 0.55815142E+00 0.25505997E+04</pdfrwt>
<pdfrwt beam="2">  1       -2 0.68967722E-01 0.25505997E+04</pdfrwt>
<totfact> 0.11254988E+00</totfact>
</mgrwt>
</event>
<event>
 6    1  0.1603085E-006  0.1435213E+04  0.7818608E-02  0.8928717E-01
         -2   -1    0    0    0  501 -0.00000000000E+00  0.00000000000E+00  0.27399698558E+03  0.27399698558E+03  0.00000000000E+00 0.  1.
          2   -1    0    0  501    0  0.00000000000E+00 -0.00000000000E+00 -0.18794341654E+04  0.18794341654E+04  0.00000000000E+00 0. -1.
         23    2    1    2    0    0  0.30672133757E+03  0.32705213617E+03  0.28961693455E+02  0.45864480584E+03  0.92060846941E+02 0.  0.
         13    1    3    3    0    0  0.22490448321E+03  0.28515712712E+03  0.32241346521E+01  0.36319004496E+03  0.00000000000E+00 0. -1.
        -13    1    3    3    0    0  0.81816854362E+02  0.41895009053E+02  0.25737558803E+02  0.95454760879E+02  0.00000000000E+00 0.  1.
         22    1    1    2    0    0 -0.30672133757E+03 -0.32705213617E+03 -0.16343988733E+04  0.16947863451E+04  0.00000000000E+00 0. -1.
<mgrwt>
<rscale>  0 0.14352133E+04</rscale>
<asrwt>0</asrwt>
<pdfrwt beam="1">  1        2 0.28914372E+00 0.14352133E+04</pdfrwt>
<pdfrwt beam="2">  1       -2 0.42153382E-01 0.14352133E+04</pdfrwt>
<totfact> 0.40375696E+01</totfact>
</mgrwt>
</event>
<event>
 6    1  0.1603085E-006  0.1941795E+04  0.7818608E-02  0.8634327E-01
         -2   -1    0    0    0  501 -0.00000000000E+00  0.00000000000E+00  0.28448051262E+03  0.28448051262E+03  0.00000000000E+00 0.  1.
          2   -1    0    0  501    0  0.00000000000E+00 -0.00000000000E+00 -0.33135558793E+04  0.33135558793E+04  0.00000000000E+00 0. -1.
         23    2    1    2    0    0 -0.37888631077E+03  0.68618754980E+03 -0.46611483430E+03  0.91789182857E+03  0.10418339698E+03 0.  0.
         11    1    3    3    0    0 -0.26578118139E+03  0.43480985687E+03 -0.25002400518E+03  0.56763654848E+03  0.00000000000E+00 0. -1.
        -11    1    3    3    0    0 -0.11310512939E+03  0.25137769293E+03 -0.21609082912E+03  0.35025528008E+03  0.00000000000E+00 0.  1.
         22    1    1    2    0    0  0.37888631077E+03 -0.68618754980E+03 -0.25629605324E+04  0.26801445634E+04  0.00000000000E+00 0. -1.
<mgrwt>
<rscale>  0 0.19417951E+04</rscale>
<asrwt>0</asrwt>
<pdfrwt beam="1">  1        2 0.50977782E+00 0.19417951E+04</pdfrwt>
<pdfrwt beam="2">  1       -2 0.43766233E-01 0.19417951E+04</pdfrwt>
<totfact> 0.50652016E+00</totfact>
</mgrwt>
</event>
<event>
 6    1  0.1603085E-006  0.3088692E+04  0.7818608E-02  0.8218848E-01
         -1   -1    0    0    0  501 -0.00000000000E+00  0.00000000000E+00  0.18253036178E+04  0.18253036178E+04  0.00000000000E+00 0. -1.
          1   -1    0    0  501    0  0.00000000000E+00 -0.00000000000E+00 -0.13066340164E+04  0.13066340164E+04  0.00000000000E+00 0.  1.
         23    2    1    2    0    0  0.21446358577E+03 -0.40828982783E+03  0.17526355301E+04  0.18146042951E+04  0.91445247655E+02 0.  0.
         13    1    3    3    0    0  0.75857651152E+02 -0.24228945259E+03  0.95521255682E+03  0.98837725125E+03  0.00000000000E+00 0. -1.
        -13    1    3    3    0    0  0.13860593461E+03 -0.16600037524E+03  0.79742297328E+03  0.82622704386E+03  0.00000000000E+00 0.  1.
         22    1    1    2    0    0 -0.21446358577E+03  0.40828982783E+03 -0.12339659287E+04  0.13173333391E+04  0.00000000000E+00 0.  1.
<mgrwt>
<rscale>  0 0.30886915E+04</rscale>
<asrwt>0</asrwt>
<pdfrwt beam="1">  1        1 0.20102062E+00 0.30886915E+04</pdfrwt>
<pdfrwt beam="2">  1       -1 0.28081594E+00 0.30886915E+04</pdfrwt>
<totfact> 0.33225630E-01</totfact>
</mgrwt>
</event>
<event>
 6    1  0.1603085E-006  0.3131257E+04  0.7818608E-02  0.8207212E-01
         -2   -1    0    0    0  501 -0.00000000000E+00  0.00000000000E+00  0.90292186703E+03  0.90292186703E+03  0.00000000000E+00 0.  1.
          2   -1    0    0  501    0  0.00000000000E+00 -0.00000000000E+00 -0.27147332777E+04  0.27147332777E+04  0.00000000000E+00 0. -1.
         23    2    1    2    0    0  0.41582686719E+03 -0.88002235613E+03 -0.23215503989E+04  0.25189353593E+04  0.89931968355E+02 0.  0.
         11    1    3    3    0    0  0.20999207520E+03 -0.43360856260E+03 -0.12644446391E+04  0.13531198404E+04  0.00000000000E+00 0.  1.
        -11    1    3    3    0    0  0.20583479199E+03 -0.44641379353E+03 -0.10571057599E+04  0.11658155189E+04  0.00000000000E+00 0. -1.
         22    1    1    2    0    0 -0.41582686719E+03  0.88002235613E+03  0.50973898824E+03  0.10987197854E+04  0.00000000000E+00 0.  1.
<mgrwt>
<rscale>  0 0.31312566E+04</rscale>
<asrwt>0</asrwt>
<pdfrwt beam="1">  1        2 0.41765127E+00 0.31312566E+04</pdfrwt>
<pdfrwt beam="2">  1       -2 0.13891106E+00 0.31312566E+04</pdfrwt>
<totfact> 0.80739346E-01</totfact>
</mgrwt>
</event>
<event>
 6    1  0.1603085E-006  0.1908942E+04  0.7818608E-02  0.8650418E-01
          1   -1    0    0  501    0  0.00000000000E+00  0.00000000000E+00  0.11356311430E+04  0.11356311430E+04  0.00000000000E+00 0. -1.
         -1   -1    0    0    0  501 -0.00000000000E+00 -0.00000000000E+00 -0.80221002320E+03  0.80221002320E+03  0.00000000000E+00 0.  1.
         23    2    1    2    0    0  0.43536728097E+03  0.54543768326E+03 -0.49178480385E+03  0.85709524228E+03  0.75584557804E+02 0.  0.
         13    1    3    3    0    0  0.10767476808E+03  0.94343646096E+02 -0.80328094107E+02  0.16415596834E+03  0.00000000000E+00 0. -1.
        -13    1    3    3    0    0  0.32769251289E+03  0.45109403716E+03 -0.41145670974E+03  0.69293927393E+03  0.00000000000E+00 0.  1.
         22    1    1    2    0    0 -0.43536728097E+03 -0.54543768326E+03  0.82520592362E+03  0.10807459239E+04  0.00000000000E+00 0. -1.
<mgrwt>
<rscale>  0 0.19089418E+04</rscale>
<asrwt>0</asrwt>
<pdfrwt beam="1">  1        1 0.17471248E+00 0.19089418E+04</pdfrwt>
<pdfrwt beam="2">  1       -1 0.12341693E+00 0.19089418E+04</pdfrwt>
<totfact> 0.64393241E+00</totfact>
</mgrwt>
</event>
<event>
 6    1  0.1603085E-006  0.2092669E+04  0.7818608E-02  0.8564480E-01
         -1   -1    0    0    0  501 -0.00000000000E+00  0.00000000000E+00  0.47798782900E+03  0.47798782900E+03  0.00000000000E+00 0.  1.
          1   -1    0    0  501    0  0.00000000000E+00 -0.00000000000E+00 -0.22904672915E+04  0.22904672915E+04  0.00000000000E+00 0. -1.
         23    2    1    2    0    0  0.28408271241E+03  0.29597653967E+03  0.36263456013E+03  0.55499039050E+03  0.90583717224E+02 0.  0.
         13    1    3    3    0    0  0.64757663918E+02  0.78659350820E+02  0.14509687621E+03  0.17729622667E+03  0.00000000000E+00 0. -1.
        -13    1    3    3    0    0  0.21932504849E+03  0.21731718885E+03  0.21753768392E+03  0.37769416383E+03  0.00000000000E+00 0.  1.
         22    1    1    2    0    0 -0.28408271241E+03 -0.29597653967E+03 -0.21751140226E+04  0.22134647300E+04  0.00000000000E+00 0. -1.
<mgrwt>
<rscale>  0 0.20926686E+04</rscale>
<asrwt>0</asrwt>
<pdfrwt beam="1">  1        1 0.35237958E+00 0.20926686E+04</pdfrwt>
<pdfrwt beam="2">  1       -1 0.73536589E-01 0.20926686E+04</pdfrwt>
<totfact> 0.32393795E+00</totfact>
</mgrwt>
</event>
<event>
 6    1  0.1603085E-006  0.3203227E+04  0.7818608E-02  0.8187965E-01
          3   -1    0    0  501    0  0.00000000000E+00  0.00000000000E+00  0.17289902073E+04  0.17289902073E+04  0.00000000000E+00 0. -1.
         -3   -1    0    0    0  501 -0.00000000000E+00 -0.00000000000E+00 -0.14836212390E+04  0.14836212390E+04  0.00000000000E+00 0.  1.
         23    2    1    2    0    0 -0.14725865545E+04 -0.32409949505E+03 -0.41523598222E+03  0.15664187043E+04  0.87721110139E+02 0.  0.
         13    1    3    3    0    0 -0.81084745087E+03 -0.14642231209E+03 -0.25828317574E+03  0.86349480655E+03  0.00000000000E+00 0. -1.
        -13    1    3    3    0    0 -0.66173910361E+03 -0.17767718296E+03 -0.15695280648E+03  0.70292389777E+03  0.00000000000E+00 0.  1.
         22    1    1    2    0    0  0.14725865545E+04  0.32409949505E+03  0.66060495046E+03  0.16461927420E+04  0.00000000000E+00 0. -1.
<mgrwt>
<rscale>  0 0.32032275E+04</rscale>
<asrwt>0</asrwt>
<pdfrwt beam="1">  1        3 0.26599849E+00 0.32032275E+04</pdfrwt>
<pdfrwt beam="2">  1       -3 0.22824942E+00 0.32032275E+04</pdfrwt>
<totfact> 0.12816165E-02</totfact>
</mgrwt>
</event>
<event>
 6    1  0.1603085E-006  0.1275909E+04  0.7818608E-02  0.9048890E-01
          2   -1    0    0  501    0  0.00000000000E+00  0.00000000000E+00  0.32834185090E+03  0.32834185090E+03  0.00000000000E+00 0. -1.
         -2   -1    0    0    0  501 -0.00000000000E+00 -0.00000000000E+00 -0.12395196241E+04  0.12395196241E+04  0.00000000000E+00 0.  1.
         23    2    1    2    0    0 -0.44951787245E+03 -0.71197417860E+02  0.84945092496E+02  0.47269201161E+03  0.95324074292E+02 0.  0.
         13    1    3    3    0    0 -0.37492532961E+03 -0.67725718562E+02  0.34447862379E+02  0.38254729245E+03  0.00000000000E+00 0.  1.
        -13    1    3    3    0    0 -0.74592542846E+02 -0.34716992979E+01  0.50497230117E+02  0.90144719167E+02  0.00000000000E+00 0. -1.
         22    1    1    2    0    0  0.44951787245E+03  0.71197417860E+02 -0.99612286574E+03  0.10951694634E+04  0.00000000000E+00 0.  1.
<mgrwt>
<rscale>  0 0.12759094E+04</rscale>
<asrwt>0</asrwt>
<pdfrwt beam="1">  1        2 0.50514131E-01 0.12759094E+04</pdfrwt>
<pdfrwt beam="2">  1       -2 0.19069533E+00 0.12759094E+04</pdfrwt>
<totfact> 0.14928500E+01</totfact>
</mgrwt>
</event>
<event>
 6    1  0.1603085E-006  0.2020746E+04  0.7818608E-02  0.8596982E-01
         -1   -1    0    0    0  501 -0.00000000000E+00  0.00000000000E+00  0.47191048681E+03  0.47191048681E+03  0.00000000000E+00 0.  1.
          1   -1    0    0  501    0  0.00000000000E+00 -0.00000000000E+00 -0.21632349402E+04  0.21632349402E+04  0.00000000000E+00 0. -1.
         23    2    1    2    0    0  0.11078796353E+03 -0.75038360695E+03  0.18832519675E+02  0.76432036759E+03  0.92094679940E+02 0.  0.
         11    1    3    3    0    0  0.62380326495E+01 -0.10539123486E+03 -0.28023410288E+02  0.10923157493E+03  0.00000000000E+00 0. -1.
        -11    1    3    3    0    0  0.10454993088E+03 -0.64499237209E+03  0.46855929963E+02  0.65508879266E+03  0.00000000000E+00 0.  1.
         22    1    1    2    0    0 -0.11078796353E+03  0.75038360695E+03 -0.17101569731E+04  0.18708250594E+04  0.00000000000E+00 0. -1.
<mgrwt>
<rscale>  0 0.20207457E+04</rscale>
<asrwt>0</asrwt>
<pdfrwt beam="1">  1        1 0.33280538E+00 0.20207457E+04</pdfrwt>
<pdfrwt beam="2">  1       -1 0.72601613E-01 0.20207457E+04</pdfrwt>
<totfact> 0.40891493E+00</totfact>
</mgrwt>
</event>
<event>
 6    1  0.1603085E-006  0.2150373E+04  0.7818608E-02  0.8539373E-01
          2   -1    0    0  501    0  0.00000000000E+00  0.00000000000E+00  0.10480256813E+04  0.10480256813E+04  0.00000000000E+00 0.  1.
         -2   -1    0    0    0  501 -0.00000000000E+00 -0.00000000000E+00 -0.11030508195E+04  0.11030508195E+04  0.00000000000E+00 0. -1.
         23    2    1    2    0    0 -0.22871554040E+03 -0.41082510561E+02  0.10204901776E+04  0.10507439305E+04  0.93080791509E+02 0.  0.
         13    1    3    3    0    0 -0.15528345082E+02  0.13141614077E+02  0.20832211973E+03  0.20931301223E+03  0.00000000000E+00 0. -1.
        -13    1    3    3    0    0 -0.21318719532E+03 -0.54224124639E+02  0.81216805785E+03  0.84143091822E+03  0.00000000000E+00 0.  1.
         22    1    1    2    0    0  0.22871554040E+03  0.41082510561E+02 -0.10755153158E+04  0.11003325704E+04  0.00000000000E+00 0. -1.
<mgrwt>
<rscale>  0 0.21503726E+04</rscale>
<asrwt>0</asrwt>
<pdfrwt beam="1">  1        2 0.16123472E+00 0.21503726E+04</pdfrwt>
<pdfrwt beam="2">  1       -2 0.16970013E+00 0.21503726E+04</pdfrwt>
<totfact> 0.46140473E+00</totfact>
</mgrwt>
</event>
<event>
 6    1  0.1603085E-006  0.1960295E+04  0.7818608E-02  0.8625412E-01
          2   -1    0    0  501    0  0.00000000000E+00  0.00000000000E+00  0.56816788926E+03  0.56816788926E+03  0.00000000000E+00 0. -1.
         -2   -1    0    0    0  501 -0.00000000000E+00 -0.00000000000E+00 -0.16908547178E+04  0.16908547178E+04  0.00000000000E+00 0.  1.
         23    2    1    2    0    0 -0.22721411624E+03 -0.31841414514E+03 -0.15954987063E+04  0.16453737709E+04  0.92870348104E+02 0.  0.
         13    1    3    3    0    0 -0.20221348207E+03 -0.21306455783E+03 -0.11733168452E+04  0.12095285103E+04  0.00000000000E+00 0.  1.
        -13    1    3    3    0    0 -0.25000634177E+02 -0.10534958730E+03 -0.42218186115E+03  0.43584526055E+03  0.00000000000E+00 0. -1.
         22    1    1    2    0    0  0.22721411624E+03  0.31841414514E+03  0.47281187775E+03  0.61364883621E+03  0.00000000000E+00 0. -1.
<mgrwt>
<rscale>  0 0.19602952E+04</rscale>
<asrwt>0</asrwt>
<pdfrwt beam="1">  1        2 0.87410444E-01 0.19602952E+04</pdfrwt>
<pdfrwt beam="2">  1       -2 0.26013150E+00 0.19602952E+04</pdfrwt>
<totfact> 0.27490296E+00</totfact>
</mgrwt>
</event>
<event>
 6    1  0.1603085E-006  0.6858433E+04  0.7818608E-02  0.7592214E-01
          2   -1    0    0  501    0  0.00000000000E+00  0.00000000000E+00  0.44994587035E+04  0.44994587035E+04  0.00000000000E+00 0. -1.
         -2   -1    0    0    0  501 -0.00000000000E+00 -0.00000000000E+00 -0.26135422048E+04  0.26135422048E+04  0.00000000000E+00 0.  1.
         23    2    1    2    0    0  0.12625094060E+04  0.30848420386E+04  0.17761037057E+04  0.37779987714E+04  0.92465886203E+02 0.  0.
         13    1    3    3    0    0  0.29793659805E+03  0.68446230125E+03  0.35856780124E+03  0.82814595717E+03  0.00000000000E+00 0.  1.
        -13    1    3    3    0    0  0.96457280796E+03  0.24003797373E+04  0.14175359045E+04  0.29498528142E+04  0.00000000000E+00 0. -1.
         22    1    1    2    0    0 -0.12625094060E+04 -0.30848420386E+04  0.10981279297E+03  0.33350021368E+04  0.00000000000E+00 0. -1.
<mgrwt>
<rscale>  0 0.68584328E+04</rscale>
<asrwt>0</asrwt>
<pdfrwt beam="1">  1        2 0.69222442E+00 0.68584328E+04</pdfrwt>
<pdfrwt beam="2">  1       -2 0.40208342E+00 0.68584328E+04</pdfrwt>
<totfact> 0.55234086E-04</totfact>
</mgrwt>
</event>
<event>
 6    1  0.1603085E-006  0.9340420E+03  0.7818608E-02  0.9384000E-01
         -2   -1    0    0    0  501 -0.00000000000E+00  0.00000000000E+00  0.82992300049E+03  0.82992300049E+03  0.00000000000E+00 0.  1.
          2   -1    0    0  501    0  0.00000000000E+00 -0.00000000000E+00 -0.26280584790E+03  0.26280584790E+03  0.00000000000E+00 0. -1.
         23    2    1    2    0    0 -0.10173129368E+02 -0.22573644712E+03  0.75881494327E+03  0.79640389319E+03  0.86015154755E+02 0.  0.
         13    1    3    3    0    0 -0.24403417158E+02 -0.19788325019E+03  0.54525258070E+03  0.58056324740E+03  0.00000000000E+00 0. -1.
        -13    1    3    3    0    0  0.14230287790E+02 -0.27853196929E+02  0.21356236257E+03  0.21584064579E+03  0.00000000000E+00 0.  1.
         22    1    1    2    0    0  0.10173129368E+02  0.22573644712E+03 -0.19169779069E+03  0.29632495520E+03  0.00000000000E+00 0. -1.
<mgrwt>
<rscale>  0 0.93404201E+03</rscale>
<asrwt>0</asrwt>
<pdfrwt beam="1">  1        2 0.40431669E-01 0.93404201E+03</pdfrwt>
<pdfrwt beam="2">  1       -2 0.12768046E+00 0.93404201E+03</pdfrwt>
<totfact> 0.57911596E+01</totfact>
</mgrwt>
</event>
<event>
 6    1  0.1603085E-006  0.3773769E+04  0.7818608E-02  0.8051807E-01
          2   -1    0    0  501    0  0.00000000000E+00  0.00000000000E+00  0.16113501455E+04  0.16113501455E+04  0.00000000000E+00 0. -1.
         -2   -1    0    0    0  501 -0.00000000000E+00 -0.00000000000E+00 -0.22095344334E+04  0.22095344334E+04  0.00000000000E+00 0.  1.
         23    2    1    2    0    0 -0.10255059157E+04 -0.13674397840E+03  0.12970883582E+04  0.16616208846E+04  0.90467984363E+02 0.  0.
         11    1    3    3    0    0 -0.17364802317E+03  0.10821761772E+02  0.21815643572E+03  0.27903938239E+03  0.00000000000E+00 0.  1.
        -11    1    3    3    0    0 -0.85185789256E+03 -0.14756574017E+03  0.10789319225E+04  0.13825815022E+04  0.00000000000E+00 0. -1.
         22    1    1    2    0    0  0.10255059157E+04  0.13674397840E+03 -0.18952726461E+04  0.21592636944E+04  0.00000000000E+00 0.  1.
<mgrwt>
<rscale>  0 0.37737693E+04</rscale>
<asrwt>0</asrwt>
<pdfrwt beam="1">  1        2 0.24790002E+00 0.37737693E+04</pdfrwt>
<pdfrwt beam="2">  1       -2 0.33992837E+00 0.37737693E+04</pdfrwt>
<totfact> 0.15890565E-01</totfact>
</mgrwt>
</event>
<event>
 6    1  0.1603085E-006  0.3816509E+04  0.7818608E-02  0.8042621E-01
          2   -1    0    0  501    0  0.00000000000E+00  0.00000000000E+00  0.31574625683E+04  0.31574625683E+04  0.00000000000E+00 0.  1.
         -2   -1    0    0    0  501 -0.00000000000E+00 -0.00000000000E+00 -0.11532788560E+04  0.11532788560E+04  0.00000000000E+00 0. -1.
         23    2    1    2    0    0  0.40699371390E+03 -0.13270092799E+04  0.24799885027E+04  0.28434351473E+04  0.90459666114E+02 0.  0.
         11    1    3    3    0    0  0.24981603176E+03 -0.77302154304E+03  0.13627911214E+04  0.15865591689E+04  0.00000000000E+00 0. -1.
        -11    1    3    3    0    0  0.15717768214E+03 -0.55398773682E+03  0.11171973813E+04  0.12568759784E+04  0.00000000000E+00 0.  1.
         22    1    1    2    0    0 -0.40699371390E+03  0.13270092799E+04 -0.47580479043E+03  0.14673062770E+04  0.00000000000E+00 0. -1.
<mgrwt>
<rscale>  0 0.38165088E+04</rscale>
<asrwt>0</asrwt>
<pdfrwt beam="1">  1        2 0.48576347E+00 0.38165088E+04</pdfrwt>
<pdfrwt beam="2">  1       -2 0.17742752E+00 0.38165088E+04</pdfrwt>
<totfact> 0.20889091E-01</totfact>
</mgrwt>
</event>
<event>
 6    1  0.1603085E-006  0.7346201E+03  0.7818608E-02  0.9659793E-01
          1   -1    0    0  501    0  0.00000000000E+00  0.00000000000E+00  0.13363262646E+04  0.13363262646E+04  0.00000000000E+00 0. -1.
         -1   -1    0    0    0  501 -0.00000000000E+00 -0.00000000000E+00 -0.10096088161E+03  0.10096088161E+03  0.00000000000E+00 0.  1.
         23    2    1    2    0    0  0.28408224483E+03 -0.16571362971E+03  0.91780329575E+03  0.98011167865E+03  0.10046036045E+03 0.  0.
         11    1    3    3    0    0  0.14626373056E+03 -0.13963241125E+03  0.49769362605E+03  0.53720502098E+03  0.00000000000E+00 0. -1.
        -11    1    3    3    0    0  0.13781851427E+03 -0.26081218467E+02  0.42010966970E+03  0.44290665767E+03  0.00000000000E+00 0.  1.
         22    1    1    2    0    0 -0.28408224483E+03  0.16571362971E+03  0.31756208727E+03  0.45717546760E+03  0.00000000000E+00 0.  1.
<mgrwt>
<rscale>  0 0.73462011E+03</rscale>
<asrwt>0</asrwt>
<pdfrwt beam="1">  1        1 0.20558864E+00 0.73462011E+03</pdfrwt>
<pdfrwt beam="2">  1       -1 0.15532444E-01 0.73462011E+03</pdfrwt>
<totfact> 0.26910972E+02</totfact>
</mgrwt>
</event>
<event>
 6    1  0.1603085E-006  0.5916697E+04  0.7818608E-02  0.7700817E-01
         -2   -1    0    0    0  501 -0.00000000000E+00  0.00000000000E+00  0.35836700960E+04  0.35836700960E+04  0.00000000000E+00 0.  1.
          2   -1    0    0  501    0  0.00000000000E+00 -0.00000000000E+00 -0.24421407667E+04  0.24421407667E+04  0.00000000000E+00 0. -1.
         23    2    1    2    0    0  0.12940800055E+04  0.25773755523E+04 -0.97089166714E+02  0.28870716928E+04  0.90823208533E+02 0.  0.
         11    1    3    3    0    0  0.25704686793E+03  0.55233968361E+03  0.11835717497E+02  0.60933759330E+03  0.00000000000E+00 0. -1.
        -11    1    3    3    0    0  0.10370331376E+04  0.20250358686E+04 -0.10892488421E+03  0.22777340995E+04  0.00000000000E+00 0.  1.
         22    1    1    2    0    0 -0.12940800055E+04 -0.25773755523E+04  0.12386184960E+04  0.31387391699E+04  0.00000000000E+00 0.  1.
<mgrwt>
<rscale>  0 0.59166973E+04</rscale>
<asrwt>0</asrwt>
<pdfrwt beam="1">  1        2 0.37571396E+00 0.59166973E+04</pdfrwt>
<pdfrwt beam="2">  1       -2 0.55133386E+00 0.59166973E+04</pdfrwt>
<totfact> 0.21786309E-03</totfact>
</mgrwt>
</event>
<event>
 6    1  0.1612036E-006  0.2305295E+04  0.7818608E-02  0.8475836E-01
         -2   -1    0    0    0  501 -0.00000000000E+00  0.00000000000E+00  0.61154013517E+03  0.61154013517E+03  0.00000000000E+00 0.  1.
          2   -1    0    0  501    0  0.00000000000E+00 -0.00000000000E+00 -0.21725412403E+04  0.21725412403E+04  0.00000000000E+00 0. -1.
         23    2    1    2    0    0 -0.61961715101E+03 -0.13876890211E+03 -0.19408734828E+04  0.20441589165E+04  0.91725555124E+02 0.  0.
         13    1    3    3    0    0 -0.36295320649E+03 -0.81073758981E+02 -0.98935278075E+03  0.10569422450E+04  0.00000000000E+00 0.  1.
        -13    1    3    3    0    0 -0.25666394452E+03 -0.57695143133E+02 -0.95152070208E+03  0.98721667148E+03  0.00000000000E+00 0. -1.
         22    1    1    2    0    0  0.61961715101E+03  0.13876890211E+03  0.37987237767E+03  0.73992245901E+03  0.00000000000E+00 0.  1.
<mgrwt>
<rscale>  0 0.23052949E+04</rscale>
<asrwt>0</asrwt>
<pdfrwt beam="1">  1        2 0.33423712E+00 0.23052949E+04</pdfrwt>
<pdfrwt beam="2">  1       -2 0.94083097E-01 0.23052949E+04</pdfrwt>
<totfact> 0.46222622E+00</totfact>
</mgrwt>
</event>
<event>
 6    1  0.1603085E-006  0.2027972E+04  0.7818608E-02  0.8593653E-01
         -1   -1    0    0    0  501 -0.00000000000E+00  0.00000000000E+00  0.24805758492E+04  0.24805758492E+04  0.00000000000E+00 0.  1.
          1   -1    0    0  501    0  0.00000000000E+00 -0.00000000000E+00 -0.41448738798E+03  0.41448738798E+03  0.00000000000E+00 0. -1.
         23    2    1    2    0    0  0.87360425322E+03  0.31181287189E+03  0.16128327669E+04  0.18626619670E+04  0.88704063076E+02 0.  0.
         11    1    3    3    0    0  0.71143710391E+03  0.26411797010E+03  0.12488650256E+04  0.14613572140E+04  0.00000000000E+00 0. -1.
        -11    1    3    3    0    0  0.16216714930E+03  0.47694901798E+02  0.36396774136E+03  0.40130475293E+03  0.00000000000E+00 0.  1.
         22    1    1    2    0    0 -0.87360425322E+03 -0.31181287189E+03  0.45325569430E+03  0.10324012702E+04  0.00000000000E+00 0. -1.
<mgrwt>
<rscale>  0 0.20279718E+04</rscale>
<asrwt>0</asrwt>
<pdfrwt beam="1">  1        1 0.63767292E-01 0.20279718E+04</pdfrwt>
<pdfrwt beam="2">  1       -1 0.38162704E+00 0.20279718E+04</pdfrwt>
<totfact> 0.50589139E-01</totfact>
</mgrwt>
</event>
<event>
 6    1  0.1603085E-006  0.1063284E+04  0.7818608E-02  0.9241736E-01
          1   -1    0    0  501    0  0.00000000000E+00  0.00000000000E+00  0.37801316509E+03  0.37801316509E+03  0.00000000000E+00 0. -1.
         -1   -1    0    0    0  501 -0.00000000000E+00 -0.00000000000E+00 -0.74770688219E+03  0.74770688219E+03  0.00000000000E+00 0.  1.
         23    2    1    2    0    0  0.31923145096E+03 -0.10215459454E+03 -0.61777874350E+03  0.70871829573E+03  0.91031677461E+02 0.  0.
         11    1    3    3    0    0  0.11440351804E+03 -0.40664633898E+02 -0.14034953000E+03  0.18557954618E+03  0.00000000000E+00 0. -1.
        -11    1    3    3    0    0  0.20482793292E+03 -0.61489960638E+02 -0.47742921351E+03  0.52313874954E+03  0.00000000000E+00 0.  1.
         22    1    1    2    0    0 -0.31923145096E+03  0.10215459454E+03  0.24808502641E+03  0.41700175155E+03  0.00000000000E+00 0. -1.
<mgrwt>
<rscale>  0 0.10632837E+04</rscale>
<asrwt>0</asrwt>
<pdfrwt beam="1">  1        1 0.58155872E-01 0.10632837E+04</pdfrwt>
<pdfrwt beam="2">  1       -1 0.11503183E+00 0.10632837E+04</pdfrwt>
<totfact> 0.44337008E+01</totfact>
</mgrwt>
</event>
<event>
 6    1  0.1603085E-006  0.1536495E+04  0.7818608E-02  0.8860541E-01
          2   -1    0    0  501    0  0.00000000000E+00  0.00000000000E+00  0.27592635155E+04  0.27592635155E+04  0.00000000000E+00 0. -1.
         -2   -1    0    0    0  501 -0.00000000000E+00 -0.00000000000E+00 -0.21389906060E+03  0.21389906060E+03  0.00000000000E+00 0.  1.
         23    2    1    2    0    0  0.66597823591E+03  0.31759755497E+03  0.16723312750E+04  0.18301043314E+04  0.90524873581E+02 0.  0.
         13    1    3    3    0    0  0.52699139670E+03  0.25318027609E+03  0.14085360336E+04  0.15250553900E+04  0.00000000000E+00 0. -1.
        -13    1    3    3    0    0  0.13898683921E+03  0.64417278879E+02  0.26379524141E+03  0.30504894145E+03  0.00000000000E+00 0.  1.
         22    1    1    2    0    0 -0.66597823591E+03 -0.31759755497E+03  0.87303317990E+03  0.11430582447E+04  0.00000000000E+00 0. -1.
<mgrwt>
<rscale>  0 0.15364945E+04</rscale>
<asrwt>0</asrwt>
<pdfrwt beam="1">  1        2 0.42450206E+00 0.15364945E+04</pdfrwt>
<pdfrwt beam="2">  1       -2 0.32907550E-01 0.15364945E+04</pdfrwt>
<totfact> 0.20406750E+01</totfact>
</mgrwt>
</event>
<event>
 6    1  0.1603085E-006  0.2444301E+04  0.7818608E-02  0.8423102E-01
          1   -1    0    0  501    0  0.00000000000E+00  0.00000000000E+00  0.19167017258E+04  0.19167017258E+04  0.00000000000E+00 0. -1.
         -1   -1    0    0    0  501 -0.00000000000E+00 -0.00000000000E+00 -0.77928262230E+03  0.77928262230E+03  0.00000000000E+00 0.  1.
         23    2    1    2    0    0  0.47750110342E+03  0.33313227190E+03 -0.61339883453E+03  0.85089685248E+03  0.93717175625E+02 0.  0.
         11    1    3    3    0    0  0.20145958391E+03  0.19634185265E+03 -0.27854793672E+03  0.39588513498E+03  0.00000000000E+00 0. -1.
        -11    1    3    3    0    0  0.27604151952E+03  0.13679041925E+03 -0.33485089781E+03  0.45501171750E+03  0.00000000000E+00 0.  1.
         22    1    1    2    0    0 -0.47750110342E+03 -0.33313227190E+03  0.17508179381E+04  0.18450874957E+04  0.00000000000E+00 0. -1.
<mgrwt>
<rscale>  0 0.24443014E+04</rscale>
<asrwt>0</asrwt>
<pdfrwt beam="1">  1        1 0.29487719E+00 0.24443014E+04</pdfrwt>
<pdfrwt beam="2">  1       -1 0.11988963E+00 0.24443014E+04</pdfrwt>
<totfact> 0.18798600E+00</totfact>
</mgrwt>
</event>
<event>
 6    1  0.1603085E-006  0.1796671E+04  0.7818608E-02  0.8708072E-01
          1   -1    0    0  501    0  0.00000000000E+00  0.00000000000E+00  0.85916756654E+03  0.85916756654E+03  0.00000000000E+00 0. -1.
         -1   -1    0    0    0  501 -0.00000000000E+00 -0.00000000000E+00 -0.93928893269E+03  0.93928893269E+03  0.00000000000E+00 0.  1.
         23    2    1    2    0    0 -0.41700352836E+03 -0.29464265272E+03  0.69684908922E+03  0.86873109676E+03  0.91590555445E+02 0.  0.
         11    1    3    3    0    0 -0.24158258419E+03 -0.11591855587E+03  0.37637217330E+03  0.46201219617E+03  0.00000000000E+00 0.  1.
        -11    1    3    3    0    0 -0.17542094417E+03 -0.17872409685E+03  0.32047691593E+03  0.40671890058E+03  0.00000000000E+00 0. -1.
         22    1    1    2    0    0  0.41700352836E+03  0.29464265272E+03 -0.77697045538E+03  0.92972540247E+03  0.00000000000E+00 0.  1.
<mgrwt>
<rscale>  0 0.17966709E+04</rscale>
<asrwt>0</asrwt>
<pdfrwt beam="1">  1        1 0.13217963E+00 0.17966709E+04</pdfrwt>
<pdfrwt beam="2">  1       -1 0.14450599E+00 0.17966709E+04</pdfrwt>
<totfact> 0.71608460E+00</totfact>
</mgrwt>
</event>
<event>
 6    1  0.1603085E-006  0.1906387E+04  0.7818608E-02  0.8651684E-01
         -1   -1    0    0    0  501 -0.00000000000E+00  0.00000000000E+00  0.97924879458E+03  0.97924879458E+03  0.00000000000E+00 0.  1.
          1   -1    0    0  501    0  0.00000000000E+00 -0.00000000000E+00 -0.92783130112E+03  0.92783130112E+03  0.00000000000E+00 0. -1.
         23    2    1    2    0    0 -0.82324110706E+02 -0.73071719230E+03  0.62901684560E+03  0.97201545306E+03  0.91798554461E+02 0.  0.
         13    1    3    3    0    0 -0.48960154205E+02 -0.19496687961E+03  0.21309354946E+03  0.29294716531E+03  0.00000000000E+00 0.  1.
        -13    1    3    3    0    0 -0.33363956501E+02 -0.53575031269E+03  0.41592329614E+03  0.67906828774E+03  0.00000000000E+00 0. -1.
         22    1    1    2    0    0  0.82324110706E+02  0.73071719230E+03 -0.57759935214E+03  0.93506464265E+03  0.00000000000E+00 0. -1.
<mgrwt>
<rscale>  0 0.19063868E+04</rscale>
<asrwt>0</asrwt>
<pdfrwt beam="1">  1        1 0.14274328E+00 0.19063868E+04</pdfrwt>
<pdfrwt beam="2">  1       -1 0.15065366E+00 0.19063868E+04</pdfrwt>
<totfact> 0.55691693E+00</totfact>
</mgrwt>
</event>
<event>
 6    1  0.1603085E-006  0.3633425E+04  0.7818608E-02  0.8082878E-01
         -1   -1    0    0    0  501 -0.00000000000E+00  0.00000000000E+00  0.17550081335E+04  0.17550081335E+04  0.00000000000E+00 0.  1.
          1   -1    0    0  501    0  0.00000000000E+00 -0.00000000000E+00 -0.18805867206E+04  0.18805867206E+04  0.00000000000E+00 0. -1.
         23    2    1    2    0    0 -0.10617897767E+04  0.10344547647E+04  0.98595909038E+03  0.17827564373E+04  0.92795456150E+02 0.  0.
         13    1    3    3    0    0 -0.40491772281E+03  0.38971181511E+03  0.42813268742E+03  0.70649222156E+03  0.00000000000E+00 0. -1.
        -13    1    3    3    0    0 -0.65687205392E+03  0.64474294962E+03  0.55782640296E+03  0.10762642158E+04  0.00000000000E+00 0.  1.
         22    1    1    2    0    0  0.10617897767E+04 -0.10344547647E+04 -0.11115376775E+04  0.18528384168E+04  0.00000000000E+00 0. -1.
<mgrwt>
<rscale>  0 0.36334254E+04</rscale>
<asrwt>0</asrwt>
<pdfrwt beam="1">  1        1 0.28932103E+00 0.36334254E+04</pdfrwt>
<pdfrwt beam="2">  1       -1 0.27000125E+00 0.36334254E+04</pdfrwt>
<totfact> 0.14971608E-01</totfact>
</mgrwt>
</event>
<event>
 6    1  0.1603085E-006  0.2381339E+04  0.7818608E-02  0.8446523E-01
          2   -1    0    0  501    0  0.00000000000E+00  0.00000000000E+00  0.12420477243E+04  0.12420477243E+04  0.00000000000E+00 0. -1.
         -2   -1    0    0    0  501 -0.00000000000E+00 -0.00000000000E+00 -0.11414168909E+04  0.11414168909E+04  0.00000000000E+00 0.  1.
         23    2    1    2    0    0  0.26791746922E+03 -0.22203154448E+03 -0.10874401592E+04  0.11454862389E+04  0.92384233526E+02 0.  0.
         11    1    3    3    0    0  0.10762050259E+03 -0.14684138669E+03 -0.59184515381E+03  0.61921341354E+03  0.00000000000E+00 0.  1.
        -11    1    3    3    0    0  0.16029696663E+03 -0.75190157789E+02 -0.49559500537E+03  0.52627282534E+03  0.00000000000E+00 0. -1.
         22    1    1    2    0    0 -0.26791746922E+03  0.22203154448E+03  0.11880709926E+04  0.12379783764E+04  0.00000000000E+00 0. -1.
<mgrwt>
<rscale>  0 0.23813393E+04</rscale>
<asrwt>0</asrwt>
<pdfrwt beam="1">  1        2 0.19108426E+00 0.23813393E+04</pdfrwt>
<pdfrwt beam="2">  1       -2 0.17560260E+00 0.23813393E+04</pdfrwt>
<totfact> 0.31333717E+00</totfact>
</mgrwt>
</event>
<event>
 6    1  0.1897709E-006  0.3286715E+04  0.7818608E-02  0.8166284E-01
         -2   -1    0    0    0  501 -0.00000000000E+00  0.00000000000E+00  0.27115335591E+04  0.27115335591E+04  0.00000000000E+00 0.  1.
          2   -1    0    0  501    0  0.00000000000E+00 -0.00000000000E+00 -0.99597644404E+03  0.99597644404E+03  0.00000000000E+00 0. -1.
         23    2    1    2    0    0  0.36815445466E+03 -0.14169661887E+04  0.17339448698E+02  0.14653516401E+04  0.60198755697E+02 0.  0.
         11    1    3    3    0    0  0.18081931259E+03 -0.81244637895E+03  0.15404959985E+02  0.83246744997E+03  0.00000000000E+00 0.  1.
        -11    1    3    3    0    0  0.18733514207E+03 -0.60451980980E+03  0.19344887137E+01  0.63288419015E+03  0.00000000000E+00 0. -1.
         22    1    1    2    0    0 -0.36815445466E+03  0.14169661887E+04  0.16982176664E+04  0.22421583630E+04  0.00000000000E+00 0.  1.
<mgrwt>
<rscale>  0 0.32867148E+04</rscale>
<asrwt>0</asrwt>
<pdfrwt beam="1">  1        2 0.15322715E+00 0.32867148E+04</pdfrwt>
<pdfrwt beam="2">  1       -2 0.41715901E+00 0.32867148E+04</pdfrwt>
<totfact> 0.12116100E-01</totfact>
</mgrwt>
</event>
<event>
 6    1  0.1603085E-006  0.2885681E+04  0.7818608E-02  0.8277151E-01
         -2   -1    0    0    0  501 -0.00000000000E+00  0.00000000000E+00  0.57710275672E+03  0.57710275672E+03  0.00000000000E+00 0. -1.
          2   -1    0    0  501    0  0.00000000000E+00 -0.00000000000E+00 -0.36073096600E+04  0.36073096600E+04  0.00000000000E+00 0.  1.
         23    2    1    2    0    0 -0.66630543602E+03 -0.11234722259E+03 -0.33628524018E+04  0.34312604664E+04  0.90483587233E+02 0.  0.
         13    1    3    3    0    0 -0.50954622024E+03 -0.12094224743E+03 -0.26645148610E+04  0.27154932926E+04  0.00000000000E+00 0. -1.
        -13    1    3    3    0    0 -0.15675921578E+03  0.85950248431E+01 -0.69833754085E+03  0.71576717384E+03  0.00000000000E+00 0.  1.
         22    1    1    2    0    0  0.66630543602E+03  0.11234722259E+03  0.33264549856E+03  0.75315195028E+03  0.00000000000E+00 0. -1.
<mgrwt>
<rscale>  0 0.28856808E+04</rscale>
<asrwt>0</asrwt>
<pdfrwt beam="1">  1        2 0.55497072E+00 0.28856808E+04</pdfrwt>
<pdfrwt beam="2">  1       -2 0.88785040E-01 0.28856808E+04</pdfrwt>
<totfact> 0.64243907E-01</totfact>
</mgrwt>
</event>
<event>
 6    1  0.1603085E-006  0.3971895E+04  0.7818608E-02  0.8010240E-01
         -1   -1    0    0    0  501 -0.00000000000E+00  0.00000000000E+00  0.21311885371E+04  0.21311885371E+04  0.00000000000E+00 0.  1.
          1   -1    0    0  501    0  0.00000000000E+00 -0.00000000000E+00 -0.18506046724E+04  0.18506046724E+04  0.00000000000E+00 0. -1.
         23    2    1    2    0    0 -0.52326483406E+03  0.65841710774E+03 -0.16620297274E+04  0.18649401814E+04  0.91323004868E+02 0.  0.
         13    1    3    3    0    0 -0.10235723118E+03  0.77258762308E+02 -0.23945701704E+03  0.27163501641E+03  0.00000000000E+00 0. -1.
        -13    1    3    3    0    0 -0.42090760288E+03  0.58115834543E+03 -0.14225727104E+04  0.15933051650E+04  0.00000000000E+00 0.  1.
         22    1    1    2    0    0  0.52326483406E+03 -0.65841710774E+03  0.19426135920E+04  0.21168530280E+04  0.00000000000E+00 0.  1.
<mgrwt>
<rscale>  0 0.39718950E+04</rscale>
<asrwt>0</asrwt>
<pdfrwt beam="1">  1        1 0.28470841E+00 0.39718950E+04</pdfrwt>
<pdfrwt beam="2">  1       -1 0.32787516E+00 0.39718950E+04</pdfrwt>
<totfact> 0.64168027E-02</totfact>
</mgrwt>
</event>
<event>
 6    1  0.1603085E-006  0.2005050E+04  0.7818608E-02  0.8604263E-01
          1   -1    0    0  501    0  0.00000000000E+00  0.00000000000E+00  0.19973594679E+04  0.19973594679E+04  0.00000000000E+00 0. -1.
         -1   -1    0    0    0  501 -0.00000000000E+00 -0.00000000000E+00 -0.50319276312E+03  0.50319276312E+03  0.00000000000E+00 0.  1.
         23    2    1    2    0    0 -0.62112278322E+02 -0.54470826516E+03 -0.29476818558E+03  0.62949555867E+03  0.93868769562E+02 0.  0.
         13    1    3    3    0    0 -0.85791244390E+02 -0.39820191663E+03 -0.20449059248E+03  0.45578647022E+03  0.00000000000E+00 0. -1.
        -13    1    3    3    0    0  0.23678966067E+02 -0.14650634853E+03 -0.90277593091E+02  0.17370908844E+03  0.00000000000E+00 0.  1.
         22    1    1    2    0    0  0.62112278322E+02  0.54470826516E+03  0.17889348903E+04  0.18710566723E+04  0.00000000000E+00 0. -1.
<mgrwt>
<rscale>  0 0.20050505E+04</rscale>
<asrwt>0</asrwt>
<pdfrwt beam="1">  1        1 0.30728607E+00 0.20050505E+04</pdfrwt>
<pdfrwt beam="2">  1       -1 0.77414272E-01 0.20050505E+04</pdfrwt>
<totfact> 0.46404788E+00</totfact>
</mgrwt>
</event>
<event>
 6    1  0.1603085E-006  0.4352708E+04  0.7818608E-02  0.7936943E-01
         -2   -1    0    0    0  501 -0.00000000000E+00  0.00000000000E+00  0.13530770777E+04  0.13530770777E+04  0.00000000000E+00 0.  1.
          2   -1    0    0  501    0  0.00000000000E+00 -0.00000000000E+00 -0.35005519099E+04  0.35005519099E+04  0.00000000000E+00 0. -1.
         23    2    1    2    0    0  0.53388447466E+03 -0.26249119587E+03 -0.34074824976E+04  0.34602325698E+04  0.91313776745E+02 0.  0.
         11    1    3    3    0    0  0.15570214159E+03 -0.38169932926E+02 -0.10360890347E+04  0.10484181363E+04  0.00000000000E+00 0. -1.
        -11    1    3    3    0    0  0.37818233307E+03 -0.22432126294E+03 -0.23713934628E+04  0.24118144335E+04  0.00000000000E+00 0.  1.
         22    1    1    2    0    0 -0.53388447466E+03  0.26249119587E+03  0.12600076654E+04  0.13933964178E+04  0.00000000000E+00 0.  1.
<mgrwt>
<rscale>  0 0.43527079E+04</rscale>
<asrwt>0</asrwt>
<pdfrwt beam="1">  1        2 0.53854645E+00 0.43527079E+04</pdfrwt>
<pdfrwt beam="2">  1       -2 0.20816570E+00 0.43527079E+04</pdfrwt>
<totfact> 0.73148078E-02</totfact>
</mgrwt>
</event>
<event>
 6    1  0.1603085E-006  0.2020910E+04  0.7818608E-02  0.8596906E-01
         -2   -1    0    0    0  501 -0.00000000000E+00  0.00000000000E+00  0.10137295638E+04  0.10137295638E+04  0.00000000000E+00 0. -1.
          2   -1    0    0  501    0  0.00000000000E+00 -0.00000000000E+00 -0.10071911203E+04  0.10071911203E+04  0.00000000000E+00 0.  1.
         23    2    1    2    0    0 -0.56594145853E+03  0.82812104622E+03  0.10683832118E+03  0.10128858300E+04  0.91918856328E+02 0.  0.
         13    1    3    3    0    0 -0.31641102787E+03  0.39979831803E+03  0.25014439432E+02  0.51047071986E+03  0.00000000000E+00 0. -1.
        -13    1    3    3    0    0 -0.24953043065E+03  0.42832272819E+03  0.81823881746E+02  0.50241511018E+03  0.00000000000E+00 0.  1.
         22    1    1    2    0    0  0.56594145853E+03 -0.82812104622E+03 -0.10029987770E+03  0.10080348541E+04  0.00000000000E+00 0. -1.
<mgrwt>
<rscale>  0 0.20209101E+04</rscale>
<asrwt>0</asrwt>
<pdfrwt beam="1">  1        2 0.15495248E+00 0.20209101E+04</pdfrwt>
<pdfrwt beam="2">  1       -2 0.15595840E+00 0.20209101E+04</pdfrwt>
<totfact> 0.62401806E+00</totfact>
</mgrwt>
</event>
<event>
 6    1  0.1603085E-006  0.5669430E+04  0.7818608E-02  0.7732796E-01
          2   -1    0    0  501    0  0.00000000000E+00  0.00000000000E+00  0.41735309107E+04  0.41735309107E+04  0.00000000000E+00 0. -1.
         -2   -1    0    0    0  501 -0.00000000000E+00 -0.00000000000E+00 -0.19253744178E+04  0.19253744178E+04  0.00000000000E+00 0.  1.
         23    2    1    2    0    0  0.18764669428E+04  0.20044766685E+04  0.36926822519E+03  0.27718531761E+04  0.88068756017E+02 0.  0.
         11    1    3    3    0    0  0.41620147842E+03  0.44334643131E+03  0.11878377600E+03  0.61958801977E+03  0.00000000000E+00 0. -1.
        -11    1    3    3    0    0  0.14602654644E+04  0.15611302372E+04  0.25048444919E+03  0.21522651564E+04  0.00000000000E+00 0.  1.
         22    1    1    2    0    0 -0.18764669428E+04 -0.20044766685E+04  0.18788882677E+04  0.33270521524E+04  0.00000000000E+00 0. -1.
<mgrwt>
<rscale>  0 0.56694302E+04</rscale>
<asrwt>0</asrwt>
<pdfrwt beam="1">  1        2 0.64208167E+00 0.56694302E+04</pdfrwt>
<pdfrwt beam="2">  1       -2 0.29621145E+00 0.56694302E+04</pdfrwt>
<totfact> 0.56353068E-03</totfact>
</mgrwt>
</event>
<event>
 6    1  0.1603085E-006  0.4534452E+04  0.7818608E-02  0.7904633E-01
          1   -1    0    0  501    0  0.00000000000E+00  0.00000000000E+00  0.22940928553E+04  0.22940928553E+04  0.00000000000E+00 0. -1.
         -1   -1    0    0    0  501 -0.00000000000E+00 -0.00000000000E+00 -0.22406740134E+04  0.22406740134E+04  0.00000000000E+00 0.  1.
         23    2    1    2    0    0 -0.93423637337E+03  0.62825041638E+03 -0.19399513456E+04  0.22454392618E+04  0.10530939127E+03 0.  0.
         11    1    3    3    0    0 -0.43817094254E+03  0.34560944612E+03 -0.10212655163E+04  0.11637967687E+04  0.00000000000E+00 0. -1.
        -11    1    3    3    0    0 -0.49606543083E+03  0.28264097026E+03 -0.91868582934E+03  0.10816424930E+04  0.00000000000E+00 0.  1.
         22    1    1    2    0    0  0.93423637337E+03 -0.62825041638E+03  0.19933701876E+04  0.22893276069E+04  0.00000000000E+00 0. -1.
<mgrwt>
<rscale>  0 0.45344522E+04</rscale>
<asrwt>0</asrwt>
<pdfrwt beam="1">  1        1 0.35293736E+00 0.45344522E+04</pdfrwt>
<pdfrwt beam="2">  1       -1 0.34471908E+00 0.45344522E+04</pdfrwt>
<totfact> 0.23705955E-02</totfact>
</mgrwt>
</event>
<event>
 6    1  0.1603085E-006  0.1014648E+04  0.7818608E-02  0.9292623E-01
          1   -1    0    0  501    0  0.00000000000E+00  0.00000000000E+00  0.31439734496E+04  0.31439734496E+04  0.00000000000E+00 0. -1.
         -1   -1    0    0    0  501 -0.00000000000E+00 -0.00000000000E+00 -0.81863844599E+02  0.81863844599E+02  0.00000000000E+00 0.  1.
         23    2    1    2    0    0 -0.44416184750E+03 -0.20428300010E+03  0.19190555114E+04  0.19826221271E+04  0.94895479256E+02 0.  0.
         13    1    3    3    0    0 -0.93681446745E+02 -0.87332140773E+02  0.45759115670E+03  0.47517658082E+03  0.00000000000E+00 0. -1.
        -13    1    3    3    0    0 -0.35048040075E+03 -0.11695085933E+03  0.14614643547E+04  0.15074455463E+04  0.00000000000E+00 0.  1.
         22    1    1    2    0    0  0.44416184750E+03  0.20428300010E+03  0.11430540936E+04  0.12432151671E+04  0.00000000000E+00 0.  1.
<mgrwt>
<rscale>  0 0.10146482E+04</rscale>
<asrwt>0</asrwt>
<pdfrwt beam="1">  1        1 0.48368813E+00 0.10146482E+04</pdfrwt>
<pdfrwt beam="2">  1       -1 0.12594440E-01 0.10146482E+04</pdfrwt>
<totfact> 0.21001194E+01</totfact>
</mgrwt>
</event>
<event>
 6    1  0.1603085E-006  0.2468637E+04  0.7818608E-02  0.8414245E-01
         -2   -1    0    0    0  501 -0.00000000000E+00  0.00000000000E+00  0.65073396894E+03  0.65073396894E+03  0.00000000000E+00 0.  1.
          2   -1    0    0  501    0  0.00000000000E+00 -0.00000000000E+00 -0.23412666868E+04  0.23412666868E+04  0.00000000000E+00 0. -1.
         23    2    1    2    0    0 -0.88353286072E+03 -0.66560716829E+03 -0.18728232646E+03  0.11256070859E+04  0.90848354228E+02 0.  0.
         13    1    3    3    0    0 -0.43773725300E+03 -0.35509446929E+03 -0.13659323875E+03  0.57996870403E+03  0.00000000000E+00 0. -1.
        -13    1    3    3    0    0 -0.44579560773E+03 -0.31051269900E+03 -0.50689087713E+02  0.54563838182E+03  0.00000000000E+00 0.  1.
         22    1    1    2    0    0  0.88353286072E+03  0.66560716829E+03 -0.15032503914E+04  0.18663935699E+04  0.00000000000E+00 0.  1.
<mgrwt>
<rscale>  0 0.24686367E+04</rscale>
<asrwt>0</asrwt>
<pdfrwt beam="1">  1        2 0.36019488E+00 0.24686367E+04</pdfrwt>
<pdfrwt beam="2">  1       -2 0.10011292E+00 0.24686367E+04</pdfrwt>
<totfact> 0.31633722E+00</totfact>
</mgrwt>
</event>
<event>
 6    1  0.1603085E-006  0.2378594E+04  0.7818608E-02  0.8447561E-01
          2   -1    0    0  501    0  0.00000000000E+00  0.00000000000E+00  0.76751001275E+03  0.76751001275E+03  0.00000000000E+00 0. -1.
         -2   -1    0    0    0  501 -0.00000000000E+00 -0.00000000000E+00 -0.18428784566E+04  0.18428784566E+04  0.00000000000E+00 0.  1.
         23    2    1    2    0    0  0.50198806713E+02  0.10301038897E+04  0.10759722006E+03  0.10409803944E+04  0.91809998493E+02 0.  0.
         13    1    3    3    0    0  0.32180381569E+02  0.29229479367E+03  0.68399609961E+02  0.30191112932E+03  0.00000000000E+00 0. -1.
        -13    1    3    3    0    0  0.18018425144E+02  0.73780909606E+03  0.39197610095E+02  0.73906926503E+03  0.00000000000E+00 0.  1.
         22    1    1    2    0    0 -0.50198806713E+02 -0.10301038897E+04 -0.11829656639E+04  0.15694080750E+04  0.00000000000E+00 0.  1.
<mgrwt>
<rscale>  0 0.23785943E+04</rscale>
<asrwt>0</asrwt>
<pdfrwt beam="1">  1        2 0.11807846E+00 0.23785943E+04</pdfrwt>
<pdfrwt beam="2">  1       -2 0.28351976E+00 0.23785943E+04</pdfrwt>
<totfact> 0.13139286E+00</totfact>
</mgrwt>
</event>
<event>
 6    1  0.1603085E-006  0.3896413E+04  0.7818608E-02  0.8025776E-01
         -2   -1    0    0    0  501 -0.00000000000E+00  0.00000000000E+00  0.24706310786E+04  0.24706310786E+04  0.00000000000E+00 0.  1.
          2   -1    0    0  501    0  0.00000000000E+00 -0.00000000000E+00 -0.15362506212E+04  0.15362506212E+04  0.00000000000E+00 0. -1.
         23    2    1    2    0    0 -0.50233149463E+03  0.16455566141E+04 -0.46999317510E+03  0.17859677438E+04  0.92702191243E+02 0.  0.
         13    1    3    3    0    0 -0.32092919044E+03  0.11048396987E+04 -0.27178639395E+03  0.11821734852E+04  0.00000000000E+00 0.  1.
        -13    1    3    3    0    0 -0.18140230419E+03  0.54071691543E+03 -0.19820678116E+03  0.60379425858E+03  0.00000000000E+00 0. -1.
         22    1    1    2    0    0  0.50233149463E+03 -0.16455566141E+04  0.14043736325E+04  0.22209139561E+04  0.00000000000E+00 0.  1.
<mgrwt>
<rscale>  0 0.38964130E+04</rscale>
<asrwt>0</asrwt>
<pdfrwt beam="1">  1        2 0.23634625E+00 0.38964130E+04</pdfrwt>
<pdfrwt beam="2">  1       -2 0.38009709E+00 0.38964130E+04</pdfrwt>
<totfact> 0.96265232E-02</totfact>
</mgrwt>
</event>
<event>
 6    1  0.1603085E-006  0.2684588E+04  0.7818608E-02  0.8340023E-01
         -1   -1    0    0    0  501 -0.00000000000E+00  0.00000000000E+00  0.66066871945E+03  0.66066871945E+03  0.00000000000E+00 0.  1.
          1   -1    0    0  501    0  0.00000000000E+00 -0.00000000000E+00 -0.27271650507E+04  0.27271650507E+04  0.00000000000E+00 0. -1.
         23    2    1    2    0    0 -0.10332972424E+04 -0.85257485376E+03 -0.11178266161E+04  0.17463218753E+04  0.74274331357E+02 0.  0.
         13    1    3    3    0    0 -0.27769885403E+03 -0.21171092241E+03 -0.25330647751E+03  0.43139580405E+03  0.00000000000E+00 0.  1.
        -13    1    3    3    0    0 -0.75559838834E+03 -0.64086393135E+03 -0.86452013857E+03  0.13149260713E+04  0.00000000000E+00 0. -1.
         22    1    1    2    0    0  0.10332972424E+04  0.85257485376E+03 -0.94866971517E+03  0.16415118948E+04  0.00000000000E+00 0. -1.
<mgrwt>
<rscale>  0 0.26845876E+04</rscale>
<asrwt>0</asrwt>
<pdfrwt beam="1">  1        1 0.41956386E+00 0.26845876E+04</pdfrwt>
<pdfrwt beam="2">  1       -1 0.10164134E+00 0.26845876E+04</pdfrwt>
<totfact> 0.75327332E-01</totfact>
</mgrwt>
</event>
<event>
 6    1  0.1603085E-006  0.1947158E+04  0.7818608E-02  0.8631732E-01
         -2   -1    0    0    0  501 -0.00000000000E+00  0.00000000000E+00  0.16642876288E+04  0.16642876288E+04  0.00000000000E+00 0.  1.
          2   -1    0    0  501    0  0.00000000000E+00 -0.00000000000E+00 -0.56952688113E+03  0.56952688113E+03  0.00000000000E+00 0. -1.
         23    2    1    2    0    0 -0.75649272136E+03 -0.23044975246E+03  0.11957550722E+04  0.14365766662E+04  0.92379646987E+02 0.  0.
         13    1    3    3    0    0 -0.50030966781E+03 -0.18825400318E+03  0.75602379126E+03  0.92591646835E+03  0.00000000000E+00 0. -1.
        -13    1    3    3    0    0 -0.25618305355E+03 -0.42195749284E+02  0.43973128098E+03  0.51066019784E+03  0.00000000000E+00 0.  1.
         22    1    1    2    0    0  0.75649272136E+03  0.23044975246E+03 -0.10099432457E+03  0.79723784373E+03  0.00000000000E+00 0. -1.
<mgrwt>
<rscale>  0 0.19471585E+04</rscale>
<asrwt>0</asrwt>
<pdfrwt beam="1">  1        2 0.87619521E-01 0.19471585E+04</pdfrwt>
<pdfrwt beam="2">  1       -2 0.25604425E+00 0.19471585E+04</pdfrwt>
<totfact> 0.29067200E+00</totfact>
</mgrwt>
</event>
<event>
 6    1  0.1603085E-006  0.1839098E+04  0.7818608E-02  0.8685779E-01
          1   -1    0    0  501    0  0.00000000000E+00  0.00000000000E+00  0.29830043929E+04  0.29830043929E+04  0.00000000000E+00 0. -1.
         -1   -1    0    0    0  501 -0.00000000000E+00 -0.00000000000E+00 -0.28346269725E+03  0.28346269725E+03  0.00000000000E+00 0.  1.
         23    2    1    2    0    0  0.44291322842E+03  0.20417236568E+03 -0.27127248030E+02  0.49652448944E+03  0.89119011459E+02 0.  0.
         13    1    3    3    0    0  0.27591414133E+03  0.12613354381E+03  0.26542491415E+02  0.30453700614E+03  0.00000000000E+00 0. -1.
        -13    1    3    3    0    0  0.16699908709E+03  0.78038821868E+02 -0.53669739445E+02  0.19198748329E+03  0.00000000000E+00 0.  1.
         22    1    1    2    0    0 -0.44291322842E+03 -0.20417236568E+03  0.27266689437E+04  0.27699426008E+04  0.00000000000E+00 0. -1.
<mgrwt>
<rscale>  0 0.18390981E+04</rscale>
<asrwt>0</asrwt>
<pdfrwt beam="1">  1        1 0.45892373E+00 0.18390981E+04</pdfrwt>
<pdfrwt beam="2">  1       -1 0.43609648E-01 0.18390981E+04</pdfrwt>
<totfact> 0.30119294E+00</totfact>
</mgrwt>
</event>
<event>
 6    1  0.1603085E-006  0.2161458E+04  0.7818608E-02  0.8534644E-01
          2   -1    0    0  501    0  0.00000000000E+00  0.00000000000E+00  0.16554443183E+04  0.16554443183E+04  0.00000000000E+00 0. -1.
         -2   -1    0    0    0  501 -0.00000000000E+00 -0.00000000000E+00 -0.70553571219E+03  0.70553571219E+03  0.00000000000E+00 0.  1.
         23    2    1    2    0    0  0.44342356730E+03 -0.10357008286E+03 -0.59006889818E+03  0.75509026595E+03  0.12094950617E+03 0.  0.
         13    1    3    3    0    0  0.44417917331E+03 -0.11146384166E+03 -0.59035713773E+03  0.74715518874E+03  0.00000000000E+00 0. -1.
        -13    1    3    3    0    0 -0.75560600934E+00  0.78937587956E+01  0.28823954750E+00  0.79350772146E+01  0.00000000000E+00 0.  1.
         22    1    1    2    0    0 -0.44342356730E+03  0.10357008286E+03  0.15399775043E+04  0.16058897645E+04  0.00000000000E+00 0. -1.
<mgrwt>
<rscale>  0 0.21614579E+04</rscale>
<asrwt>0</asrwt>
<pdfrwt beam="1">  1        2 0.25468374E+00 0.21614579E+04</pdfrwt>
<pdfrwt beam="2">  1       -2 0.10854396E+00 0.21614579E+04</pdfrwt>
<totfact> 0.64614129E+00</totfact>
</mgrwt>
</event>
<event>
 6    1  0.1603085E-006  0.1269513E+04  0.7818608E-02  0.9054097E-01
          1   -1    0    0  501    0  0.00000000000E+00  0.00000000000E+00  0.47633980727E+03  0.47633980727E+03  0.00000000000E+00 0. -1.
         -1   -1    0    0    0  501 -0.00000000000E+00 -0.00000000000E+00 -0.84585783866E+03  0.84585783866E+03  0.00000000000E+00 0.  1.
         23    2    1    2    0    0  0.16365226273E+03 -0.58548099016E+03 -0.36386681286E+03  0.71424864379E+03  0.90454489779E+02 0.  0.
         11    1    3    3    0    0  0.15598707855E+02 -0.20643075901E+03 -0.13843615093E+03  0.24904125328E+03  0.00000000000E+00 0. -1.
        -11    1    3    3    0    0  0.14805355487E+03 -0.37905023115E+03 -0.22543066193E+03  0.46520739051E+03  0.00000000000E+00 0.  1.
         22    1    1    2    0    0 -0.16365226273E+03  0.58548099016E+03 -0.56512185257E+01  0.60794900214E+03  0.00000000000E+00 0. -1.
<mgrwt>
<rscale>  0 0.12695129E+04</rscale>
<asrwt>0</asrwt>
<pdfrwt beam="1">  1        1 0.73283049E-01 0.12695129E+04</pdfrwt>
<pdfrwt beam="2">  1       -1 0.13013197E+00 0.12695129E+04</pdfrwt>
<totfact> 0.23608963E+01</totfact>
</mgrwt>
</event>
<event>
 6    1  0.1603085E-006  0.2166081E+04  0.7818608E-02  0.8532680E-01
         -2   -1    0    0    0  501 -0.00000000000E+00  0.00000000000E+00  0.38548287478E+03  0.38548287478E+03  0.00000000000E+00 0.  1.
          2   -1    0    0  501    0  0.00000000000E+00 -0.00000000000E+00 -0.30428774986E+04  0.30428774986E+04  0.00000000000E+00 0. -1.
         23    2    1    2    0    0 -0.10045385289E+04  0.37671066388E+03 -0.11218062017E+04  0.15551170943E+04  0.94506310374E+02 0.  0.
         13    1    3    3    0    0 -0.17224165691E+03  0.87933417809E+02 -0.16177719416E+03  0.25213356558E+03  0.00000000000E+00 0.  1.
        -13    1    3    3    0    0 -0.83229687196E+03  0.28877724607E+03 -0.96002900749E+03  0.13029835287E+04  0.00000000000E+00 0. -1.
         22    1    1    2    0    0  0.10045385289E+04 -0.37671066388E+03 -0.15355884222E+04  0.18732432791E+04  0.00000000000E+00 0. -1.
<mgrwt>
<rscale>  0 0.21660814E+04</rscale>
<asrwt>0</asrwt>
<pdfrwt beam="1">  1        2 0.46813501E+00 0.21660814E+04</pdfrwt>
<pdfrwt beam="2">  1       -2 0.59305057E-01 0.21660814E+04</pdfrwt>
<totfact> 0.39872578E+00</totfact>
</mgrwt>
</event>
<event>
 6    1  0.1603085E-006  0.2991862E+04  0.7818608E-02  0.8246059E-01
         -1   -1    0    0    0  501 -0.00000000000E+00  0.00000000000E+00  0.12965436711E+04  0.12965436711E+04  0.00000000000E+00 0.  1.
          1   -1    0    0  501    0  0.00000000000E+00 -0.00000000000E+00 -0.17259808542E+04  0.17259808542E+04  0.00000000000E+00 0. -1.
         23    2    1    2    0    0 -0.14483182419E+04 -0.17564511768E+03 -0.54251246604E+03  0.15592190354E+04  0.91472877845E+02 0.  0.
         11    1    3    3    0    0 -0.10417117979E+04 -0.85022197183E+02 -0.38293976580E+03  0.11131195390E+04  0.00000000000E+00 0. -1.
        -11    1    3    3    0    0 -0.40660644398E+03 -0.90622920500E+02 -0.15957270024E+03  0.44609949638E+03  0.00000000000E+00 0.  1.
         22    1    1    2    0    0  0.14483182419E+04  0.17564511768E+03  0.11307528299E+03  0.14633054899E+04  0.00000000000E+00 0.  1.
<mgrwt>
<rscale>  0 0.29918620E+04</rscale>
<asrwt>0</asrwt>
<pdfrwt beam="1">  1        1 0.26553552E+00 0.29918620E+04</pdfrwt>
<pdfrwt beam="2">  1       -1 0.19946826E+00 0.29918620E+04</pdfrwt>
<totfact> 0.59146915E-01</totfact>
</mgrwt>
</event>
<event>
 6    1  0.1603085E-006  0.3191607E+04  0.7818608E-02  0.8191037E-01
         -1   -1    0    0    0  501 -0.00000000000E+00  0.00000000000E+00  0.15821322914E+04  0.15821322914E+04  0.00000000000E+00 0.  1.
          1   -1    0    0  501    0  0.00000000000E+00 -0.00000000000E+00 -0.16095932582E+04  0.16095932582E+04  0.00000000000E+00 0. -1.
         23    2    1    2    0    0 -0.42660238657E+03 -0.96833003883E+03  0.11790171309E+04  0.15869694744E+04  0.93477577218E+02 0.  0.
         11    1    3    3    0    0 -0.33610490537E+03 -0.84408466514E+03  0.10104722089E+04  0.13588596375E+04  0.00000000000E+00 0.  1.
        -11    1    3    3    0    0 -0.90497481202E+02 -0.12424537368E+03  0.16854492203E+03  0.22810983698E+03  0.00000000000E+00 0. -1.
         22    1    1    2    0    0  0.42660238657E+03  0.96833003883E+03 -0.12064780978E+04  0.16047560752E+04  0.00000000000E+00 0. -1.
<mgrwt>
<rscale>  0 0.31916074E+04</rscale>
<asrwt>0</asrwt>
<pdfrwt beam="1">  1        1 0.24762973E+00 0.31916074E+04</pdfrwt>
<pdfrwt beam="2">  1       -1 0.24340497E+00 0.31916074E+04</pdfrwt>
<totfact> 0.35435901E-01</totfact>
</mgrwt>
</event>
<event>
 6    1  0.1603085E-006  0.6333174E+04  0.7818608E-02  0.7650411E-01
         -2   -1    0    0    0  501 -0.00000000000E+00  0.00000000000E+00  0.41027644415E+04  0.41027644415E+04  0.00000000000E+00 0.  1.
          2   -1    0    0  501    0  0.00000000000E+00 -0.00000000000E+00 -0.24440287329E+04  0.24440287329E+04  0.00000000000E+00 0. -1.
         23    2    1    2    0    0  0.77250505464E+03 -0.22996821113E+04 -0.12733220961E+04  0.27412360742E+04  0.87887321481E+02 0.  0.
         13    1    3    3    0    0  0.47331686636E+03 -0.15339661375E+04 -0.85575090786E+03  0.18191730493E+04  0.00000000000E+00 0.  1.
        -13    1    3    3    0    0  0.29918818829E+03 -0.76571597379E+03 -0.41757118823E+03  0.92206302483E+03  0.00000000000E+00 0. -1.
         22    1    1    2    0    0 -0.77250505464E+03  0.22996821113E+04  0.29320578047E+04  0.38055571002E+04  0.00000000000E+00 0.  1.
<mgrwt>
<rscale>  0 0.63331743E+04</rscale>
<asrwt>0</asrwt>
<pdfrwt beam="1">  1        2 0.37600442E+00 0.63331743E+04</pdfrwt>
<pdfrwt beam="2">  1       -2 0.63119453E+00 0.63331743E+04</pdfrwt>
<totfact> 0.98198934E-04</totfact>
</mgrwt>
</event>
<event>
 6    1  0.1902355E-006  0.3015439E+04  0.7818608E-02  0.8239336E-01
          2   -1    0    0  501    0  0.00000000000E+00  0.00000000000E+00  0.12172979661E+04  0.12172979661E+04  0.00000000000E+00 0. -1.
         -2   -1    0    0    0  501 -0.00000000000E+00 -0.00000000000E+00 -0.18674296047E+04  0.18674296047E+04  0.00000000000E+00 0.  1.
         23    2    1    2    0    0 -0.70675149190E+03  0.95363047644E+03  0.62344509132E+03  0.13437777026E+04  0.90255056059E+02 0.  0.
         13    1    3    3    0    0 -0.36832297441E+03  0.56423550039E+03  0.37554120837E+03  0.77139789510E+03  0.00000000000E+00 0.  1.
        -13    1    3    3    0    0 -0.33842851749E+03  0.38939497605E+03  0.24790388295E+03  0.57237980748E+03  0.00000000000E+00 0. -1.
         22    1    1    2    0    0  0.70675149190E+03 -0.95363047644E+03 -0.12735767299E+04  0.17409498683E+04  0.00000000000E+00 0.  1.
<mgrwt>
<rscale>  0 0.30154391E+04</rscale>
<asrwt>0</asrwt>
<pdfrwt beam="1">  1        2 0.18727661E+00 0.30154391E+04</pdfrwt>
<pdfrwt beam="2">  1       -2 0.28729686E+00 0.30154391E+04</pdfrwt>
<totfact> 0.60097233E-01</totfact>
</mgrwt>
</event>
<event>
 6    1  0.1603085E-006  0.3831168E+04  0.7818608E-02  0.8039499E-01
         -2   -1    0    0    0  501 -0.00000000000E+00  0.00000000000E+00  0.12425002931E+04  0.12425002931E+04  0.00000000000E+00 0.  1.
          2   -1    0    0  501    0  0.00000000000E+00 -0.00000000000E+00 -0.29532882403E+04  0.29532882403E+04  0.00000000000E+00 0. -1.
         23    2    1    2    0    0 -0.24120594223E+03  0.10115279896E+04  0.90459264128E+03  0.13812575239E+04  0.90638404647E+02 0.  0.
         13    1    3    3    0    0 -0.19543939699E+03  0.66587164892E+03  0.63295307862E+03  0.93926099167E+03  0.00000000000E+00 0. -1.
        -13    1    3    3    0    0 -0.45766545237E+02  0.34565634069E+03  0.27163956266E+03  0.44199653225E+03  0.00000000000E+00 0.  1.
         22    1    1    2    0    0  0.24120594223E+03 -0.10115279896E+04 -0.26153805886E+04  0.28145310095E+04  0.00000000000E+00 0. -1.
<mgrwt>
<rscale>  0 0.38311677E+04</rscale>
<asrwt>0</asrwt>
<pdfrwt beam="1">  1        2 0.45435204E+00 0.38311677E+04</pdfrwt>
<pdfrwt beam="2">  1       -2 0.19115389E+00 0.38311677E+04</pdfrwt>
<totfact> 0.22663777E-01</totfact>
</mgrwt>
</event>
<event>
 6    1  0.1603085E-006  0.2127762E+04  0.7818608E-02  0.8549112E-01
         -2   -1    0    0    0  501 -0.00000000000E+00  0.00000000000E+00  0.14077804182E+04  0.14077804182E+04  0.00000000000E+00 0.  1.
          2   -1    0    0  501    0  0.00000000000E+00 -0.00000000000E+00 -0.80399112069E+03  0.80399112069E+03  0.00000000000E+00 0. -1.
         23    2    1    2    0    0 -0.87496826246E+03 -0.58183531510E+03  0.14242550385E+03  0.10641834838E+04  0.89998159709E+02 0.  0.
         13    1    3    3    0    0 -0.42846301058E+03 -0.26470827711E+03  0.11031888000E+03  0.51557858634E+03  0.00000000000E+00 0.  1.
        -13    1    3    3    0    0 -0.44650525188E+03 -0.31712703799E+03  0.32106623852E+02  0.54860489742E+03  0.00000000000E+00 0. -1.
         22    1    1    2    0    0  0.87496826246E+03  0.58183531510E+03  0.46136379368E+03  0.11475880552E+04  0.00000000000E+00 0. -1.
<mgrwt>
<rscale>  0 0.21277622E+04</rscale>
<asrwt>0</asrwt>
<pdfrwt beam="1">  1        2 0.12369094E+00 0.21277622E+04</pdfrwt>
<pdfrwt beam="2">  1       -2 0.21658160E+00 0.21277622E+04</pdfrwt>
<totfact> 0.32677500E+00</totfact>
</mgrwt>
</event>
<event>
 6    1  0.1603085E-006  0.2911680E+04  0.7818608E-02  0.8269411E-01
         -2   -1    0    0    0  501 -0.00000000000E+00  0.00000000000E+00  0.83559082486E+03  0.83559082486E+03  0.00000000000E+00 0.  1.
          2   -1    0    0  501    0  0.00000000000E+00 -0.00000000000E+00 -0.25364925987E+04  0.25364925987E+04  0.00000000000E+00 0. -1.
         23    2    1    2    0    0  0.80095962496E+03 -0.12005378897E+04 -0.10598558981E+04  0.17929167571E+04  0.91806469563E+02 0.  0.
         11    1    3    3    0    0  0.48005059097E+03 -0.65033683098E+03 -0.56225823921E+03  0.98464251948E+03  0.00000000000E+00 0.  1.
        -11    1    3    3    0    0  0.32090903399E+03 -0.55020105873E+03 -0.49759765890E+03  0.80827423766E+03  0.00000000000E+00 0. -1.
         22    1    1    2    0    0 -0.80095962496E+03  0.12005378897E+04 -0.64104587571E+03  0.15791666664E+04  0.00000000000E+00 0. -1.
<mgrwt>
<rscale>  0 0.29116799E+04</rscale>
<asrwt>0</asrwt>
<pdfrwt beam="1">  1        2 0.39022962E+00 0.29116799E+04</pdfrwt>
<pdfrwt beam="2">  1       -2 0.12855244E+00 0.29116799E+04</pdfrwt>
<totfact> 0.12767946E+00</totfact>
</mgrwt>
</event>
<event>
 6    1  0.1603085E-006  0.2334882E+04  0.7818608E-02  0.8464293E-01
         -2   -1    0    0    0  501 -0.00000000000E+00  0.00000000000E+00  0.13309370711E+04  0.13309370711E+04  0.00000000000E+00 0.  1.
          2   -1    0    0  501    0  0.00000000000E+00 -0.00000000000E+00 -0.10240294659E+04  0.10240294659E+04  0.00000000000E+00 0. -1.
         23    2    1    2    0    0 -0.37831354210E+02 -0.82061690185E+03  0.98773018986E+03  0.12880257220E+04  0.92498765967E+02 0.  0.
         11    1    3    3    0    0 -0.65295998507E+02 -0.50841157553E+03  0.58738726314E+03  0.77959585328E+03  0.00000000000E+00 0. -1.
        -11    1    3    3    0    0  0.27464644297E+02 -0.31220532632E+03  0.40034292672E+03  0.50842986876E+03  0.00000000000E+00 0.  1.
         22    1    1    2    0    0  0.37831354210E+02  0.82061690185E+03 -0.68082258460E+03  0.10669408150E+04  0.00000000000E+00 0. -1.
<mgrwt>
<rscale>  0 0.23348822E+04</rscale>
<asrwt>0</asrwt>
<pdfrwt beam="1">  1        2 0.15754299E+00 0.23348822E+04</pdfrwt>
<pdfrwt beam="2">  1       -2 0.20475955E+00 0.23348822E+04</pdfrwt>
<totfact> 0.27205393E+00</totfact>
</mgrwt>
</event>
<event>
 6    1  0.1603085E-006  0.5362938E+04  0.7818608E-02  0.7774836E-01
         -2   -1    0    0    0  501 -0.00000000000E+00  0.00000000000E+00  0.15022329374E+04  0.15022329374E+04  0.00000000000E+00 0.  1.
          2   -1    0    0  501    0  0.00000000000E+00 -0.00000000000E+00 -0.47863914429E+04  0.47863914429E+04  0.00000000000E+00 0. -1.
         23    2    1    2    0    0 -0.66226609505E+02 -0.26641682075E+04 -0.19822960849E+04  0.33226466387E+04  0.91130213985E+02 0.  0.
         13    1    3    3    0    0 -0.48178603765E+02 -0.25409277903E+04 -0.19042776519E+04  0.31756745093E+04  0.00000000000E+00 0. -1.
        -13    1    3    3    0    0 -0.18048005740E+02 -0.12324041717E+03 -0.78018432996E+02  0.14697212941E+03  0.00000000000E+00 0.  1.
         22    1    1    2    0    0  0.66226609505E+02  0.26641682075E+04 -0.13018624206E+04  0.29659777416E+04  0.00000000000E+00 0. -1.
<mgrwt>
<rscale>  0 0.53629376E+04</rscale>
<asrwt>0</asrwt>
<pdfrwt beam="1">  1        2 0.73636792E+00 0.53629376E+04</pdfrwt>
<pdfrwt beam="2">  1       -2 0.23111276E+00 0.53629376E+04</pdfrwt>
<totfact> 0.36160517E-03</totfact>
</mgrwt>
</event>
<event>
 6    1  0.1603085E-006  0.9761567E+03  0.7818608E-02  0.9335089E-01
          1   -1    0    0  501    0  0.00000000000E+00  0.00000000000E+00  0.16438634289E+04  0.16438634289E+04  0.00000000000E+00 0. -1.
         -1   -1    0    0    0  501 -0.00000000000E+00 -0.00000000000E+00 -0.14491501253E+03  0.14491501253E+03  0.00000000000E+00 0.  1.
         23    2    1    2    0    0  0.42085802043E+03 -0.21347729378E+03  0.95130736286E+03  0.10658643720E+04  0.91581289151E+02 0.  0.
         11    1    3    3    0    0  0.35809833683E+03 -0.18434298474E+03  0.72679745805E+03  0.83093399250E+03  0.00000000000E+00 0.  1.
        -11    1    3    3    0    0  0.62759683595E+02 -0.29134309039E+02  0.22450990480E+03  0.23493037948E+03  0.00000000000E+00 0. -1.
         22    1    1    2    0    0 -0.42085802043E+03  0.21347729378E+03  0.54764105353E+03  0.72291406947E+03  0.00000000000E+00 0.  1.
<mgrwt>
<rscale>  0 0.97615673E+03</rscale>
<asrwt>0</asrwt>
<pdfrwt beam="1">  1        1 0.25290205E+00 0.97615673E+03</pdfrwt>
<pdfrwt beam="2">  1       -1 0.22294618E-01 0.97615673E+03</pdfrwt>
<totfact> 0.89139411E+01</totfact>
</mgrwt>
</event>
<event>
 6    1  0.1603085E-006  0.1252203E+04  0.7818608E-02  0.9068352E-01
          1   -1    0    0  501    0  0.00000000000E+00  0.00000000000E+00  0.10895895191E+04  0.10895895191E+04  0.00000000000E+00 0. -1.
         -1   -1    0    0    0  501 -0.00000000000E+00 -0.00000000000E+00 -0.35977133671E+03  0.35977133671E+03  0.00000000000E+00 0.  1.
         23    2    1    2    0    0 -0.20604996415E+03 -0.19694090113E+03 -0.27371159097E+03  0.40613781528E+03  0.93742112738E+02 0.  0.
         11    1    3    3    0    0 -0.56513066718E+02 -0.47110749010E+02 -0.13287145755E+03  0.15188144591E+03  0.00000000000E+00 0. -1.
        -11    1    3    3    0    0 -0.14953689744E+03 -0.14983015212E+03 -0.14084013342E+03  0.25425636936E+03  0.00000000000E+00 0.  1.
         22    1    1    2    0    0  0.20604996415E+03  0.19694090113E+03  0.10035297734E+04  0.10432230405E+04  0.00000000000E+00 0. -1.
<mgrwt>
<rscale>  0 0.12522030E+04</rscale>
<asrwt>0</asrwt>
<pdfrwt beam="1">  1        1 0.16762915E+00 0.12522030E+04</pdfrwt>
<pdfrwt beam="2">  1       -1 0.55349437E-01 0.12522030E+04</pdfrwt>
<totfact> 0.42004829E+01</totfact>
</mgrwt>
</event>
<event>
 6    1  0.1603085E-006  0.4707273E+04  0.7818608E-02  0.7875321E-01
         -2   -1    0    0    0  501 -0.00000000000E+00  0.00000000000E+00  0.14618285851E+04  0.14618285851E+04  0.00000000000E+00 0.  1.
          2   -1    0    0  501    0  0.00000000000E+00 -0.00000000000E+00 -0.37895043639E+04  0.37895043639E+04  0.00000000000E+00 0. -1.
         23    2    1    2    0    0  0.20328020608E+04  0.11823684109E+04 -0.10848947298E+04  0.25914863345E+04  0.92334011726E+02 0.  0.
         11    1    3    3    0    0  0.32314577935E+03  0.16619850595E+03 -0.19835674166E+03  0.41399339977E+03  0.00000000000E+00 0. -1.
        -11    1    3    3    0    0  0.17096562814E+04  0.10161699049E+04 -0.88653798810E+03  0.21774929347E+04  0.00000000000E+00 0.  1.
         22    1    1    2    0    0 -0.20328020608E+04 -0.11823684109E+04 -0.12427810490E+04  0.26598466146E+04  0.00000000000E+00 0.  1.
<mgrwt>
<rscale>  0 0.47072734E+04</rscale>
<asrwt>0</asrwt>
<pdfrwt beam="1">  1        2 0.58300067E+00 0.47072734E+04</pdfrwt>
<pdfrwt beam="2">  1       -2 0.22489671E+00 0.47072734E+04</pdfrwt>
<totfact> 0.34196548E-02</totfact>
</mgrwt>
</event>
<event>
 6    1  0.1603085E-006  0.2749901E+03  0.7818608E-02  0.1098457E+00
         -1   -1    0    0    0  501 -0.00000000000E+00  0.00000000000E+00  0.12432140116E+02  0.12432140116E+02  0.00000000000E+00 0.  1.
          1   -1    0    0  501    0  0.00000000000E+00 -0.00000000000E+00 -0.15206460938E+04  0.15206460938E+04  0.00000000000E+00 0. -1.
         23    2    1    2    0    0 -0.29300550737E+02  0.67686716927E+02 -0.13808600863E+04  0.13859081913E+04  0.92341338001E+02 0.  0.
         13    1    3    3    0    0  0.85178367375E+00  0.21637776232E+02 -0.10695740985E+04  0.10697932843E+04  0.00000000000E+00 0.  1.
        -13    1    3    3    0    0 -0.30152334411E+02  0.46048940696E+02 -0.31128598786E+03  0.31611490703E+03  0.00000000000E+00 0. -1.
         22    1    1    2    0    0  0.29300550737E+02 -0.67686716927E+02 -0.12735386738E+03  0.14717004267E+03  0.00000000000E+00 0.  1.
<mgrwt>
<rscale>  0 0.27499007E+03</rscale>
<asrwt>0</asrwt>
<pdfrwt beam="1">  1        1 0.23394548E+00 0.27499007E+03</pdfrwt>
<pdfrwt beam="2">  1       -1 0.19126375E-02 0.27499007E+03</pdfrwt>
<totfact> 0.50761326E+03</totfact>
</mgrwt>
</event>
<event>
 6    1  0.1603085E-006  0.2441506E+04  0.7818608E-02  0.8424126E-01
          2   -1    0    0  501    0  0.00000000000E+00  0.00000000000E+00  0.18144387242E+04  0.18144387242E+04  0.00000000000E+00 0. -1.
         -2   -1    0    0    0  501 -0.00000000000E+00 -0.00000000000E+00 -0.82132145652E+03  0.82132145652E+03  0.00000000000E+00 0.  1.
         23    2    1    2    0    0  0.83561432696E+03  0.80396628966E+03  0.90325339005E+03  0.14727087568E+04  0.91604024211E+02 0.  0.
         13    1    3    3    0    0  0.19366975791E+03  0.14650692643E+03  0.15943551697E+03  0.29050290651E+03  0.00000000000E+00 0. -1.
        -13    1    3    3    0    0  0.64194456905E+03  0.65745936323E+03  0.74381787308E+03  0.11822058502E+04  0.00000000000E+00 0.  1.
         22    1    1    2    0    0 -0.83561432696E+03 -0.80396628966E+03  0.89863877659E+02  0.11630514240E+04  0.00000000000E+00 0. -1.
<mgrwt>
<rscale>  0 0.24415056E+04</rscale>
<asrwt>0</asrwt>
<pdfrwt beam="1">  1        2 0.27914442E+00 0.24415056E+04</pdfrwt>
<pdfrwt beam="2">  1       -2 0.12635715E+00 0.24415056E+04</pdfrwt>
<totfact> 0.35427726E+00</totfact>
</mgrwt>
</event>
<event>
 6    1  0.1603085E-006  0.1999026E+04  0.7818608E-02  0.8607076E-01
          2   -1    0    0  501    0  0.00000000000E+00  0.00000000000E+00  0.13642290925E+04  0.13642290925E+04  0.00000000000E+00 0. -1.
         -2   -1    0    0    0  501 -0.00000000000E+00 -0.00000000000E+00 -0.73230064535E+03  0.73230064535E+03  0.00000000000E+00 0.  1.
         23    2    1    2    0    0 -0.16364756493E+03  0.29970282781E+03 -0.66644516822E+03  0.75400362802E+03  0.88147593880E+02 0.  0.
         11    1    3    3    0    0 -0.53988736269E+01  0.88840902001E+02 -0.16464979678E+03  0.18716679536E+03  0.00000000000E+00 0. -1.
        -11    1    3    3    0    0 -0.15824869130E+03  0.21086192581E+03 -0.50179537144E+03  0.56683683266E+03  0.00000000000E+00 0.  1.
         22    1    1    2    0    0  0.16364756493E+03 -0.29970282781E+03  0.12983736154E+04  0.13425261098E+04  0.00000000000E+00 0. -1.
<mgrwt>
<rscale>  0 0.19990256E+04</rscale>
<asrwt>0</asrwt>
<pdfrwt beam="1">  1        2 0.20988140E+00 0.19990256E+04</pdfrwt>
<pdfrwt beam="2">  1       -2 0.11266164E+00 0.19990256E+04</pdfrwt>
<totfact> 0.87409123E+00</totfact>
</mgrwt>
</event>
<event>
 6    1  0.1603085E-006  0.2074465E+04  0.7818608E-02  0.8572576E-01
          1   -1    0    0  501    0  0.00000000000E+00  0.00000000000E+00  0.15020257389E+04  0.15020257389E+04  0.00000000000E+00 0. -1.
         -1   -1    0    0    0  501 -0.00000000000E+00 -0.00000000000E+00 -0.71626701700E+03  0.71626701700E+03  0.00000000000E+00 0.  1.
         23    2    1    2    0    0  0.94551906907E+03  0.42033738782E+03  0.42863265630E+03  0.11236563522E+04  0.90486541357E+02 0.  0.
         13    1    3    3    0    0  0.12723523956E+03  0.89750797899E+02  0.76170936707E+02  0.17333788827E+03  0.00000000000E+00 0. -1.
        -13    1    3    3    0    0  0.81828382951E+03  0.33058658992E+03  0.35246171959E+03  0.95031846391E+03  0.00000000000E+00 0.  1.
         22    1    1    2    0    0 -0.94551906907E+03 -0.42033738782E+03  0.35712606557E+03  0.10946364037E+04  0.00000000000E+00 0. -1.
<mgrwt>
<rscale>  0 0.20744652E+04</rscale>
<asrwt>0</asrwt>
<pdfrwt beam="1">  1        1 0.23108088E+00 0.20744652E+04</pdfrwt>
<pdfrwt beam="2">  1       -1 0.11019493E+00 0.20744652E+04</pdfrwt>
<totfact> 0.45674470E+00</totfact>
</mgrwt>
</event>
<event>
 6    1  0.1603085E-006  0.2408976E+04  0.7818608E-02  0.8436151E-01
          3   -1    0    0  501    0  0.00000000000E+00  0.00000000000E+00  0.13346286951E+04  0.13346286951E+04  0.00000000000E+00 0. -1.
         -3   -1    0    0    0  501 -0.00000000000E+00 -0.00000000000E+00 -0.10870377068E+04  0.10870377068E+04  0.00000000000E+00 0.  1.
         23    2    1    2    0    0  0.64176809228E+03  0.92157792262E+03  0.55698573214E+03  0.12568070716E+04  0.90325841815E+02 0.  0.
         13    1    3    3    0    0  0.19046693692E+03  0.21307009368E+03  0.16247927323E+03  0.32874919485E+03  0.00000000000E+00 0. -1.
        -13    1    3    3    0    0  0.45130115535E+03  0.70850782894E+03  0.39450645891E+03  0.92805787676E+03  0.00000000000E+00 0.  1.
         22    1    1    2    0    0 -0.64176809228E+03 -0.92157792262E+03 -0.30939474381E+03  0.11648593302E+04  0.00000000000E+00 0. -1.
<mgrwt>
<rscale>  0 0.24089763E+04</rscale>
<asrwt>0</asrwt>
<pdfrwt beam="1">  1        3 0.20532749E+00 0.24089763E+04</pdfrwt>
<pdfrwt beam="2">  1       -3 0.16723657E+00 0.24089763E+04</pdfrwt>
<totfact> 0.77223668E-02</totfact>
</mgrwt>
</event>
<event>
 6    1  0.1603085E-006  0.1152131E+04  0.7818608E-02  0.9155820E-01
         -2   -1    0    0    0  501 -0.00000000000E+00  0.00000000000E+00  0.85464647098E+03  0.85464647098E+03  0.00000000000E+00 0.  1.
          2   -1    0    0  501    0  0.00000000000E+00 -0.00000000000E+00 -0.38829113610E+03  0.38829113610E+03  0.00000000000E+00 0. -1.
         23    2    1    2    0    0  0.23639602909E+03 -0.40845432448E+03 -0.11485845939E+03  0.49425376698E+03  0.91522143370E+02 0.  0.
         13    1    3    3    0    0  0.99636929544E+02 -0.21765118635E+03 -0.17176142435E+02  0.23998870081E+03  0.00000000000E+00 0.  1.
        -13    1    3    3    0    0  0.13675909955E+03 -0.19080313814E+03 -0.97682316960E+02  0.25426506618E+03  0.00000000000E+00 0. -1.
         22    1    1    2    0    0 -0.23639602909E+03  0.40845432448E+03  0.58121379428E+03  0.74868384010E+03  0.00000000000E+00 0.  1.
<mgrwt>
<rscale>  0 0.11521313E+04</rscale>
<asrwt>0</asrwt>
<pdfrwt beam="1">  1        2 0.59737098E-01 0.11521313E+04</pdfrwt>
<pdfrwt beam="2">  1       -2 0.13148407E+00 0.11521313E+04</pdfrwt>
<totfact> 0.34318664E+01</totfact>
</mgrwt>
</event>
<event>
 6    1  0.1603085E-006  0.2722783E+04  0.7818608E-02  0.8327650E-01
         -1   -1    0    0    0  501 -0.00000000000E+00  0.00000000000E+00  0.31585782789E+04  0.31585782789E+04  0.00000000000E+00 0.  1.
          1   -1    0    0  501    0  0.00000000000E+00 -0.00000000000E+00 -0.58677871286E+03  0.58677871286E+03  0.00000000000E+00 0. -1.
         23    2    1    2    0    0  0.22796454451E+03 -0.75683420828E+03 -0.23490067018E+03  0.82948112534E+03  0.89970884595E+02 0.  0.
         11    1    3    3    0    0  0.40968210003E+02 -0.28122567151E+03 -0.73381084945E+02  0.29351500162E+03  0.00000000000E+00 0. -1.
        -11    1    3    3    0    0  0.18699633451E+03 -0.47560853677E+03 -0.16151958523E+03  0.53596612373E+03  0.00000000000E+00 0.  1.
         22    1    1    2    0    0 -0.22796454451E+03  0.75683420828E+03  0.28067002362E+04  0.29158758664E+04  0.00000000000E+00 0.  1.
<mgrwt>
<rscale>  0 0.27227828E+04</rscale>
<asrwt>0</asrwt>
<pdfrwt beam="1">  1        1 0.90273650E-01 0.27227828E+04</pdfrwt>
<pdfrwt beam="2">  1       -1 0.48593511E+00 0.27227828E+04</pdfrwt>
<totfact> 0.56664287E-02</totfact>
</mgrwt>
</event>
<event>
 6    1  0.1603085E-006  0.2376770E+04  0.7818608E-02  0.8448252E-01
         -1   -1    0    0    0  501 -0.00000000000E+00  0.00000000000E+00  0.68991985473E+03  0.68991985473E+03  0.00000000000E+00 0.  1.
          1   -1    0    0  501    0  0.00000000000E+00 -0.00000000000E+00 -0.20469904371E+04  0.20469904371E+04  0.00000000000E+00 0. -1.
         23    2    1    2    0    0 -0.84333722845E+03 -0.73010352448E+03 -0.11455803789E+04  0.16015702796E+04  0.91673979235E+02 0.  0.
         11    1    3    3    0    0 -0.32300286111E+03 -0.32627646710E+03 -0.43057440295E+03  0.62942950181E+03  0.00000000000E+00 0. -1.
        -11    1    3    3    0    0 -0.52033436734E+03 -0.40382705738E+03 -0.71500597595E+03  0.97214077775E+03  0.00000000000E+00 0.  1.
         22    1    1    2    0    0  0.84333722845E+03  0.73010352448E+03 -0.21149020348E+03  0.11353400123E+04  0.00000000000E+00 0.  1.
<mgrwt>
<rscale>  0 0.23767704E+04</rscale>
<asrwt>0</asrwt>
<pdfrwt beam="1">  1        1 0.31492160E+00 0.23767704E+04</pdfrwt>
<pdfrwt beam="2">  1       -1 0.10614152E+00 0.23767704E+04</pdfrwt>
<totfact> 0.20634449E+00</totfact>
</mgrwt>
</event>
<event>
 6    1  0.1603085E-006  0.2664360E+04  0.7818608E-02  0.8346662E-01
         -1   -1    0    0    0  501 -0.00000000000E+00  0.00000000000E+00  0.61516025569E+03  0.61516025569E+03  0.00000000000E+00 0.  1.
          1   -1    0    0  501    0  0.00000000000E+00 -0.00000000000E+00 -0.28849451408E+04  0.28849451408E+04  0.00000000000E+00 0. -1.
         23    2    1    2    0    0 -0.53051151877E+03  0.77966694843E+03 -0.23694809608E+04  0.25518109646E+04  0.89309314479E+02 0.  0.
         11    1    3    3    0    0 -0.22613120564E+03  0.40160031790E+03 -0.10954854386E+04  0.11884891601E+04  0.00000000000E+00 0. -1.
        -11    1    3    3    0    0 -0.30438031313E+03  0.37806663053E+03 -0.12739955222E+04  0.13633218045E+04  0.00000000000E+00 0.  1.
         22    1    1    2    0    0  0.53051151877E+03 -0.77966694843E+03  0.99696075652E+02  0.94829443188E+03  0.00000000000E+00 0.  1.
<mgrwt>
<rscale>  0 0.26643600E+04</rscale>
<asrwt>0</asrwt>
<pdfrwt beam="1">  1        1 0.44383771E+00 0.26643600E+04</pdfrwt>
<pdfrwt beam="2">  1       -1 0.94640040E-01 0.26643600E+04</pdfrwt>
<totfact> 0.68483301E-01</totfact>
</mgrwt>
</event>
<event>
 6    1  0.1603085E-006  0.2630833E+04  0.7818608E-02  0.8357803E-01
          2   -1    0    0  501    0  0.00000000000E+00  0.00000000000E+00  0.24776101301E+04  0.24776101301E+04  0.00000000000E+00 0. -1.
         -2   -1    0    0    0  501 -0.00000000000E+00 -0.00000000000E+00 -0.69838267523E+03  0.69838267523E+03  0.00000000000E+00 0.  1.
         23    2    1    2    0    0 -0.53836145118E+03 -0.81138577863E+03 -0.17438361639E+03  0.99315608408E+03  0.88144357739E+02 0.  0.
         13    1    3    3    0    0 -0.42982423974E+03 -0.59104471788E+03 -0.10822684786E+03  0.73877993083E+03  0.00000000000E+00 0. -1.
        -13    1    3    3    0    0 -0.10853721144E+03 -0.22034106075E+03 -0.66156768524E+02  0.25437615324E+03  0.00000000000E+00 0.  1.
         22    1    1    2    0    0  0.53836145118E+03  0.81138577863E+03  0.19536110712E+04  0.21828367212E+04  0.00000000000E+00 0. -1.
<mgrwt>
<rscale>  0 0.26308326E+04</rscale>
<asrwt>0</asrwt>
<pdfrwt beam="1">  1        2 0.38117078E+00 0.26308326E+04</pdfrwt>
<pdfrwt beam="2">  1       -2 0.10744349E+00 0.26308326E+04</pdfrwt>
<totfact> 0.22003579E+00</totfact>
</mgrwt>
</event>
<event>
 6    1  0.1603085E-006  0.4169116E+04  0.7818608E-02  0.7971273E-01
         -1   -1    0    0    0  501 -0.00000000000E+00  0.00000000000E+00  0.14094596288E+04  0.14094596288E+04  0.00000000000E+00 0.  1.
          1   -1    0    0  501    0  0.00000000000E+00 -0.00000000000E+00 -0.30830130866E+04  0.30830130866E+04  0.00000000000E+00 0. -1.
         23    2    1    2    0    0  0.93771246213E+03 -0.18366086887E+04 -0.51320568191E+03  0.21262852550E+04  0.72613887550E+02 0.  0.
         13    1    3    3    0    0  0.37281678199E+03 -0.79703059161E+03 -0.23861975904E+03  0.91169595058E+03  0.00000000000E+00 0.  1.
        -13    1    3    3    0    0  0.56489568014E+03 -0.10395780971E+04 -0.27458592287E+03  0.12145893044E+04  0.00000000000E+00 0. -1.
         22    1    1    2    0    0 -0.93771246213E+03  0.18366086887E+04 -0.11603477758E+04  0.23661874604E+04  0.00000000000E+00 0.  1.
<mgrwt>
<rscale>  0 0.41691162E+04</rscale>
<asrwt>0</asrwt>
<pdfrwt beam="1">  1        1 0.47430970E+00 0.41691162E+04</pdfrwt>
<pdfrwt beam="2">  1       -1 0.21683994E+00 0.41691162E+04</pdfrwt>
<totfact> 0.46314157E-02</totfact>
</mgrwt>
</event>
<event>
 6    1  0.1603085E-006  0.4694289E+04  0.7818608E-02  0.7877478E-01
         -1   -1    0    0    0  501 -0.00000000000E+00  0.00000000000E+00  0.19043323272E+04  0.19043323272E+04  0.00000000000E+00 0.  1.
          1   -1    0    0  501    0  0.00000000000E+00 -0.00000000000E+00 -0.28929229200E+04  0.28929229200E+04  0.00000000000E+00 0. -1.
         23    2    1    2    0    0 -0.21546211887E+04 -0.65119024390E+03 -0.11712028415E+04  0.25389841311E+04  0.91011656570E+02 0.  0.
         13    1    3    3    0    0 -0.71600624496E+03 -0.25957102843E+03 -0.38241862901E+03  0.85222418966E+03  0.00000000000E+00 0.  1.
        -13    1    3    3    0    0 -0.14386149437E+04 -0.39161921547E+03 -0.78878421246E+03  0.16867599414E+04  0.00000000000E+00 0. -1.
         22    1    1    2    0    0  0.21546211887E+04  0.65119024390E+03  0.18261224864E+03  0.22582711161E+04  0.00000000000E+00 0.  1.
<mgrwt>
<rscale>  0 0.46942887E+04</rscale>
<asrwt>0</asrwt>
<pdfrwt beam="1">  1        1 0.44506506E+00 0.46942887E+04</pdfrwt>
<pdfrwt beam="2">  1       -1 0.29297421E+00 0.46942887E+04</pdfrwt>
<totfact> 0.19391560E-02</totfact>
</mgrwt>
</event>
<event>
 6    1  0.1603085E-006  0.4125584E+04  0.7818608E-02  0.7979681E-01
          1   -1    0    0  501    0  0.00000000000E+00  0.00000000000E+00  0.36959591105E+04  0.36959591105E+04  0.00000000000E+00 0. -1.
         -1   -1    0    0    0  501 -0.00000000000E+00 -0.00000000000E+00 -0.11512870800E+04  0.11512870800E+04  0.00000000000E+00 0.  1.
         23    2    1    2    0    0 -0.67029537641E+03  0.31784359856E+03 -0.98723563192E+03  0.12382723501E+04  0.91453678367E+02 0.  0.
         11    1    3    3    0    0 -0.36596301914E+03  0.16555393664E+03 -0.45929531643E+03  0.61015508275E+03  0.00000000000E+00 0. -1.
        -11    1    3    3    0    0 -0.30433235727E+03  0.15228966192E+03 -0.52794031549E+03  0.62811726734E+03  0.00000000000E+00 0.  1.
         22    1    1    2    0    0  0.67029537641E+03 -0.31784359856E+03  0.35319076624E+04  0.36089738404E+04  0.00000000000E+00 0. -1.
<mgrwt>
<rscale>  0 0.41255836E+04</rscale>
<asrwt>0</asrwt>
<pdfrwt beam="1">  1        1 0.56860909E+00 0.41255836E+04</pdfrwt>
<pdfrwt beam="2">  1       -1 0.17712109E+00 0.41255836E+04</pdfrwt>
<totfact> 0.29338082E-02</totfact>
</mgrwt>
</event>
<event>
 6    1  0.1603085E-006  0.2221740E+04  0.7818608E-02  0.8509433E-01
         -2   -1    0    0    0  501 -0.00000000000E+00  0.00000000000E+00  0.15764919717E+04  0.15764919717E+04  0.00000000000E+00 0.  1.
          2   -1    0    0  501    0  0.00000000000E+00 -0.00000000000E+00 -0.78277121349E+03  0.78277121349E+03  0.00000000000E+00 0. -1.
         23    2    1    2    0    0  0.10979964453E+04  0.14683825096E+03  0.45238921708E+03  0.12000975858E+04  0.91763533366E+02 0.  0.
         13    1    3    3    0    0  0.36121760455E+03  0.72342044586E+02  0.18959019064E+03  0.41431385403E+03  0.00000000000E+00 0.  1.
        -13    1    3    3    0    0  0.73677884071E+03  0.74496206373E+02  0.26279902644E+03  0.78578373181E+03  0.00000000000E+00 0. -1.
         22    1    1    2    0    0 -0.10979964453E+04 -0.14683825096E+03  0.34133154113E+03  0.11591655993E+04  0.00000000000E+00 0.  1.
<mgrwt>
<rscale>  0 0.22217403E+04</rscale>
<asrwt>0</asrwt>
<pdfrwt beam="1">  1        2 0.12042634E+00 0.22217403E+04</pdfrwt>
<pdfrwt beam="2">  1       -2 0.24253723E+00 0.22217403E+04</pdfrwt>
<totfact> 0.23106926E+00</totfact>
</mgrwt>
</event>
<event>
 6    1  0.1603085E-006  0.3610895E+04  0.7818608E-02  0.8088001E-01
         -1   -1    0    0    0  501 -0.00000000000E+00  0.00000000000E+00  0.21416657503E+04  0.21416657503E+04  0.00000000000E+00 0.  1.
          1   -1    0    0  501    0  0.00000000000E+00 -0.00000000000E+00 -0.15220114971E+04  0.15220114971E+04  0.00000000000E+00 0. -1.
         23    2    1    2    0    0  0.13207735412E+04 -0.68637159288E+03 -0.72460083037E+03  0.16580425746E+04  0.92250231725E+02 0.  0.
         11    1    3    3    0    0  0.10812135517E+04 -0.59556840166E+03 -0.58006310704E+03  0.13638906384E+04  0.00000000000E+00 0.  1.
        -11    1    3    3    0    0  0.23955998948E+03 -0.90803191216E+02 -0.14453772333E+03  0.29415193619E+03  0.00000000000E+00 0. -1.
         22    1    1    2    0    0 -0.13207735412E+04  0.68637159288E+03  0.13442550837E+04  0.20056346728E+04  0.00000000000E+00 0.  1.
<mgrwt>
<rscale>  0 0.36108946E+04</rscale>
<asrwt>0</asrwt>
<pdfrwt beam="1">  1        1 0.23415562E+00 0.36108946E+04</pdfrwt>
<pdfrwt beam="2">  1       -1 0.32948704E+00 0.36108946E+04</pdfrwt>
<totfact> 0.10827526E-01</totfact>
</mgrwt>
</event>
<event>
 6    1  0.1603085E-006  0.1161567E+04  0.7818608E-02  0.9147178E-01
          1   -1    0    0  501    0  0.00000000000E+00  0.00000000000E+00  0.96495186135E+03  0.96495186135E+03  0.00000000000E+00 0. -1.
         -1   -1    0    0    0  501 -0.00000000000E+00 -0.00000000000E+00 -0.34956097412E+03  0.34956097412E+03  0.00000000000E+00 0.  1.
         23    2    1    2    0    0 -0.46177318930E+03 -0.29646637761E+03  0.51160198550E+03  0.75603371541E+03  0.93400191967E+02 0.  0.
         11    1    3    3    0    0 -0.21942542300E+03 -0.86859562034E+02  0.22782266422E+03  0.32801717350E+03  0.00000000000E+00 0. -1.
        -11    1    3    3    0    0 -0.24234776630E+03 -0.20960681558E+03  0.28377932128E+03  0.42801654191E+03  0.00000000000E+00 0.  1.
         22    1    1    2    0    0  0.46177318930E+03  0.29646637761E+03  0.10378890173E+03  0.55847912005E+03  0.00000000000E+00 0.  1.
<mgrwt>
<rscale>  0 0.11615671E+04</rscale>
<asrwt>0</asrwt>
<pdfrwt beam="1">  1        1 0.14845413E+00 0.11615671E+04</pdfrwt>
<pdfrwt beam="2">  1       -1 0.53778612E-01 0.11615671E+04</pdfrwt>
<totfact> 0.55836520E+01</totfact>
</mgrwt>
</event>
<event>
 6    1  0.1603085E-006  0.1190603E+04  0.7818608E-02  0.9121122E-01
         -2   -1    0    0    0  501 -0.00000000000E+00  0.00000000000E+00  0.56447315675E+03  0.56447315675E+03  0.00000000000E+00 0.  1.
          2   -1    0    0  501    0  0.00000000000E+00 -0.00000000000E+00 -0.62781360113E+03  0.62781360113E+03  0.00000000000E+00 0. -1.
         23    2    1    2    0    0 -0.16486508537E+02  0.47966476566E+03 -0.38042952108E+03  0.61705152344E+03  0.75338367990E+02 0.  0.
         11    1    3    3    0    0  0.18456508464E+02  0.14334590710E+03 -0.82653340147E+02  0.16649404321E+03  0.00000000000E+00 0.  1.
        -11    1    3    3    0    0 -0.34943017000E+02  0.33631885856E+03 -0.29777618094E+03  0.45055748023E+03  0.00000000000E+00 0. -1.
         22    1    1    2    0    0  0.16486508537E+02 -0.47966476566E+03  0.31708907670E+03  0.57523523444E+03  0.00000000000E+00 0.  1.
<mgrwt>
<rscale>  0 0.11906031E+04</rscale>
<asrwt>0</asrwt>
<pdfrwt beam="1">  1        2 0.96586707E-01 0.11906031E+04</pdfrwt>
<pdfrwt beam="2">  1       -2 0.86842025E-01 0.11906031E+04</pdfrwt>
<totfact> 0.53186562E+01</totfact>
</mgrwt>
</event>
<event>
 6    1  0.1603085E-006  0.2070815E+04  0.7818608E-02  0.8574210E-01
          1   -1    0    0  501    0  0.00000000000E+00  0.00000000000E+00  0.33828489859E+04  0.33828489859E+04  0.00000000000E+00 0.  1.
         -1   -1    0    0    0  501 -0.00000000000E+00 -0.00000000000E+00 -0.31691289480E+03  0.31691289480E+03  0.00000000000E+00 0. -1.
         23    2    1    2    0    0  0.16335296739E+02 -0.93228467769E+03  0.73926187757E+03  0.11932035913E+04  0.88346615834E+02 0.  0.
         13    1    3    3    0    0  0.39192622195E+02 -0.19165154736E+03  0.15416492561E+03  0.24906465331E+03  0.00000000000E+00 0.  1.
        -13    1    3    3    0    0 -0.22857325455E+02 -0.74063313033E+03  0.58509695196E+03  0.94413893801E+03  0.00000000000E+00 0. -1.
         22    1    1    2    0    0 -0.16335296739E+02  0.93228467769E+03  0.23266742135E+04  0.25065582894E+04  0.00000000000E+00 0. -1.
<mgrwt>
<rscale>  0 0.20708148E+04</rscale>
<asrwt>0</asrwt>
<pdfrwt beam="1">  1        1 0.52043828E+00 0.20708148E+04</pdfrwt>
<pdfrwt beam="2">  1       -1 0.48755832E-01 0.20708148E+04</pdfrwt>
<totfact> 0.12014801E+00</totfact>
</mgrwt>
</event>
<event>
 6    1  0.2274165E-006  0.3822584E+04  0.7818608E-02  0.8041326E-01
         -2   -1    0    0    0  501 -0.00000000000E+00  0.00000000000E+00  0.13317752775E+04  0.13317752775E+04  0.00000000000E+00 0.  1.
          2   -1    0    0  501    0  0.00000000000E+00 -0.00000000000E+00 -0.27429834185E+04  0.27429834185E+04  0.00000000000E+00 0. -1.
         23    2    1    2    0    0  0.15192623397E+04  0.27869550068E+03 -0.19049690728E+04  0.24531455804E+04  0.56452030618E+02 0.  0.
         13    1    3    3    0    0  0.61225877966E+03  0.95654246165E+02 -0.72885735513E+03  0.95668364269E+03  0.00000000000E+00 0. -1.
        -13    1    3    3    0    0  0.90700356003E+03  0.18304125451E+03 -0.11761117176E+04  0.14964619378E+04  0.00000000000E+00 0.  1.
         22    1    1    2    0    0 -0.15192623397E+04 -0.27869550068E+03  0.49376093170E+03  0.16216131156E+04  0.00000000000E+00 0.  1.
<mgrwt>
<rscale>  0 0.38225842E+04</rscale>
<asrwt>0</asrwt>
<pdfrwt beam="1">  1        2 0.42199745E+00 0.38225842E+04</pdfrwt>
<pdfrwt beam="2">  1       -2 0.20488850E+00 0.38225842E+04</pdfrwt>
<totfact> 0.24745513E-01</totfact>
</mgrwt>
</event>
<event>
 6    1  0.1603085E-006  0.1492953E+04  0.7818608E-02  0.8889153E-01
         -2   -1    0    0    0  501 -0.00000000000E+00  0.00000000000E+00  0.57045208388E+03  0.57045208388E+03  0.00000000000E+00 0. -1.
          2   -1    0    0  501    0  0.00000000000E+00 -0.00000000000E+00 -0.97681617715E+03  0.97681617715E+03  0.00000000000E+00 0.  1.
         23    2    1    2    0    0 -0.31749376680E+03 -0.58098425150E+03 -0.55490980348E+03  0.86873246943E+03  0.91794449630E+02 0.  0.
         13    1    3    3    0    0 -0.15175601532E+03 -0.35584987176E+03 -0.28879945176E+03  0.48276717240E+03  0.00000000000E+00 0. -1.
        -13    1    3    3    0    0 -0.16573775149E+03 -0.22513437974E+03 -0.26611035173E+03  0.38596529702E+03  0.00000000000E+00 0.  1.
         22    1    1    2    0    0  0.31749376680E+03  0.58098425150E+03  0.14854571021E+03  0.67853579160E+03  0.00000000000E+00 0. -1.
<mgrwt>
<rscale>  0 0.14929525E+04</rscale>
<asrwt>0</asrwt>
<pdfrwt beam="1">  1        2 0.15027941E+00 0.14929525E+04</pdfrwt>
<pdfrwt beam="2">  1       -2 0.87761860E-01 0.14929525E+04</pdfrwt>
<totfact> 0.28235147E+01</totfact>
</mgrwt>
</event>
<event>
 6    1  0.1603085E-006  0.5454947E+03  0.7818608E-02  0.1002542E+00
         -1   -1    0    0    0  501 -0.00000000000E+00  0.00000000000E+00  0.62772437928E+03  0.62772437928E+03  0.00000000000E+00 0.  1.
          1   -1    0    0  501    0  0.00000000000E+00 -0.00000000000E+00 -0.11850920474E+03  0.11850920474E+03  0.00000000000E+00 0. -1.
         23    2    1    2    0    0  0.23120873637E+03 -0.91025455742E+01  0.43866589487E+03  0.50432960105E+03  0.91543667525E+02 0.  0.
         13    1    3    3    0    0  0.15694253577E+03  0.80942404086E+01  0.36895904453E+03  0.40103273283E+03  0.00000000000E+00 0.  1.
        -13    1    3    3    0    0  0.74266200600E+02 -0.17196785983E+02  0.69706850343E+02  0.10329686822E+03  0.00000000000E+00 0. -1.
         22    1    1    2    0    0 -0.23120873637E+03  0.91025455742E+01  0.70549279670E+02  0.24190398296E+03  0.00000000000E+00 0. -1.
<mgrwt>
<rscale>  0 0.54549470E+03</rscale>
<asrwt>0</asrwt>
<pdfrwt beam="1">  1        1 0.18232186E-01 0.54549470E+03</pdfrwt>
<pdfrwt beam="2">  1       -1 0.96572980E-01 0.54549470E+03</pdfrwt>
<totfact> 0.31144086E+02</totfact>
</mgrwt>
</event>
<event>
 6    1  0.1603085E-006  0.1768227E+04  0.7818608E-02  0.8723381E-01
         -1   -1    0    0    0  501 -0.00000000000E+00  0.00000000000E+00  0.56299448390E+03  0.56299448390E+03  0.00000000000E+00 0.  1.
          1   -1    0    0  501    0  0.00000000000E+00 -0.00000000000E+00 -0.13883913927E+04  0.13883913927E+04  0.00000000000E+00 0. -1.
         23    2    1    2    0    0  0.62830333203E+03 -0.23004975855E+03  0.21972026996E+03  0.71043548042E+03  0.93560709509E+02 0.  0.
         11    1    3    3    0    0  0.46394716922E+03 -0.20568322246E+03  0.14189793572E+03  0.52696070820E+03  0.00000000000E+00 0. -1.
        -11    1    3    3    0    0  0.16435616281E+03 -0.24366536088E+02  0.77822334233E+02  0.18347477222E+03  0.00000000000E+00 0.  1.
         22    1    1    2    0    0 -0.62830333203E+03  0.23004975855E+03 -0.10451171787E+04  0.12409503962E+04  0.00000000000E+00 0. -1.
<mgrwt>
<rscale>  0 0.17682270E+04</rscale>
<asrwt>0</asrwt>
<pdfrwt beam="1">  1        1 0.21359867E+00 0.17682270E+04</pdfrwt>
<pdfrwt beam="2">  1       -1 0.86614538E-01 0.17682270E+04</pdfrwt>
<totfact> 0.97340279E+00</totfact>
</mgrwt>
</event>
<event>
 6    1  0.1603085E-006  0.2238790E+04  0.7818608E-02  0.8502454E-01
         -1   -1    0    0    0  501 -0.00000000000E+00  0.00000000000E+00  0.19564551506E+04  0.19564551506E+04  0.00000000000E+00 0.  1.
          1   -1    0    0  501    0  0.00000000000E+00 -0.00000000000E+00 -0.64046687677E+03  0.64046687677E+03  0.00000000000E+00 0. -1.
         23    2    1    2    0    0  0.16204180608E+03 -0.14599146331E+03  0.19304457942E+04  0.19449027802E+04  0.91950017422E+02 0.  0.
         11    1    3    3    0    0  0.11170024649E+03 -0.14788340081E+03  0.14401311952E+04  0.14520069919E+04  0.00000000000E+00 0.  1.
        -11    1    3    3    0    0  0.50341559594E+02  0.18919375000E+01  0.49031459905E+03  0.49289578827E+03  0.00000000000E+00 0. -1.
         22    1    1    2    0    0 -0.16204180608E+03  0.14599146331E+03 -0.61445752041E+03  0.65201924716E+03  0.00000000000E+00 0. -1.
<mgrwt>
<rscale>  0 0.22387896E+04</rscale>
<asrwt>0</asrwt>
<pdfrwt beam="1">  1        1 0.98533366E-01 0.22387896E+04</pdfrwt>
<pdfrwt beam="2">  1       -1 0.30099310E+00 0.22387896E+04</pdfrwt>
<totfact> 0.92072757E-01</totfact>
</mgrwt>
</event>
<event>
 6    1  0.1603085E-006  0.4068390E+04  0.7818608E-02  0.7990890E-01
          2   -1    0    0  501    0  0.00000000000E+00  0.00000000000E+00  0.23174749451E+04  0.23174749451E+04  0.00000000000E+00 0. -1.
         -2   -1    0    0    0  501 -0.00000000000E+00 -0.00000000000E+00 -0.17855425208E+04  0.17855425208E+04  0.00000000000E+00 0.  1.
         23    2    1    2    0    0 -0.19322579288E+04  0.42198035630E+02  0.90200607301E+03  0.21351872184E+04  0.10004061376E+03 0.  0.
         13    1    3    3    0    0 -0.11663862649E+04 -0.36350460938E+01  0.50052297794E+03  0.12692491418E+04  0.00000000000E+00 0.  1.
        -13    1    3    3    0    0 -0.76587166390E+03  0.45833081724E+02  0.40148309507E+03  0.86593807664E+03  0.00000000000E+00 0. -1.
         22    1    1    2    0    0  0.19322579288E+04 -0.42198035630E+02 -0.37007364875E+03  0.19678302475E+04  0.00000000000E+00 0.  1.
<mgrwt>
<rscale>  0 0.40683904E+04</rscale>
<asrwt>0</asrwt>
<pdfrwt beam="1">  1        2 0.35653461E+00 0.40683904E+04</pdfrwt>
<pdfrwt beam="2">  1       -2 0.27469885E+00 0.40683904E+04</pdfrwt>
<totfact> 0.15772952E-01</totfact>
</mgrwt>
</event>
<event>
 6    1  0.1603085E-006  0.3111459E+04  0.7818608E-02  0.8212600E-01
         -1   -1    0    0    0  501 -0.00000000000E+00  0.00000000000E+00  0.15010520619E+04  0.15010520619E+04  0.00000000000E+00 0.  1.
          1   -1    0    0  501    0  0.00000000000E+00 -0.00000000000E+00 -0.16123989157E+04  0.16123989157E+04  0.00000000000E+00 0. -1.
         23    2    1    2    0    0 -0.53620345566E+03  0.11792373843E+04 -0.91537962938E+03  0.15887924393E+04  0.90700576966E+02 0.  0.
         13    1    3    3    0    0 -0.34270333846E+03  0.75957519014E+03 -0.64128113274E+03  0.10514949067E+04  0.00000000000E+00 0. -1.
        -13    1    3    3    0    0 -0.19350011721E+03  0.41966219421E+03 -0.27409849663E+03  0.53729753253E+03  0.00000000000E+00 0.  1.
         22    1    1    2    0    0  0.53620345566E+03 -0.11792373843E+04  0.80403277559E+03  0.15246585384E+04  0.00000000000E+00 0.  1.
<mgrwt>
<rscale>  0 0.31114593E+04</rscale>
<asrwt>0</asrwt>
<pdfrwt beam="1">  1        1 0.24806137E+00 0.31114593E+04</pdfrwt>
<pdfrwt beam="2">  1       -1 0.23093109E+00 0.31114593E+04</pdfrwt>
<totfact> 0.42926923E-01</totfact>
</mgrwt>
</event>
<event>
 6    1  0.1603085E-006  0.1433333E+04  0.7818608E-02  0.8930038E-01
          2   -1    0    0  501    0  0.00000000000E+00  0.00000000000E+00  0.14282122675E+04  0.14282122675E+04  0.00000000000E+00 0.  1.
         -2   -1    0    0    0  501 -0.00000000000E+00 -0.00000000000E+00 -0.35961786334E+03  0.35961786334E+03  0.00000000000E+00 0. -1.
         23    2    1    2    0    0  0.64977800776E+03 -0.31243460051E+02  0.90163978355E+03  0.11162190392E+04  0.99010256665E+02 0.  0.
         11    1    3    3    0    0  0.39878637003E+03 -0.65303977499E+02  0.53027199110E+03  0.66669600490E+03  0.00000000000E+00 0. -1.
        -11    1    3    3    0    0  0.25099163773E+03  0.34060517448E+02  0.37136779245E+03  0.44952303426E+03  0.00000000000E+00 0.  1.
         22    1    1    2    0    0 -0.64977800776E+03  0.31243460051E+02  0.16695462065E+03  0.67161109172E+03  0.00000000000E+00 0. -1.
<mgrwt>
<rscale>  0 0.14333327E+04</rscale>
<asrwt>0</asrwt>
<pdfrwt beam="1">  1        2 0.21972496E+00 0.14333327E+04</pdfrwt>
<pdfrwt beam="2">  1       -2 0.55325826E-01 0.14333327E+04</pdfrwt>
<totfact> 0.41568122E+01</totfact>
</mgrwt>
</event>
<event>
 6    1  0.1603085E-006  0.2023334E+04  0.7818608E-02  0.8595789E-01
          2   -1    0    0  501    0  0.00000000000E+00  0.00000000000E+00  0.76742792914E+03  0.76742792914E+03  0.00000000000E+00 0. -1.
         -2   -1    0    0    0  501 -0.00000000000E+00 -0.00000000000E+00 -0.13336361771E+04  0.13336361771E+04  0.00000000000E+00 0.  1.
         23    2    1    2    0    0  0.86618417645E+03  0.10297723825E+03  0.24463577389E+03  0.91012020878E+03  0.87136636554E+02 0.  0.
         13    1    3    3    0    0  0.71525157717E+03  0.10656927308E+03  0.22796055287E+03  0.75822677497E+03  0.00000000000E+00 0. -1.
        -13    1    3    3    0    0  0.15093259928E+03 -0.35920348274E+01  0.16675221020E+02  0.15189343381E+03  0.00000000000E+00 0.  1.
         22    1    1    2    0    0 -0.86618417645E+03 -0.10297723825E+03 -0.81084402185E+03  0.11909438975E+04  0.00000000000E+00 0.  1.
<mgrwt>
<rscale>  0 0.20233335E+04</rscale>
<asrwt>0</asrwt>
<pdfrwt beam="1">  1        2 0.11806584E+00 0.20233335E+04</pdfrwt>
<pdfrwt beam="2">  1       -2 0.20517480E+00 0.20233335E+04</pdfrwt>
<totfact> 0.41498946E+00</totfact>
</mgrwt>
</event>
<event>
 6    1  0.1603085E-006  0.3150317E+04  0.7818608E-02  0.8202063E-01
         -2   -1    0    0    0  501 -0.00000000000E+00  0.00000000000E+00  0.14674724171E+04  0.14674724171E+04  0.00000000000E+00 0.  1.
          2   -1    0    0  501    0  0.00000000000E+00 -0.00000000000E+00 -0.16907462782E+04  0.16907462782E+04  0.00000000000E+00 0. -1.
         23    2    1    2    0    0  0.70529240933E+03 -0.13597852263E+04 -0.47364533073E+03  0.16060785222E+04  0.93247391440E+02 0.  0.
         13    1    3    3    0    0  0.15519681566E+03 -0.29103272886E+03 -0.62522514829E+02  0.33570100643E+03  0.00000000000E+00 0. -1.
        -13    1    3    3    0    0  0.55009559367E+03 -0.10687524974E+04 -0.41112281590E+03  0.12703775158E+04  0.00000000000E+00 0.  1.
         22    1    1    2    0    0 -0.70529240933E+03  0.13597852263E+04  0.25037146962E+03  0.15521401731E+04  0.00000000000E+00 0.  1.
<mgrwt>
<rscale>  0 0.31503165E+04</rscale>
<asrwt>0</asrwt>
<pdfrwt beam="1">  1        2 0.26011481E+00 0.31503165E+04</pdfrwt>
<pdfrwt beam="2">  1       -2 0.22576499E+00 0.31503165E+04</pdfrwt>
<totfact> 0.76271253E-01</totfact>
</mgrwt>
</event>
<event>
 6    1  0.1603085E-006  0.1348892E+04  0.7818608E-02  0.8991667E-01
          2   -1    0    0  501    0  0.00000000000E+00  0.00000000000E+00  0.10149230845E+04  0.10149230845E+04  0.00000000000E+00 0. -1.
         -2   -1    0    0    0  501 -0.00000000000E+00 -0.00000000000E+00 -0.44818909130E+03  0.44818909130E+03  0.00000000000E+00 0.  1.
         23    2    1    2    0    0 -0.44992037210E+03  0.26543058118E+03  0.74169945832E+03  0.91220869191E+03  0.95524219250E+02 0.  0.
         11    1    3    3    0    0 -0.64636490630E+02  0.11580730124E+02  0.13375831082E+03  0.14900763385E+03  0.00000000000E+00 0.  1.
        -11    1    3    3    0    0 -0.38528388147E+03  0.25384985106E+03  0.60794114750E+03  0.76320105806E+03  0.00000000000E+00 0. -1.
         22    1    1    2    0    0  0.44992037210E+03 -0.26543058118E+03 -0.17496546507E+03  0.55090348395E+03  0.00000000000E+00 0.  1.
<mgrwt>
<rscale>  0 0.13488921E+04</rscale>
<asrwt>0</asrwt>
<pdfrwt beam="1">  1        2 0.15614201E+00 0.13488921E+04</pdfrwt>
<pdfrwt beam="2">  1       -2 0.68952168E-01 0.13488921E+04</pdfrwt>
<totfact> 0.46250092E+01</totfact>
</mgrwt>
</event>
<event>
 6    1  0.1603085E-006  0.2342185E+04  0.7818608E-02  0.8461472E-01
          2   -1    0    0  501    0  0.00000000000E+00  0.00000000000E+00  0.20230018543E+04  0.20230018543E+04  0.00000000000E+00 0. -1.
         -2   -1    0    0    0  501 -0.00000000000E+00 -0.00000000000E+00 -0.67793183299E+03  0.67793183299E+03  0.00000000000E+00 0.  1.
         23    2    1    2    0    0  0.65616767695E+03 -0.47742945388E+03 -0.29747568021E+03  0.86887165633E+03  0.89169900463E+02 0.  0.
         13    1    3    3    0    0  0.59210516699E+02 -0.78016835978E+02 -0.30038032039E+02  0.10244410843E+03  0.00000000000E+00 0.  1.
        -13    1    3    3    0    0  0.59695716025E+03 -0.39941261790E+03 -0.26743764817E+03  0.76642754790E+03  0.00000000000E+00 0. -1.
         22    1    1    2    0    0 -0.65616767695E+03  0.47742945388E+03  0.16425457015E+04  0.18320620310E+04  0.00000000000E+00 0. -1.
<mgrwt>
<rscale>  0 0.23421848E+04</rscale>
<asrwt>0</asrwt>
<pdfrwt beam="1">  1        2 0.31123105E+00 0.23421848E+04</pdfrwt>
<pdfrwt beam="2">  1       -2 0.10429721E+00 0.23421848E+04</pdfrwt>
<totfact> 0.43781004E+00</totfact>
</mgrwt>
</event>
<event>
 6    1  0.1603085E-006  0.1517033E+04  0.7818608E-02  0.8873204E-01
          2   -1    0    0  501    0  0.00000000000E+00  0.00000000000E+00  0.15779966144E+04  0.15779966144E+04  0.00000000000E+00 0. -1.
         -2   -1    0    0    0  501 -0.00000000000E+00 -0.00000000000E+00 -0.36460620378E+03  0.36460620378E+03  0.00000000000E+00 0.  1.
         23    2    1    2    0    0  0.46391105156E+03 -0.59577017798E+03  0.57185652358E+03  0.95178431968E+03  0.93369903569E+02 0.  0.
         13    1    3    3    0    0  0.23770359689E+03 -0.28894942188E+03  0.34033990041E+03  0.50579246356E+03  0.00000000000E+00 0.  1.
        -13    1    3    3    0    0  0.22620745467E+03 -0.30682075610E+03  0.23151662317E+03  0.44599185612E+03  0.00000000000E+00 0. -1.
         22    1    1    2    0    0 -0.46391105156E+03  0.59577017798E+03  0.64153388703E+03  0.99081849848E+03  0.00000000000E+00 0.  1.
<mgrwt>
<rscale>  0 0.15170331E+04</rscale>
<asrwt>0</asrwt>
<pdfrwt beam="1">  1        2 0.24276871E+00 0.15170331E+04</pdfrwt>
<pdfrwt beam="2">  1       -2 0.56093263E-01 0.15170331E+04</pdfrwt>
<totfact> 0.33030109E+01</totfact>
</mgrwt>
</event>
<event>
 6    1  0.1603085E-006  0.4028610E+04  0.7818608E-02  0.7998800E-01
          2   -1    0    0  501    0  0.00000000000E+00  0.00000000000E+00  0.26523535945E+04  0.26523535945E+04  0.00000000000E+00 0. -1.
         -2   -1    0    0    0  501 -0.00000000000E+00 -0.00000000000E+00 -0.15297452922E+04  0.15297452922E+04  0.00000000000E+00 0.  1.
         23    2    1    2    0    0  0.71096242847E+03 -0.18657413838E+04  0.29333380547E+03  0.20201195442E+04  0.91541060555E+02 0.  0.
         11    1    3    3    0    0  0.35274505928E+03 -0.80013876139E+03  0.13639089187E+03  0.88501615223E+03  0.00000000000E+00 0. -1.
        -11    1    3    3    0    0  0.35821736919E+03 -0.10656026224E+04  0.15694291360E+03  0.11351033920E+04  0.00000000000E+00 0.  1.
         22    1    1    2    0    0 -0.71096242847E+03  0.18657413838E+04  0.82927449681E+03  0.21619793424E+04  0.00000000000E+00 0. -1.
<mgrwt>
<rscale>  0 0.40286104E+04</rscale>
<asrwt>0</asrwt>
<pdfrwt beam="1">  1        2 0.40805440E+00 0.40286104E+04</pdfrwt>
<pdfrwt beam="2">  1       -2 0.23534543E+00 0.40286104E+04</pdfrwt>
<totfact> 0.17660334E-01</totfact>
</mgrwt>
</event>
<event>
 6    1  0.1603085E-006  0.1174579E+04  0.7818608E-02  0.9135403E-01
         -1   -1    0    0    0  501 -0.00000000000E+00  0.00000000000E+00  0.37626016337E+03  0.37626016337E+03  0.00000000000E+00 0.  1.
          1   -1    0    0  501    0  0.00000000000E+00 -0.00000000000E+00 -0.91667666031E+03  0.91667666031E+03  0.00000000000E+00 0. -1.
         23    2    1    2    0    0  0.36763061757E+03 -0.44967399592E+03 -0.20694352846E+03  0.62318821839E+03  0.90437591690E+02 0.  0.
         13    1    3    3    0    0  0.14877653438E+03 -0.25328444682E+03 -0.10637718339E+03  0.31241570596E+03  0.00000000000E+00 0.  1.
        -13    1    3    3    0    0  0.21885408319E+03 -0.19638954910E+03 -0.10056634506E+03  0.31077251243E+03  0.00000000000E+00 0. -1.
         22    1    1    2    0    0 -0.36763061757E+03  0.44967399592E+03 -0.33347296848E+03  0.66974860529E+03  0.00000000000E+00 0. -1.
<mgrwt>
<rscale>  0 0.11745789E+04</rscale>
<asrwt>0</asrwt>
<pdfrwt beam="1">  1        1 0.14102718E+00 0.11745789E+04</pdfrwt>
<pdfrwt beam="2">  1       -1 0.57886179E-01 0.11745789E+04</pdfrwt>
<totfact> 0.52856605E+01</totfact>
</mgrwt>
</event>
<event>
 6    1  0.1603085E-006  0.3559286E+04  0.7818608E-02  0.8099882E-01
         -1   -1    0    0    0  501 -0.00000000000E+00  0.00000000000E+00  0.24886098066E+04  0.24886098066E+04  0.00000000000E+00 0.  1.
          1   -1    0    0  501    0  0.00000000000E+00 -0.00000000000E+00 -0.12726498106E+04  0.12726498106E+04  0.00000000000E+00 0. -1.
         23    2    1    2    0    0 -0.12817760704E+04 -0.49498344353E+03  0.18016395528E+04  0.22676133916E+04  0.90592006691E+02 0.  0.
         11    1    3    3    0    0 -0.75540745410E+03 -0.25857559540E+03  0.99232457995E+03  0.12736600144E+04  0.00000000000E+00 0. -1.
        -11    1    3    3    0    0 -0.52636861632E+03 -0.23640784813E+03  0.80931497280E+03  0.99395337723E+03  0.00000000000E+00 0.  1.
         22    1    1    2    0    0  0.12817760704E+04  0.49498344353E+03 -0.58567955681E+03  0.14936462256E+04  0.00000000000E+00 0. -1.
<mgrwt>
<rscale>  0 0.35592858E+04</rscale>
<asrwt>0</asrwt>
<pdfrwt beam="1">  1        1 0.19579228E+00 0.35592858E+04</pdfrwt>
<pdfrwt beam="2">  1       -1 0.38286305E+00 0.35592858E+04</pdfrwt>
<totfact> 0.71837478E-02</totfact>
</mgrwt>
</event>
<event>
 6    1  0.1603085E-006  0.2337521E+04  0.7818608E-02  0.8463272E-01
         -1   -1    0    0    0  501 -0.00000000000E+00  0.00000000000E+00  0.50672014375E+03  0.50672014375E+03  0.00000000000E+00 0.  1.
          1   -1    0    0  501    0  0.00000000000E+00 -0.00000000000E+00 -0.26957692995E+04  0.26957692995E+04  0.00000000000E+00 0. -1.
         23    2    1    2    0    0 -0.37248083654E+03 -0.70866975240E+03 -0.22594976231E+04  0.23987993424E+04  0.89185117310E+02 0.  0.
         13    1    3    3    0    0 -0.18001561094E+03 -0.41426417801E+03 -0.11831157571E+04  0.12664056712E+04  0.00000000000E+00 0. -1.
        -13    1    3    3    0    0 -0.19246522560E+03 -0.29440557438E+03 -0.10763818659E+04  0.11323936712E+04  0.00000000000E+00 0.  1.
         22    1    1    2    0    0  0.37248083654E+03  0.70866975240E+03  0.70448467325E+02  0.80369010079E+03  0.00000000000E+00 0.  1.
<mgrwt>
<rscale>  0 0.23375206E+04</rscale>
<asrwt>0</asrwt>
<pdfrwt beam="1">  1        1 0.41473374E+00 0.23375206E+04</pdfrwt>
<pdfrwt beam="2">  1       -1 0.77956946E-01 0.23375206E+04</pdfrwt>
<totfact> 0.14672608E+00</totfact>
</mgrwt>
</event>
<event>
 6    1  0.1603085E-006  0.2443864E+04  0.7818608E-02  0.8423262E-01
          2   -1    0    0  501    0  0.00000000000E+00  0.00000000000E+00  0.21896800697E+04  0.21896800697E+04  0.00000000000E+00 0.  1.
         -2   -1    0    0    0  501 -0.00000000000E+00 -0.00000000000E+00 -0.68188871835E+03  0.68188871835E+03  0.00000000000E+00 0. -1.
         23    2    1    2    0    0 -0.10132254949E+04  0.57810177919E+03  0.11757610335E+04  0.16586913406E+04  0.89528681960E+02 0.  0.
         13    1    3    3    0    0 -0.51608856549E+03  0.24497630673E+03  0.55655300924E+03  0.79756632977E+03  0.00000000000E+00 0.  1.
        -13    1    3    3    0    0 -0.49713692943E+03  0.33312547246E+03  0.61920802421E+03  0.86112501081E+03  0.00000000000E+00 0. -1.
         22    1    1    2    0    0  0.10132254949E+04 -0.57810177919E+03  0.33203031794E+03  0.12128774475E+04  0.00000000000E+00 0. -1.
<mgrwt>
<rscale>  0 0.24438643E+04</rscale>
<asrwt>0</asrwt>
<pdfrwt beam="1">  1        2 0.33687385E+00 0.24438643E+04</pdfrwt>
<pdfrwt beam="2">  1       -2 0.10490596E+00 0.24438643E+04</pdfrwt>
<totfact> 0.34538718E+00</totfact>
</mgrwt>
</event>
<event>
 6    1  0.1603085E-006  0.4615064E+04  0.7818608E-02  0.7890797E-01
         -2   -1    0    0    0  501 -0.00000000000E+00  0.00000000000E+00  0.14590339494E+04  0.14590339494E+04  0.00000000000E+00 0.  1.
          2   -1    0    0  501    0  0.00000000000E+00 -0.00000000000E+00 -0.36494716106E+04  0.36494716106E+04  0.00000000000E+00 0. -1.
         23    2    1    2    0    0 -0.10198409727E+04 -0.33848666915E+03  0.11636738632E+04  0.15864730569E+04  0.90061454629E+02 0.  0.
         13    1    3    3    0    0 -0.57186128551E+03 -0.16202167358E+03  0.58935259050E+03  0.83702618149E+03  0.00000000000E+00 0. -1.
        -13    1    3    3    0    0 -0.44797968721E+03 -0.17646499558E+03  0.57432127268E+03  0.74944687541E+03  0.00000000000E+00 0.  1.
         22    1    1    2    0    0  0.10198409727E+04  0.33848666915E+03 -0.33541115244E+04  0.35220325031E+04  0.00000000000E+00 0. -1.
<mgrwt>
<rscale>  0 0.46150636E+04</rscale>
<asrwt>0</asrwt>
<pdfrwt beam="1">  1        2 0.56145717E+00 0.46150636E+04</pdfrwt>
<pdfrwt beam="2">  1       -2 0.22446676E+00 0.46150636E+04</pdfrwt>
<totfact> 0.44090042E-02</totfact>
</mgrwt>
</event>
<event>
 6    1  0.1603085E-006  0.5131713E+04  0.7818608E-02  0.7808504E-01
          2   -1    0    0  501    0  0.00000000000E+00  0.00000000000E+00  0.12114872299E+04  0.12114872299E+04  0.00000000000E+00 0. -1.
         -2   -1    0    0    0  501 -0.00000000000E+00 -0.00000000000E+00 -0.54343278747E+04  0.54343278747E+04  0.00000000000E+00 0.  1.
         23    2    1    2    0    0 -0.15722476578E+04 -0.19119369021E+03 -0.47250725949E+04  0.49842632227E+04  0.89728044691E+02 0.  0.
         13    1    3    3    0    0 -0.66046137965E+03 -0.10502468670E+03 -0.18789966013E+04  0.19944592366E+04  0.00000000000E+00 0.  1.
        -13    1    3    3    0    0 -0.91178627812E+03 -0.86169003512E+02 -0.28460759936E+04  0.29898039861E+04  0.00000000000E+00 0. -1.
         22    1    1    2    0    0  0.15722476578E+04  0.19119369021E+03  0.50223195001E+03  0.16615518819E+04  0.00000000000E+00 0. -1.
<mgrwt>
<rscale>  0 0.51317127E+04</rscale>
<asrwt>0</asrwt>
<pdfrwt beam="1">  1        2 0.18638265E+00 0.51317127E+04</pdfrwt>
<pdfrwt beam="2">  1       -2 0.83605044E+00 0.51317127E+04</pdfrwt>
<totfact> 0.57827494E-04</totfact>
</mgrwt>
</event>
<event>
 6    1  0.1603085E-006  0.3371953E+04  0.7818608E-02  0.8144824E-01
          1   -1    0    0  501    0  0.00000000000E+00  0.00000000000E+00  0.14601311027E+04  0.14601311027E+04  0.00000000000E+00 0. -1.
         -1   -1    0    0    0  501 -0.00000000000E+00 -0.00000000000E+00 -0.19467548614E+04  0.19467548614E+04  0.00000000000E+00 0.  1.
         23    2    1    2    0    0  0.83846580040E+03  0.71239297063E+03 -0.15325713887E+04  0.18888164374E+04  0.91235024170E+02 0.  0.
         13    1    3    3    0    0  0.70130750936E+02  0.71397590373E+02 -0.18552780535E+03  0.21079967907E+03  0.00000000000E+00 0. -1.
        -13    1    3    3    0    0  0.76833504946E+03  0.64099538026E+03 -0.13470435834E+04  0.16780167583E+04  0.00000000000E+00 0.  1.
         22    1    1    2    0    0 -0.83846580040E+03 -0.71239297063E+03  0.10459476300E+04  0.15180695267E+04  0.00000000000E+00 0. -1.
<mgrwt>
<rscale>  0 0.33719533E+04</rscale>
<asrwt>0</asrwt>
<pdfrwt beam="1">  1        1 0.22463555E+00 0.33719533E+04</pdfrwt>
<pdfrwt beam="2">  1       -1 0.29950075E+00 0.33719533E+04</pdfrwt>
<totfact> 0.19129345E-01</totfact>
</mgrwt>
</event>
<event>
 6    1  0.1603085E-006  0.9300559E+03  0.7818608E-02  0.9388771E-01
         -2   -1    0    0    0  501 -0.00000000000E+00  0.00000000000E+00  0.27854919858E+03  0.27854919858E+03  0.00000000000E+00 0.  1.
          2   -1    0    0  501    0  0.00000000000E+00 -0.00000000000E+00 -0.77634756661E+03  0.77634756661E+03  0.00000000000E+00 0. -1.
         23    2    1    2    0    0 -0.53444733743E+02 -0.41777156907E+03 -0.46281149644E+03  0.63226985565E+03  0.90450349048E+02 0.  0.
         11    1    3    3    0    0 -0.16523935725E+01 -0.46636163221E+02 -0.10154010765E+03  0.11174996907E+03  0.00000000000E+00 0.  1.
        -11    1    3    3    0    0 -0.51792340171E+02 -0.37113540584E+03 -0.36127138878E+03  0.52051988658E+03  0.00000000000E+00 0. -1.
         22    1    1    2    0    0  0.53444733743E+02  0.41777156907E+03 -0.34986871587E+02  0.42262690954E+03  0.00000000000E+00 0.  1.
<mgrwt>
<rscale>  0 0.93005590E+03</rscale>
<asrwt>0</asrwt>
<pdfrwt beam="1">  1        2 0.11943808E+00 0.93005590E+03</pdfrwt>
<pdfrwt beam="2">  1       -2 0.42853724E-01 0.93005590E+03</pdfrwt>
<totfact> 0.18527663E+02</totfact>
</mgrwt>
</event>
<event>
 6    1  0.1778930E-006  0.3334549E+04  0.7818608E-02  0.8154160E-01
          2   -1    0    0  501    0  0.00000000000E+00  0.00000000000E+00  0.17260692578E+04  0.17260692578E+04  0.00000000000E+00 0. -1.
         -2   -1    0    0    0  501 -0.00000000000E+00 -0.00000000000E+00 -0.16104821219E+04  0.16104821219E+04  0.00000000000E+00 0.  1.
         23    2    1    2    0    0  0.71007337628E+03  0.12628071053E+04  0.88091742282E+03  0.16980714643E+04  0.92440289987E+02 0.  0.
         13    1    3    3    0    0  0.39752109073E+03  0.61389341336E+03  0.45254474192E+03  0.86004934974E+03  0.00000000000E+00 0.  1.
        -13    1    3    3    0    0  0.31255228555E+03  0.64891369196E+03  0.42837268090E+03  0.83802211459E+03  0.00000000000E+00 0. -1.
         22    1    1    2    0    0 -0.71007337628E+03 -0.12628071053E+04 -0.76533028690E+03  0.16384799153E+04  0.00000000000E+00 0.  1.
<mgrwt>
<rscale>  0 0.33345487E+04</rscale>
<asrwt>0</asrwt>
<pdfrwt beam="1">  1        2 0.26554912E+00 0.33345487E+04</pdfrwt>
<pdfrwt beam="2">  1       -2 0.24776648E+00 0.33345487E+04</pdfrwt>
<totfact> 0.52400143E-01</totfact>
</mgrwt>
</event>
<event>
 6    1  0.1603085E-006  0.1625164E+04  0.7818608E-02  0.8805236E-01
          1   -1    0    0  501    0  0.00000000000E+00  0.00000000000E+00  0.58917676994E+03  0.58917676994E+03  0.00000000000E+00 0. -1.
         -1   -1    0    0    0  501 -0.00000000000E+00 -0.00000000000E+00 -0.11206988922E+04  0.11206988922E+04  0.00000000000E+00 0.  1.
         23    2    1    2    0    0  0.71081998523E+03  0.33310195638E+03 -0.56219374317E+02  0.79219670579E+03  0.90515401233E+02 0.  0.
         11    1    3    3    0    0  0.34054431062E+03  0.16797447873E+03 -0.71904913353E+02  0.38646625928E+03  0.00000000000E+00 0.  1.
        -11    1    3    3    0    0  0.37027567461E+03  0.16512747765E+03  0.15685539036E+02  0.40573044651E+03  0.00000000000E+00 0. -1.
         22    1    1    2    0    0 -0.71081998523E+03 -0.33310195638E+03 -0.47530274798E+03  0.91767895638E+03  0.00000000000E+00 0.  1.
<mgrwt>
<rscale>  0 0.16251643E+04</rscale>
<asrwt>0</asrwt>
<pdfrwt beam="1">  1        1 0.90642581E-01 0.16251643E+04</pdfrwt>
<pdfrwt beam="2">  1       -1 0.17241521E+00 0.16251643E+04</pdfrwt>
<totfact> 0.79526730E+00</totfact>
</mgrwt>
</event>
<event>
 6    1  0.1603085E-006  0.2569335E+04  0.7818608E-02  0.8378693E-01
         -1   -1    0    0    0  501 -0.00000000000E+00  0.00000000000E+00  0.13467923871E+04  0.13467923871E+04  0.00000000000E+00 0.  1.
          1   -1    0    0  501    0  0.00000000000E+00 -0.00000000000E+00 -0.12254081938E+04  0.12254081938E+04  0.00000000000E+00 0. -1.
         23    2    1    2    0    0  0.11140298366E+03  0.12410124252E+04 -0.24585197146E+03  0.12732067914E+04  0.89943745914E+02 0.  0.
         13    1    3    3    0    0  0.10130003783E+03  0.72965490438E+03 -0.17174156787E+03  0.75640805342E+03  0.00000000000E+00 0.  1.
        -13    1    3    3    0    0  0.10102945837E+02  0.51135752085E+03 -0.74110403589E+02  0.51679873796E+03  0.00000000000E+00 0. -1.
         22    1    1    2    0    0 -0.11140298366E+03 -0.12410124252E+04  0.36723616475E+03  0.12989937895E+04  0.00000000000E+00 0.  1.
<mgrwt>
<rscale>  0 0.25693349E+04</rscale>
<asrwt>0</asrwt>
<pdfrwt beam="1">  1        1 0.18852434E+00 0.25693349E+04</pdfrwt>
<pdfrwt beam="2">  1       -1 0.20719883E+00 0.25693349E+04</pdfrwt>
<totfact> 0.12145825E+00</totfact>
</mgrwt>
</event>
<event>
 6    1  0.1603085E-006  0.2178328E+04  0.7818608E-02  0.8527503E-01
         -2   -1    0    0    0  501 -0.00000000000E+00  0.00000000000E+00  0.21741226193E+03  0.21741226193E+03  0.00000000000E+00 0.  1.
          2   -1    0    0  501    0  0.00000000000E+00 -0.00000000000E+00 -0.54563531853E+04  0.54563531853E+04  0.00000000000E+00 0. -1.
         23    2    1    2    0    0 -0.85815256167E+02 -0.10832457198E+04 -0.27224901553E+04  0.29327236716E+04  0.90166182829E+02 0.  0.
         13    1    3    3    0    0 -0.10230442722E+03 -0.81363464404E+03 -0.20223284926E+04  0.21822648927E+04  0.00000000000E+00 0.  1.
        -13    1    3    3    0    0  0.16489171053E+02 -0.26961107578E+03 -0.70016166275E+03  0.75045877897E+03  0.00000000000E+00 0. -1.
         22    1    1    2    0    0  0.85815256167E+02  0.10832457198E+04 -0.25164507680E+04  0.27410417756E+04  0.00000000000E+00 0.  1.
<mgrwt>
<rscale>  0 0.21783279E+04</rscale>
<asrwt>0</asrwt>
<pdfrwt beam="1">  1        2 0.83943888E+00 0.21783279E+04</pdfrwt>
<pdfrwt beam="2">  1       -2 0.33448043E-01 0.21783279E+04</pdfrwt>
<totfact> 0.56477844E-02</totfact>
</mgrwt>
</event>
<event>
 6    1  0.1603085E-006  0.2681521E+04  0.7818608E-02  0.8341026E-01
         -2   -1    0    0    0  501 -0.00000000000E+00  0.00000000000E+00  0.13215342246E+04  0.13215342246E+04  0.00000000000E+00 0.  1.
          2   -1    0    0  501    0  0.00000000000E+00 -0.00000000000E+00 -0.13602662113E+04  0.13602662113E+04  0.00000000000E+00 0. -1.
         23    2    1    2    0    0  0.12111080589E+03 -0.49571058123E+03 -0.12576755263E+04  0.13603541978E+04  0.91755143198E+02 0.  0.
         13    1    3    3    0    0  0.10672020486E+03 -0.45399557869E+03 -0.10641086133E+04  0.11618211258E+04  0.00000000000E+00 0. -1.
        -13    1    3    3    0    0  0.14390601035E+02 -0.41715002540E+02 -0.19356691303E+03  0.19853307195E+03  0.00000000000E+00 0.  1.
         22    1    1    2    0    0 -0.12111080589E+03  0.49571058123E+03  0.12189435396E+04  0.13214462381E+04  0.00000000000E+00 0.  1.
<mgrwt>
<rscale>  0 0.26815207E+04</rscale>
<asrwt>0</asrwt>
<pdfrwt beam="1">  1        2 0.20927173E+00 0.26815207E+04</pdfrwt>
<pdfrwt beam="2">  1       -2 0.20331296E+00 0.26815207E+04</pdfrwt>
<totfact> 0.16956046E+00</totfact>
</mgrwt>
</event>
<event>
 6    1  0.1603085E-006  0.4529480E+03  0.7818608E-02  0.1026847E+00
          1   -1    0    0  501    0  0.00000000000E+00  0.00000000000E+00  0.34704285220E+03  0.34704285220E+03  0.00000000000E+00 0. -1.
         -1   -1    0    0    0  501 -0.00000000000E+00 -0.00000000000E+00 -0.14779291581E+03  0.14779291581E+03  0.00000000000E+00 0.  1.
         23    2    1    2    0    0  0.55414047649E+02 -0.18638837425E+03  0.21064034277E+03  0.30005105585E+03  0.88599883668E+02 0.  0.
         11    1    3    3    0    0  0.45978633212E+02 -0.88194293258E+02  0.16192513207E+03  0.19003161966E+03  0.00000000000E+00 0.  1.
        -11    1    3    3    0    0  0.94354144377E+01 -0.98194080990E+02  0.48715210702E+02  0.11001943620E+03  0.00000000000E+00 0. -1.
         22    1    1    2    0    0 -0.55414047649E+02  0.18638837425E+03 -0.11390406378E+02  0.19478471215E+03  0.00000000000E+00 0.  1.
<mgrwt>
<rscale>  0 0.45294801E+03</rscale>
<asrwt>0</asrwt>
<pdfrwt beam="1">  1        1 0.53391208E-01 0.45294801E+03</pdfrwt>
<pdfrwt beam="2">  1       -1 0.22737372E-01 0.45294801E+03</pdfrwt>
<totfact> 0.11918701E+03</totfact>
</mgrwt>
</event>
<event>
 6    1  0.1603085E-006  0.5878704E+03  0.7818608E-02  0.9930896E-01
          2   -1    0    0  501    0  0.00000000000E+00  0.00000000000E+00  0.83469601140E+03  0.83469601140E+03  0.00000000000E+00 0. -1.
         -2   -1    0    0    0  501 -0.00000000000E+00 -0.00000000000E+00 -0.10350822700E+03  0.10350822700E+03  0.00000000000E+00 0.  1.
         23    2    1    2    0    0  0.48397283718E+02 -0.27328864354E+03  0.49112608247E+03  0.57124565697E+03  0.89932151981E+02 0.  0.
         11    1    3    3    0    0  0.37017839221E+02 -0.51519020883E+02  0.65568062320E+02  0.91234317719E+02  0.00000000000E+00 0.  1.
        -11    1    3    3    0    0  0.11379444497E+02 -0.22176962265E+03  0.42555802015E+03  0.48001133925E+03  0.00000000000E+00 0. -1.
         22    1    1    2    0    0 -0.48397283718E+02  0.27328864354E+03  0.24006170193E+03  0.36695858144E+03  0.00000000000E+00 0.  1.
<mgrwt>
<rscale>  0 0.58787041E+03</rscale>
<asrwt>0</asrwt>
<pdfrwt beam="1">  1        2 0.12841477E+00 0.58787041E+03</pdfrwt>
<pdfrwt beam="2">  1       -2 0.15924343E-01 0.58787041E+03</pdfrwt>
<totfact> 0.10354807E+03</totfact>
</mgrwt>
</event>
<event>
 6    1  0.1603085E-006  0.1919714E+04  0.7818608E-02  0.8645105E-01
         -2   -1    0    0    0  501 -0.00000000000E+00  0.00000000000E+00  0.55360054652E+03  0.55360054652E+03  0.00000000000E+00 0.  1.
          2   -1    0    0  501    0  0.00000000000E+00 -0.00000000000E+00 -0.16642414984E+04  0.16642414984E+04  0.00000000000E+00 0. -1.
         23    2    1    2    0    0  0.53966873201E+03  0.70805562838E+03 -0.14909153664E+03  0.90743661487E+03  0.92886008265E+02 0.  0.
         11    1    3    3    0    0  0.44702462262E+03  0.53338199230E+03 -0.13739607648E+03  0.70936946987E+03  0.00000000000E+00 0.  1.
        -11    1    3    3    0    0  0.92644109382E+02  0.17467363607E+03 -0.11695460157E+02  0.19806714501E+03  0.00000000000E+00 0. -1.
         22    1    1    2    0    0 -0.53966873201E+03 -0.70805562838E+03 -0.96154941526E+03  0.13104054301E+04  0.00000000000E+00 0.  1.
<mgrwt>
<rscale>  0 0.19197135E+04</rscale>
<asrwt>0</asrwt>
<pdfrwt beam="1">  1        2 0.25603716E+00 0.19197135E+04</pdfrwt>
<pdfrwt beam="2">  1       -2 0.85169314E-01 0.19197135E+04</pdfrwt>
<totfact> 0.11515405E+01</totfact>
</mgrwt>
</event>
<event>
 6    1  0.1603085E-006  0.2461318E+04  0.7818608E-02  0.8416897E-01
          1   -1    0    0  501    0  0.00000000000E+00  0.00000000000E+00  0.24954445608E+04  0.24954445608E+04  0.00000000000E+00 0. -1.
         -1   -1    0    0    0  501 -0.00000000000E+00 -0.00000000000E+00 -0.60691463019E+03  0.60691463019E+03  0.00000000000E+00 0.  1.
         23    2    1    2    0    0 -0.76444391488E+03 -0.71167787592E+03  0.12902558808E+03  0.10562127081E+04  0.89876494565E+02 0.  0.
         11    1    3    3    0    0 -0.54927779858E+03 -0.45479590907E+03  0.81344670233E+02  0.71774812733E+03  0.00000000000E+00 0.  1.
        -11    1    3    3    0    0 -0.21516611630E+03 -0.25688196685E+03  0.47680917842E+02  0.33846458075E+03  0.00000000000E+00 0. -1.
         22    1    1    2    0    0  0.76444391488E+03  0.71167787592E+03  0.17595043425E+04  0.20461464829E+04  0.00000000000E+00 0. -1.
<mgrwt>
<rscale>  0 0.24613182E+04</rscale>
<asrwt>0</asrwt>
<pdfrwt beam="1">  1        1 0.38391454E+00 0.24613182E+04</pdfrwt>
<pdfrwt beam="2">  1       -1 0.93371483E-01 0.24613182E+04</pdfrwt>
<totfact> 0.13536124E+00</totfact>
</mgrwt>
</event>
<event>
 6    1  0.1603085E-006  0.5443488E+04  0.7818608E-02  0.7763513E-01
         -2   -1    0    0    0  501 -0.00000000000E+00  0.00000000000E+00  0.18108001217E+04  0.18108001217E+04  0.00000000000E+00 0.  1.
          2   -1    0    0  501    0  0.00000000000E+00 -0.00000000000E+00 -0.40909493426E+04  0.40909493426E+04  0.00000000000E+00 0. -1.
         23    2    1    2    0    0 -0.84557286347E+03 -0.15633942777E+04 -0.33740872971E+04  0.38146712077E+04  0.89756332970E+02 0.  0.
         11    1    3    3    0    0 -0.52776235123E+03 -0.93671253266E+03 -0.21249880476E+04  0.23814990385E+04  0.00000000000E+00 0.  1.
        -11    1    3    3    0    0 -0.31781051224E+03 -0.62668174502E+03 -0.12490992495E+04  0.14331721691E+04  0.00000000000E+00 0. -1.
         22    1    1    2    0    0  0.84557286347E+03  0.15633942777E+04  0.10939380762E+04  0.20870782567E+04  0.00000000000E+00 0.  1.
<mgrwt>
<rscale>  0 0.54434884E+04</rscale>
<asrwt>0</asrwt>
<pdfrwt beam="1">  1        2 0.62937682E+00 0.54434884E+04</pdfrwt>
<pdfrwt beam="2">  1       -2 0.27858464E+00 0.54434884E+04</pdfrwt>
<totfact> 0.86453735E-03</totfact>
</mgrwt>
</event>
<event>
 6    1  0.1603085E-006  0.3382520E+04  0.7818608E-02  0.8142210E-01
         -1   -1    0    0    0  501 -0.00000000000E+00  0.00000000000E+00  0.12290328320E+04  0.12290328320E+04  0.00000000000E+00 0.  1.
          1   -1    0    0  501    0  0.00000000000E+00 -0.00000000000E+00 -0.23273264942E+04  0.23273264942E+04  0.00000000000E+00 0. -1.
         23    2    1    2    0    0  0.11239545957E+04  0.10532401321E+04 -0.12807082043E+04  0.20052746174E+04  0.91236384495E+02 0.  0.
         13    1    3    3    0    0  0.10605970437E+04  0.96577503934E+03 -0.11764488551E+04  0.18551602153E+04  0.00000000000E+00 0. -1.
        -13    1    3    3    0    0  0.63357551969E+02  0.87465092721E+02 -0.10425934921E+03  0.15011440216E+03  0.00000000000E+00 0.  1.
         22    1    1    2    0    0 -0.11239545957E+04 -0.10532401321E+04  0.18241454207E+03  0.15510847089E+04  0.00000000000E+00 0.  1.
<mgrwt>
<rscale>  0 0.33825202E+04</rscale>
<asrwt>0</asrwt>
<pdfrwt beam="1">  1        1 0.35805023E+00 0.33825202E+04</pdfrwt>
<pdfrwt beam="2">  1       -1 0.18908197E+00 0.33825202E+04</pdfrwt>
<totfact> 0.26337231E-01</totfact>
</mgrwt>
</event>
<event>
 6    1  0.1603085E-006  0.1303099E+04  0.7818608E-02  0.9027111E-01
         -1   -1    0    0    0  501 -0.00000000000E+00  0.00000000000E+00  0.38440580258E+03  0.38440580258E+03  0.00000000000E+00 0.  1.
          1   -1    0    0  501    0  0.00000000000E+00 -0.00000000000E+00 -0.11043452376E+04  0.11043452376E+04  0.00000000000E+00 0. -1.
         23    2    1    2    0    0  0.51724704597E+03  0.38532523902E+03 -0.28246256832E+03  0.70938844466E+03  0.86178979629E+02 0.  0.
         13    1    3    3    0    0  0.43609074682E+03  0.30695243221E+03 -0.26403927684E+03  0.59507283152E+03  0.00000000000E+00 0.  1.
        -13    1    3    3    0    0  0.81156299149E+02  0.78372806814E+02 -0.18423291483E+02  0.11431561314E+03  0.00000000000E+00 0. -1.
         22    1    1    2    0    0 -0.51724704597E+03 -0.38532523902E+03 -0.43747686669E+03  0.77936259551E+03  0.00000000000E+00 0.  1.
<mgrwt>
<rscale>  0 0.13030989E+04</rscale>
<asrwt>0</asrwt>
<pdfrwt beam="1">  1        1 0.16989927E+00 0.13030989E+04</pdfrwt>
<pdfrwt beam="2">  1       -1 0.59139354E-01 0.13030989E+04</pdfrwt>
<totfact> 0.35822968E+01</totfact>
</mgrwt>
</event>
<event>
 6    1  0.1603085E-006  0.2239019E+04  0.7818608E-02  0.8502361E-01
          2   -1    0    0  501    0  0.00000000000E+00  0.00000000000E+00  0.71983524437E+03  0.71983524437E+03  0.00000000000E+00 0. -1.
         -2   -1    0    0    0  501 -0.00000000000E+00 -0.00000000000E+00 -0.17410943659E+04  0.17410943659E+04  0.00000000000E+00 0.  1.
         23    2    1    2    0    0 -0.95152382943E+03 -0.27633035049E+03 -0.10798316224E+04  0.14683638450E+04  0.91104270120E+02 0.  0.
         11    1    3    3    0    0 -0.36855115033E+03 -0.76543566073E+02 -0.36120622838E+03  0.52168841978E+03  0.00000000000E+00 0.  1.
        -11    1    3    3    0    0 -0.58297267910E+03 -0.19978678441E+03 -0.71862539400E+03  0.94667542522E+03  0.00000000000E+00 0. -1.
         22    1    1    2    0    0  0.95152382943E+03  0.27633035049E+03  0.58572500829E+02  0.99256576529E+03  0.00000000000E+00 0. -1.
<mgrwt>
<rscale>  0 0.22390186E+04</rscale>
<asrwt>0</asrwt>
<pdfrwt beam="1">  1        2 0.11074389E+00 0.22390186E+04</pdfrwt>
<pdfrwt beam="2">  1       -2 0.26786067E+00 0.22390186E+04</pdfrwt>
<totfact> 0.17993885E+00</totfact>
</mgrwt>
</event>
<event>
 6    1  0.1603085E-006  0.3699137E+04  0.7818608E-02  0.8068153E-01
         -2   -1    0    0    0  501 -0.00000000000E+00  0.00000000000E+00  0.11561542494E+04  0.11561542494E+04  0.00000000000E+00 0.  1.
          2   -1    0    0  501    0  0.00000000000E+00 -0.00000000000E+00 -0.29588648879E+04  0.29588648879E+04  0.00000000000E+00 0. -1.
         23    2    1    2    0    0  0.13679718507E+04  0.12394058181E+04 -0.79460934394E+03  0.20117497808E+04  0.90881268047E+02 0.  0.
         11    1    3    3    0    0  0.61563089169E+03  0.59781584236E+03 -0.33194644994E+03  0.92009435483E+03  0.00000000000E+00 0. -1.
        -11    1    3    3    0    0  0.75234095901E+03  0.64158997571E+03 -0.46266289400E+03  0.10916554260E+04  0.00000000000E+00 0.  1.
         22    1    1    2    0    0 -0.13679718507E+04 -0.12394058181E+04 -0.10081012945E+04  0.21032693565E+04  0.00000000000E+00 0. -1.
<mgrwt>
<rscale>  0 0.36991373E+04</rscale>
<asrwt>0</asrwt>
<pdfrwt beam="1">  1        2 0.45520998E+00 0.36991373E+04</pdfrwt>
<pdfrwt beam="2">  1       -2 0.17786988E+00 0.36991373E+04</pdfrwt>
<totfact> 0.28001584E-01</totfact>
</mgrwt>
</event>
<event>
 6    1  0.1603085E-006  0.2745267E+04  0.7818608E-02  0.8320465E-01
          1   -1    0    0  501    0  0.00000000000E+00  0.00000000000E+00  0.69597381203E+03  0.69597381203E+03  0.00000000000E+00 0. -1.
         -1   -1    0    0    0  501 -0.00000000000E+00 -0.00000000000E+00 -0.27071744310E+04  0.27071744310E+04  0.00000000000E+00 0.  1.
         23    2    1    2    0    0  0.23655098340E+03  0.13283704690E+04 -0.13081556268E+04  0.18817026372E+04  0.94916806173E+02 0.  0.
         13    1    3    3    0    0  0.99091840923E+02  0.81935470429E+03 -0.79230533846E+03  0.11440756416E+04  0.00000000000E+00 0. -1.
        -13    1    3    3    0    0  0.13745914248E+03  0.50901576470E+03 -0.51585028838E+03  0.73762699556E+03  0.00000000000E+00 0.  1.
         22    1    1    2    0    0 -0.23655098340E+03 -0.13283704690E+04 -0.70304499213E+03  0.15214456059E+04  0.00000000000E+00 0. -1.
<mgrwt>
<rscale>  0 0.27452668E+04</rscale>
<asrwt>0</asrwt>
<pdfrwt beam="1">  1        1 0.10707290E+00 0.27452668E+04</pdfrwt>
<pdfrwt beam="2">  1       -1 0.41648837E+00 0.27452668E+04</pdfrwt>
<totfact> 0.13170247E-01</totfact>
</mgrwt>
</event>
<event>
 6    1  0.1603085E-006  0.2247347E+04  0.7818608E-02  0.8498976E-01
         -1   -1    0    0    0  501 -0.00000000000E+00  0.00000000000E+00  0.64597354315E+03  0.64597354315E+03  0.00000000000E+00 0.  1.
          1   -1    0    0  501    0  0.00000000000E+00 -0.00000000000E+00 -0.19546346782E+04  0.19546346782E+04  0.00000000000E+00 0. -1.
         23    2    1    2    0    0  0.92009672122E+02 -0.84556079082E+02 -0.19457742924E+04  0.19513558162E+04  0.78335267997E+02 0.  0.
         13    1    3    3    0    0  0.43072239331E+02 -0.69196226743E+02 -0.15678026735E+04  0.15699199211E+04  0.00000000000E+00 0. -1.
        -13    1    3    3    0    0  0.48937432792E+02 -0.15359852339E+02 -0.37797161889E+03  0.38143589511E+03  0.00000000000E+00 0.  1.
         22    1    1    2    0    0 -0.92009672122E+02  0.84556079082E+02  0.63711315737E+03  0.64925240513E+03  0.00000000000E+00 0.  1.
<mgrwt>
<rscale>  0 0.22473471E+04</rscale>
<asrwt>0</asrwt>
<pdfrwt beam="1">  1        1 0.30071303E+00 0.22473471E+04</pdfrwt>
<pdfrwt beam="2">  1       -1 0.99380546E-01 0.22473471E+04</pdfrwt>
<totfact> 0.28076127E+00</totfact>
</mgrwt>
</event>
<event>
 6    1  0.1603085E-006  0.2343467E+04  0.7818608E-02  0.8460977E-01
          2   -1    0    0  501    0  0.00000000000E+00  0.00000000000E+00  0.14576977990E+04  0.14576977990E+04  0.00000000000E+00 0. -1.
         -2   -1    0    0    0  501 -0.00000000000E+00 -0.00000000000E+00 -0.94186812158E+03  0.94186812158E+03  0.00000000000E+00 0.  1.
         23    2    1    2    0    0  0.17124991030E+03  0.98066466078E+03 -0.37101486232E+03  0.10663281524E+04  0.91509518434E+02 0.  0.
         13    1    3    3    0    0  0.15855353631E+03  0.94731462985E+03 -0.37350065687E+03  0.10305566324E+04  0.00000000000E+00 0. -1.
        -13    1    3    3    0    0  0.12696373986E+02  0.33350030931E+02  0.24857945506E+01  0.35771520097E+02  0.00000000000E+00 0.  1.
         22    1    1    2    0    0 -0.17124991030E+03 -0.98066466078E+03  0.88684453972E+03  0.13332377681E+04  0.00000000000E+00 0. -1.
<mgrwt>
<rscale>  0 0.23434667E+04</rscale>
<asrwt>0</asrwt>
<pdfrwt beam="1">  1        2 0.22426120E+00 0.23434667E+04</pdfrwt>
<pdfrwt beam="2">  1       -2 0.14490279E+00 0.23434667E+04</pdfrwt>
<totfact> 0.39786228E+00</totfact>
</mgrwt>
</event>
<event>
 6    1  0.1603085E-006  0.9456328E+03  0.7818608E-02  0.9370270E-01
         -1   -1    0    0    0  501 -0.00000000000E+00  0.00000000000E+00  0.53411022429E+03  0.53411022429E+03  0.00000000000E+00 0.  1.
          1   -1    0    0  501    0  0.00000000000E+00 -0.00000000000E+00 -0.41855655778E+03  0.41855655778E+03  0.00000000000E+00 0. -1.
         23    2    1    2    0    0  0.36940777745E+03  0.13975820796E+03  0.31252778884E+03  0.51131287918E+03  0.88163364771E+02 0.  0.
         13    1    3    3    0    0  0.24624432975E+03  0.13619815063E+03  0.22159600726E+03  0.35817732564E+03  0.00000000000E+00 0. -1.
        -13    1    3    3    0    0  0.12316344770E+03  0.35600573309E+01  0.90931781581E+02  0.15313555354E+03  0.00000000000E+00 0.  1.
         22    1    1    2    0    0 -0.36940777745E+03 -0.13975820796E+03 -0.19697412232E+03  0.44135390289E+03  0.00000000000E+00 0. -1.
<mgrwt>
<rscale>  0 0.94563278E+03</rscale>
<asrwt>0</asrwt>
<pdfrwt beam="1">  1        1 0.64393317E-01 0.94563278E+03</pdfrwt>
<pdfrwt beam="2">  1       -1 0.82170804E-01 0.94563278E+03</pdfrwt>
<totfact> 0.83688261E+01</totfact>
</mgrwt>
</event>
<event>
 6    1  0.1603085E-006  0.3701344E+04  0.7818608E-02  0.8067664E-01
         -1   -1    0    0    0  501 -0.00000000000E+00  0.00000000000E+00  0.14224626541E+04  0.14224626541E+04  0.00000000000E+00 0.  1.
          1   -1    0    0  501    0  0.00000000000E+00 -0.00000000000E+00 -0.24077872300E+04  0.24077872300E+04  0.00000000000E+00 0. -1.
         23    2    1    2    0    0  0.62024428774E+03 -0.26880492847E+03 -0.22744897009E+04  0.23746037095E+04  0.92088605889E+02 0.  0.
         13    1    3    3    0    0  0.55344491073E+03 -0.20680433678E+03 -0.19470428101E+04  0.20347100549E+04  0.00000000000E+00 0. -1.
        -13    1    3    3    0    0  0.66799377014E+02 -0.62000591687E+02 -0.32744689080E+03  0.33989365460E+03  0.00000000000E+00 0.  1.
         22    1    1    2    0    0 -0.62024428774E+03  0.26880492847E+03  0.12891651251E+04  0.14556461746E+04  0.00000000000E+00 0.  1.
<mgrwt>
<rscale>  0 0.37013443E+04</rscale>
<asrwt>0</asrwt>
<pdfrwt beam="1">  1        1 0.37042880E+00 0.37013443E+04</pdfrwt>
<pdfrwt beam="2">  1       -1 0.21884041E+00 0.37013443E+04</pdfrwt>
<totfact> 0.14104029E-01</totfact>
</mgrwt>
</event>
<event>
 6    1  0.1603085E-006  0.1808825E+04  0.7818608E-02  0.8701620E-01
         -1   -1    0    0    0  501 -0.00000000000E+00  0.00000000000E+00  0.69889105132E+03  0.69889105132E+03  0.00000000000E+00 0.  1.
          1   -1    0    0  501    0  0.00000000000E+00 -0.00000000000E+00 -0.11703717221E+04  0.11703717221E+04  0.00000000000E+00 0. -1.
         23    2    1    2    0    0  0.75232670849E+03 -0.13888131874E+02 -0.75045268575E+03  0.10667581057E+04  0.92764573388E+02 0.  0.
         13    1    3    3    0    0  0.21070161067E+03 -0.10215555830E+01 -0.27116727412E+03  0.34340632328E+03  0.00000000000E+00 0. -1.
        -13    1    3    3    0    0  0.54162509782E+03 -0.12866576291E+02 -0.47928541164E+03  0.72335178245E+03  0.00000000000E+00 0.  1.
         22    1    1    2    0    0 -0.75232670849E+03  0.13888131874E+02  0.27897201497E+03  0.80250466768E+03  0.00000000000E+00 0.  1.
<mgrwt>
<rscale>  0 0.18088254E+04</rscale>
<asrwt>0</asrwt>
<pdfrwt beam="1">  1        1 0.18005719E+00 0.18088254E+04</pdfrwt>
<pdfrwt beam="2">  1       -1 0.10752170E+00 0.18088254E+04</pdfrwt>
<totfact> 0.85325668E+00</totfact>
</mgrwt>
</event>
<event>
 6    1  0.1603085E-006  0.2013042E+04  0.7818608E-02  0.8600548E-01
          2   -1    0    0  501    0  0.00000000000E+00  0.00000000000E+00  0.22096507204E+04  0.22096507204E+04  0.00000000000E+00 0. -1.
         -2   -1    0    0    0  501 -0.00000000000E+00 -0.00000000000E+00 -0.45848152769E+03  0.45848152769E+03  0.00000000000E+00 0.  1.
         23    2    1    2    0    0 -0.33759945834E+03  0.54433287461E+03  0.19029150554E+04  0.20098781334E+04  0.90844540606E+02 0.  0.
         13    1    3    3    0    0 -0.13375105313E+03  0.29729603736E+03  0.10050264517E+04  0.10565758121E+04  0.00000000000E+00 0.  1.
        -13    1    3    3    0    0 -0.20384840521E+03  0.24703683726E+03  0.89788860363E+03  0.95330232130E+03  0.00000000000E+00 0. -1.
         22    1    1    2    0    0  0.33759945834E+03 -0.54433287461E+03 -0.15174586266E+03  0.65825411468E+03  0.00000000000E+00 0.  1.
<mgrwt>
<rscale>  0 0.20130415E+04</rscale>
<asrwt>0</asrwt>
<pdfrwt beam="1">  1        2 0.33994626E+00 0.20130415E+04</pdfrwt>
<pdfrwt beam="2">  1       -2 0.70535621E-01 0.20130415E+04</pdfrwt>
<totfact> 0.86526340E+00</totfact>
</mgrwt>
</event>
<event>
 6    1  0.1603085E-006  0.3873816E+04  0.7818608E-02  0.8030497E-01
         -2   -1    0    0    0  501 -0.00000000000E+00  0.00000000000E+00  0.12095776512E+04  0.12095776512E+04  0.00000000000E+00 0.  1.
          2   -1    0    0  501    0  0.00000000000E+00 -0.00000000000E+00 -0.31015894513E+04  0.31015894513E+04  0.00000000000E+00 0. -1.
         23    2    1    2    0    0 -0.12139710685E+04 -0.72130850099E+03 -0.24201036309E+04  0.28035555177E+04  0.94922325124E+02 0.  0.
         13    1    3    3    0    0 -0.73053523655E+03 -0.40608739471E+03 -0.13516581856E+04  0.15892037486E+04  0.00000000000E+00 0.  1.
        -13    1    3    3    0    0 -0.48343583195E+03 -0.31522110629E+03 -0.10684454453E+04  0.12143517691E+04  0.00000000000E+00 0. -1.
         22    1    1    2    0    0  0.12139710685E+04  0.72130850099E+03  0.52809183079E+03  0.15076115848E+04  0.00000000000E+00 0.  1.
<mgrwt>
<rscale>  0 0.38738164E+04</rscale>
<asrwt>0</asrwt>
<pdfrwt beam="1">  1        2 0.47716761E+00 0.38738164E+04</pdfrwt>
<pdfrwt beam="2">  1       -2 0.18608887E+00 0.38738164E+04</pdfrwt>
<totfact> 0.19693017E-01</totfact>
</mgrwt>
</event>
<event>
 6    1  0.1603085E-006  0.2432545E+04  0.7818608E-02  0.8427419E-01
          1   -1    0    0  501    0  0.00000000000E+00  0.00000000000E+00  0.12138811879E+04  0.12138811879E+04  0.00000000000E+00 0. -1.
         -1   -1    0    0    0  501 -0.00000000000E+00 -0.00000000000E+00 -0.12186686133E+04  0.12186686133E+04  0.00000000000E+00 0.  1.
         23    2    1    2    0    0  0.11180735144E+04  0.45732925624E+03  0.12424228873E+03  0.12176888629E+04  0.89953255562E+02 0.  0.
         13    1    3    3    0    0  0.38656572108E+03  0.19452884899E+03  0.71500843835E+02  0.43861931156E+03  0.00000000000E+00 0.  1.
        -13    1    3    3    0    0  0.73150779335E+03  0.26280040725E+03  0.52741444890E+02  0.77906955132E+03  0.00000000000E+00 0. -1.
         22    1    1    2    0    0 -0.11180735144E+04 -0.45732925624E+03 -0.12902971409E+03  0.12148609383E+04  0.00000000000E+00 0. -1.
<mgrwt>
<rscale>  0 0.24325451E+04</rscale>
<asrwt>0</asrwt>
<pdfrwt beam="1">  1        1 0.18675095E+00 0.24325451E+04</pdfrwt>
<pdfrwt beam="2">  1       -1 0.18748748E+00 0.24325451E+04</pdfrwt>
<totfact> 0.17169318E+00</totfact>
</mgrwt>
</event>
<event>
 6    1  0.1603085E-006  0.2054700E+04  0.7818608E-02  0.8581465E-01
         -1   -1    0    0    0  501 -0.00000000000E+00  0.00000000000E+00  0.70309524077E+03  0.70309524077E+03  0.00000000000E+00 0.  1.
          1   -1    0    0  501    0  0.00000000000E+00 -0.00000000000E+00 -0.15011448393E+04  0.15011448393E+04  0.00000000000E+00 0. -1.
         23    2    1    2    0    0  0.89366958009E+03 -0.10350063743E+03  0.12788116171E+03  0.91323060176E+03  0.90988131859E+02 0.  0.
         13    1    3    3    0    0  0.58743372477E+03 -0.24373826552E+02  0.82941307409E+02  0.59376066297E+03  0.00000000000E+00 0.  1.
        -13    1    3    3    0    0  0.30623585532E+03 -0.79126810876E+02  0.44939854306E+02  0.31946993879E+03  0.00000000000E+00 0. -1.
         22    1    1    2    0    0 -0.89366958009E+03  0.10350063743E+03 -0.92593076028E+03  0.12910094783E+04  0.00000000000E+00 0. -1.
<mgrwt>
<rscale>  0 0.20546998E+04</rscale>
<asrwt>0</asrwt>
<pdfrwt beam="1">  1        1 0.23094536E+00 0.20546998E+04</pdfrwt>
<pdfrwt beam="2">  1       -1 0.10816850E+00 0.20546998E+04</pdfrwt>
<totfact> 0.47870432E+00</totfact>
</mgrwt>
</event>
<event>
 6    1  0.1603085E-006  0.3173670E+04  0.7818608E-02  0.8195806E-01
          2   -1    0    0  501    0  0.00000000000E+00  0.00000000000E+00  0.14137593997E+04  0.14137593997E+04  0.00000000000E+00 0. -1.
         -2   -1    0    0    0  501 -0.00000000000E+00 -0.00000000000E+00 -0.17810983605E+04  0.17810983605E+04  0.00000000000E+00 0.  1.
         23    2    1    2    0    0  0.91738259483E+03  0.59776426471E+03 -0.13381887627E+04  0.17314841650E+04  0.91516705486E+02 0.  0.
         11    1    3    3    0    0  0.57113183992E+03  0.42097698584E+03 -0.83988053351E+03  0.10994601001E+04  0.00000000000E+00 0. -1.
        -11    1    3    3    0    0  0.34625075490E+03  0.17678727887E+03 -0.49830822921E+03  0.63202406484E+03  0.00000000000E+00 0.  1.
         22    1    1    2    0    0 -0.91738259483E+03 -0.59776426471E+03  0.97084980195E+03  0.14633735953E+04  0.00000000000E+00 0. -1.
<mgrwt>
<rscale>  0 0.31736695E+04</rscale>
<asrwt>0</asrwt>
<pdfrwt beam="1">  1        2 0.21750145E+00 0.31736695E+04</pdfrwt>
<pdfrwt beam="2">  1       -2 0.27401513E+00 0.31736695E+04</pdfrwt>
<totfact> 0.54930341E-01</totfact>
</mgrwt>
</event>
<event>
 6    1  0.1603085E-006  0.1781840E+04  0.7818608E-02  0.8716017E-01
          1   -1    0    0  501    0  0.00000000000E+00  0.00000000000E+00  0.13136753595E+04  0.13136753595E+04  0.00000000000E+00 0. -1.
         -1   -1    0    0    0  501 -0.00000000000E+00 -0.00000000000E+00 -0.60421176488E+03  0.60421176488E+03  0.00000000000E+00 0.  1.
         23    2    1    2    0    0 -0.26865691401E+03  0.71494984768E+03  0.84454027717E+03  0.11422741201E+04  0.90620436723E+02 0.  0.
         11    1    3    3    0    0 -0.15425297777E+03  0.47911133447E+03  0.50119105125E+03  0.71030565380E+03  0.00000000000E+00 0.  1.
        -11    1    3    3    0    0 -0.11440393624E+03  0.23583851322E+03  0.34334922592E+03  0.43196846630E+03  0.00000000000E+00 0. -1.
         22    1    1    2    0    0  0.26865691401E+03 -0.71494984768E+03 -0.13507668260E+03  0.77561300423E+03  0.00000000000E+00 0.  1.
<mgrwt>
<rscale>  0 0.17818396E+04</rscale>
<asrwt>0</asrwt>
<pdfrwt beam="1">  1        1 0.20210390E+00 0.17818396E+04</pdfrwt>
<pdfrwt beam="2">  1       -1 0.92955656E-01 0.17818396E+04</pdfrwt>
<totfact> 0.93975229E+00</totfact>
</mgrwt>
</event>
<event>
 6    1  0.1603085E-006  0.2737659E+04  0.7818608E-02  0.8322888E-01
         -2   -1    0    0    0  501 -0.00000000000E+00  0.00000000000E+00  0.89933563320E+03  0.89933563320E+03  0.00000000000E+00 0.  1.
          2   -1    0    0  501    0  0.00000000000E+00 -0.00000000000E+00 -0.20834205202E+04  0.20834205202E+04  0.00000000000E+00 0. -1.
         23    2    1    2    0    0 -0.16285479981E+03 -0.11594330073E+04  0.17683571653E+03  0.11875092419E+04  0.90004137258E+02 0.  0.
         11    1    3    3    0    0 -0.11446373839E+03 -0.83274515723E+03  0.85820263168E+02  0.84494470935E+03  0.00000000000E+00 0. -1.
        -11    1    3    3    0    0 -0.48391061425E+02 -0.32668785006E+03  0.91015453357E+02  0.34256453254E+03  0.00000000000E+00 0.  1.
         22    1    1    2    0    0  0.16285479981E+03  0.11594330073E+04 -0.13609206035E+04  0.17952469115E+04  0.00000000000E+00 0. -1.
<mgrwt>
<rscale>  0 0.27376591E+04</rscale>
<asrwt>0</asrwt>
<pdfrwt beam="1">  1        2 0.32052623E+00 0.27376591E+04</pdfrwt>
<pdfrwt beam="2">  1       -2 0.13835933E+00 0.27376591E+04</pdfrwt>
<totfact> 0.19441883E+00</totfact>
</mgrwt>
</event>
<event>
 6    1  0.1603085E-006  0.2197118E+04  0.7818608E-02  0.8519629E-01
          2   -1    0    0  501    0  0.00000000000E+00  0.00000000000E+00  0.15719021482E+04  0.15719021482E+04  0.00000000000E+00 0. -1.
         -2   -1    0    0    0  501 -0.00000000000E+00 -0.00000000000E+00 -0.76775233126E+03  0.76775233126E+03  0.00000000000E+00 0.  1.
         23    2    1    2    0    0  0.65990107906E+03  0.44249176373E+03 -0.40214358052E+03  0.89521266482E+03  0.91748900738E+02 0.  0.
         13    1    3    3    0    0  0.38144163602E+02  0.29690712314E+02 -0.19641398181E+01  0.48377406502E+02  0.00000000000E+00 0.  1.
        -13    1    3    3    0    0  0.62175691546E+03  0.41280105142E+03 -0.40017944070E+03  0.84683525832E+03  0.00000000000E+00 0. -1.
         22    1    1    2    0    0 -0.65990107906E+03 -0.44249176373E+03  0.12062933975E+04  0.14444418146E+04  0.00000000000E+00 0. -1.
<mgrwt>
<rscale>  0 0.21971177E+04</rscale>
<asrwt>0</asrwt>
<pdfrwt beam="1">  1        2 0.24183110E+00 0.21971177E+04</pdfrwt>
<pdfrwt beam="2">  1       -2 0.11811574E+00 0.21971177E+04</pdfrwt>
<totfact> 0.58395215E+00</totfact>
</mgrwt>
</event>
<event>
 6    1  0.1603085E-006  0.2092797E+04  0.7818608E-02  0.8564423E-01
         -2   -1    0    0    0  501 -0.00000000000E+00  0.00000000000E+00  0.12812241041E+04  0.12812241041E+04  0.00000000000E+00 0.  1.
          2   -1    0    0  501    0  0.00000000000E+00 -0.00000000000E+00 -0.85461212287E+03  0.85461212287E+03  0.00000000000E+00 0. -1.
         23    2    1    2    0    0  0.81135070794E+03  0.40298695333E+03 -0.31680044273E+03  0.96393585241E+03  0.90118539766E+02 0.  0.
         11    1    3    3    0    0  0.20770417929E+03  0.10078979173E+03 -0.12307601916E+03  0.26162437712E+03  0.00000000000E+00 0.  1.
        -11    1    3    3    0    0  0.60364652865E+03  0.30219716160E+03 -0.19372442358E+03  0.70231147528E+03  0.00000000000E+00 0. -1.
         22    1    1    2    0    0 -0.81135070794E+03 -0.40298695333E+03  0.74341242399E+03  0.11719003746E+04  0.00000000000E+00 0.  1.
<mgrwt>
<rscale>  0 0.20927968E+04</rscale>
<asrwt>0</asrwt>
<pdfrwt beam="1">  1        2 0.13147879E+00 0.20927968E+04</pdfrwt>
<pdfrwt beam="2">  1       -2 0.19711140E+00 0.20927968E+04</pdfrwt>
<totfact> 0.40351439E+00</totfact>
</mgrwt>
</event>
<event>
 6    1  0.1603085E-006  0.1287059E+04  0.7818608E-02  0.9039891E-01
         -2   -1    0    0    0  501 -0.00000000000E+00  0.00000000000E+00  0.51620324930E+03  0.51620324930E+03  0.00000000000E+00 0.  1.
          2   -1    0    0  501    0  0.00000000000E+00 -0.00000000000E+00 -0.80226158824E+03  0.80226158824E+03  0.00000000000E+00 0. -1.
         23    2    1    2    0    0  0.14805745030E+03  0.88143609454E+02  0.48788642252E+03  0.52557089869E+03  0.92202515138E+02 0.  0.
         11    1    3    3    0    0  0.69442312669E+01  0.10932555628E+02  0.15827168090E+03  0.15880071818E+03  0.00000000000E+00 0.  1.
        -11    1    3    3    0    0  0.14111321903E+03  0.77211053826E+02  0.32961474162E+03  0.36677018051E+03  0.00000000000E+00 0. -1.
         22    1    1    2    0    0 -0.14805745030E+03 -0.88143609454E+02 -0.77394476146E+03  0.79289393885E+03  0.00000000000E+00 0. -1.
<mgrwt>
<rscale>  0 0.12870587E+04</rscale>
<asrwt>0</asrwt>
<pdfrwt beam="1">  1        2 0.12342486E+00 0.12870587E+04</pdfrwt>
<pdfrwt beam="2">  1       -2 0.79415885E-01 0.12870587E+04</pdfrwt>
<totfact> 0.47330075E+01</totfact>
</mgrwt>
</event>
<event>
 6    1  0.1603085E-006  0.2422803E+04  0.7818608E-02  0.8431015E-01
          1   -1    0    0  501    0  0.00000000000E+00  0.00000000000E+00  0.13103418749E+04  0.13103418749E+04  0.00000000000E+00 0. -1.
         -1   -1    0    0    0  501 -0.00000000000E+00 -0.00000000000E+00 -0.11199321265E+04  0.11199321265E+04  0.00000000000E+00 0.  1.
         23    2    1    2    0    0  0.14636402320E+03 -0.10414552900E+04  0.69432554882E+03  0.12640910473E+04  0.98927547301E+02 0.  0.
         13    1    3    3    0    0  0.10807001394E+03 -0.75771382381E+03  0.45119550013E+03  0.88847439246E+03  0.00000000000E+00 0. -1.
        -13    1    3    3    0    0  0.38294009256E+02 -0.28374146622E+03  0.24313004868E+03  0.37561665481E+03  0.00000000000E+00 0.  1.
         22    1    1    2    0    0 -0.14636402320E+03  0.10414552900E+04 -0.50391580045E+03  0.11661829541E+04  0.00000000000E+00 0. -1.
<mgrwt>
<rscale>  0 0.24228033E+04</rscale>
<asrwt>0</asrwt>
<pdfrwt beam="1">  1        1 0.20159106E+00 0.24228033E+04</pdfrwt>
<pdfrwt beam="2">  1       -1 0.17229725E+00 0.24228033E+04</pdfrwt>
<totfact> 0.18826827E+00</totfact>
</mgrwt>
</event>
<event>
 6    1  0.1603085E-006  0.1746760E+04  0.7818608E-02  0.8735136E-01
         -2   -1    0    0    0  501 -0.00000000000E+00  0.00000000000E+00  0.11024156263E+04  0.11024156263E+04  0.00000000000E+00 0.  1.
          2   -1    0    0  501    0  0.00000000000E+00 -0.00000000000E+00 -0.69192806752E+03  0.69192806752E+03  0.00000000000E+00 0. -1.
         23    2    1    2    0    0 -0.14691368837E+03  0.49793419352E+03  0.92417956587E+03  0.10640002329E+04  0.92013763474E+02 0.  0.
         11    1    3    3    0    0  0.34065120471E+01  0.12013643100E+03  0.22987438522E+03  0.25939660629E+03  0.00000000000E+00 0. -1.
        -11    1    3    3    0    0 -0.15032020041E+03  0.37779776252E+03  0.69430518065E+03  0.80460362657E+03  0.00000000000E+00 0.  1.
         22    1    1    2    0    0  0.14691368837E+03 -0.49793419352E+03 -0.51369200704E+03  0.73034346099E+03  0.00000000000E+00 0. -1.
<mgrwt>
<rscale>  0 0.17467596E+04</rscale>
<asrwt>0</asrwt>
<pdfrwt beam="1">  1        2 0.10645047E+00 0.17467596E+04</pdfrwt>
<pdfrwt beam="2">  1       -2 0.16960240E+00 0.17467596E+04</pdfrwt>
<totfact> 0.84506205E+00</totfact>
</mgrwt>
</event>
<event>
 6    1  0.1603085E-006  0.2976688E+04  0.7818608E-02  0.8250419E-01
         -2   -1    0    0    0  501 -0.00000000000E+00  0.00000000000E+00  0.21661238182E+04  0.21661238182E+04  0.00000000000E+00 0.  1.
          2   -1    0    0  501    0  0.00000000000E+00 -0.00000000000E+00 -0.10226415579E+04  0.10226415579E+04  0.00000000000E+00 0. -1.
         23    2    1    2    0    0 -0.58756096300E+03 -0.40290994323E+02 -0.89036604807E+03  0.10713636215E+04  0.90648002678E+02 0.  0.
         13    1    3    3    0    0 -0.15448194625E+03  0.28725391204E+02 -0.22270524457E+03  0.27255723394E+03  0.00000000000E+00 0.  1.
        -13    1    3    3    0    0 -0.43307901675E+03 -0.69016385527E+02 -0.66766080351E+03  0.79880638753E+03  0.00000000000E+00 0. -1.
         22    1    1    2    0    0  0.58756096300E+03  0.40290994323E+02  0.20338483083E+04  0.21174017547E+04  0.00000000000E+00 0.  1.
<mgrwt>
<rscale>  0 0.29766883E+04</rscale>
<asrwt>0</asrwt>
<pdfrwt beam="1">  1        2 0.15732947E+00 0.29766883E+04</pdfrwt>
<pdfrwt beam="2">  1       -2 0.33324982E+00 0.29766883E+04</pdfrwt>
<totfact> 0.41391894E-01</totfact>
</mgrwt>
</event>
<event>
 6    1  0.1603085E-006  0.7333355E+03  0.7818608E-02  0.9661863E-01
          1   -1    0    0  501    0  0.00000000000E+00  0.00000000000E+00  0.18220018403E+04  0.18220018403E+04  0.00000000000E+00 0. -1.
         -1   -1    0    0    0  501 -0.00000000000E+00 -0.00000000000E+00 -0.73789857035E+02  0.73789857035E+02  0.00000000000E+00 0.  1.
         23    2    1    2    0    0 -0.33611209192E+02 -0.18231023473E+03  0.16884373375E+04  0.17010104268E+04  0.90824525094E+02 0.  0.
         11    1    3    3    0    0 -0.24927118531E+02 -0.19188877331E+03  0.15795440826E+04  0.15913523090E+04  0.00000000000E+00 0.  1.
        -11    1    3    3    0    0 -0.86840906612E+01  0.95785385831E+01  0.10889325485E+03  0.10965811773E+03  0.00000000000E+00 0. -1.
         22    1    1    2    0    0  0.33611209192E+02  0.18231023473E+03  0.59774645757E+02  0.19478127052E+03  0.00000000000E+00 0.  1.
<mgrwt>
<rscale>  0 0.73333554E+03</rscale>
<asrwt>0</asrwt>
<pdfrwt beam="1">  1        1 0.28030794E+00 0.73333554E+03</pdfrwt>
<pdfrwt beam="2">  1       -1 0.11352287E-01 0.73333554E+03</pdfrwt>
<totfact> 0.20834748E+02</totfact>
</mgrwt>
</event>
<event>
 6    1  0.1603085E-006  0.3154887E+04  0.7818608E-02  0.8200834E-01
         -2   -1    0    0    0  501 -0.00000000000E+00  0.00000000000E+00  0.10067925567E+04  0.10067925567E+04  0.00000000000E+00 0.  1.
          2   -1    0    0  501    0  0.00000000000E+00 -0.00000000000E+00 -0.24715395892E+04  0.24715395892E+04  0.00000000000E+00 0. -1.
         23    2    1    2    0    0  0.13769465303E+04 -0.72937688568E+03 -0.47149522166E+03  0.16304897423E+04  0.90645832204E+02 0.  0.
         11    1    3    3    0    0  0.65280350937E+03 -0.29673263884E+03 -0.20339324257E+03  0.74536668286E+03  0.00000000000E+00 0. -1.
        -11    1    3    3    0    0  0.72414302094E+03 -0.43264424684E+03 -0.26810197909E+03  0.88512305941E+03  0.00000000000E+00 0.  1.
         22    1    1    2    0    0 -0.13769465303E+04  0.72937688568E+03 -0.99325181085E+03  0.18478424036E+04  0.00000000000E+00 0.  1.
<mgrwt>
<rscale>  0 0.31548868E+04</rscale>
<asrwt>0</asrwt>
<pdfrwt beam="1">  1        2 0.38023686E+00 0.31548868E+04</pdfrwt>
<pdfrwt beam="2">  1       -2 0.15489116E+00 0.31548868E+04</pdfrwt>
<totfact> 0.84038969E-01</totfact>
</mgrwt>
</event>
<event>
 6    1  0.1603085E-006  0.2642188E+04  0.7818608E-02  0.8354011E-01
          1   -1    0    0  501    0  0.00000000000E+00  0.00000000000E+00  0.85667147223E+03  0.85667147223E+03  0.00000000000E+00 0. -1.
         -1   -1    0    0    0  501 -0.00000000000E+00 -0.00000000000E+00 -0.20372906398E+04  0.20372906398E+04  0.00000000000E+00 0.  1.
         23    2    1    2    0    0 -0.67322170840E+03 -0.45066416510E+03  0.54970374257E+03  0.98337502117E+03  0.92339424386E+02 0.  0.
         11    1    3    3    0    0 -0.45670844566E+03 -0.34496590238E+03  0.35406293843E+03  0.67301162138E+03  0.00000000000E+00 0. -1.
        -11    1    3    3    0    0 -0.21651326275E+03 -0.10569826272E+03  0.19564080414E+03  0.31036339980E+03  0.00000000000E+00 0.  1.
         22    1    1    2    0    0  0.67322170840E+03  0.45066416510E+03 -0.17303229101E+04  0.19105870909E+04  0.00000000000E+00 0.  1.
<mgrwt>
<rscale>  0 0.26421876E+04</rscale>
<asrwt>0</asrwt>
<pdfrwt beam="1">  1        1 0.13179561E+00 0.26421876E+04</pdfrwt>
<pdfrwt beam="2">  1       -1 0.31342933E+00 0.26421876E+04</pdfrwt>
<totfact> 0.46863681E-01</totfact>
</mgrwt>
</event>
<event>
 6    1  0.1603085E-006  0.4910881E+04  0.7818608E-02  0.7842404E-01
         -1   -1    0    0    0  501 -0.00000000000E+00  0.00000000000E+00  0.24414316750E+04  0.24414316750E+04  0.00000000000E+00 0.  1.
          1   -1    0    0  501    0  0.00000000000E+00 -0.00000000000E+00 -0.24695301258E+04  0.24695301258E+04  0.00000000000E+00 0. -1.
         23    2    1    2    0    0 -0.52777307018E+03  0.17919555251E+03 -0.24045592312E+04  0.24700149966E+04  0.91725282225E+02 0.  0.
         13    1    3    3    0    0 -0.38165917296E+03  0.15384311538E+03 -0.16114472135E+04  0.16631577046E+04  0.00000000000E+00 0. -1.
        -13    1    3    3    0    0 -0.14611389722E+03  0.25352437124E+02 -0.79311201779E+03  0.80685729209E+03  0.00000000000E+00 0.  1.
         22    1    1    2    0    0  0.52777307018E+03 -0.17919555251E+03  0.23764607805E+04  0.24409468041E+04  0.00000000000E+00 0.  1.
<mgrwt>
<rscale>  0 0.49108814E+04</rscale>
<asrwt>0</asrwt>
<pdfrwt beam="1">  1        1 0.37992771E+00 0.49108814E+04</pdfrwt>
<pdfrwt beam="2">  1       -1 0.37560487E+00 0.49108814E+04</pdfrwt>
<totfact> 0.10835104E-02</totfact>
</mgrwt>
</event>
<event>
 6    1  0.1603085E-006  0.2122542E+04  0.7818608E-02  0.8551378E-01
         -1   -1    0    0    0  501 -0.00000000000E+00  0.00000000000E+00  0.74599288498E+03  0.74599288498E+03  0.00000000000E+00 0.  1.
          1   -1    0    0  501    0  0.00000000000E+00 -0.00000000000E+00 -0.15097941697E+04  0.15097941697E+04  0.00000000000E+00 0. -1.
         23    2    1    2    0    0  0.58762914145E+03 -0.84508035298E+03 -0.64890491642E+03  0.12200892289E+04  0.89840553298E+02 0.  0.
         13    1    3    3    0    0  0.42681376332E+03 -0.67178085485E+03 -0.47862434783E+03  0.92873073161E+03  0.00000000000E+00 0. -1.
        -13    1    3    3    0    0  0.16081537812E+03 -0.17329949812E+03 -0.17028056860E+03  0.29135849727E+03  0.00000000000E+00 0.  1.
         22    1    1    2    0    0 -0.58762914145E+03  0.84508035298E+03 -0.11489636826E+03  0.10356978258E+04  0.00000000000E+00 0.  1.
<mgrwt>
<rscale>  0 0.21225416E+04</rscale>
<asrwt>0</asrwt>
<pdfrwt beam="1">  1        1 0.23227603E+00 0.21225416E+04</pdfrwt>
<pdfrwt beam="2">  1       -1 0.11476814E+00 0.21225416E+04</pdfrwt>
<totfact> 0.40771782E+00</totfact>
</mgrwt>
</event>
<event>
 6    1  0.1603085E-006  0.8379921E+03  0.7818608E-02  0.9506597E-01
          1   -1    0    0  501    0  0.00000000000E+00  0.00000000000E+00  0.34221566594E+04  0.34221566594E+04  0.00000000000E+00 0. -1.
         -1   -1    0    0    0  501 -0.00000000000E+00 -0.00000000000E+00 -0.51300302662E+02  0.51300302662E+02  0.00000000000E+00 0.  1.
         23    2    1    2    0    0 -0.18368379654E+03 -0.29470575480E+03  0.26405118646E+04  0.26647578238E+04  0.89666791083E+02 0.  0.
         13    1    3    3    0    0 -0.14932105087E+03 -0.28503167180E+03  0.23048311368E+04  0.23271842212E+04  0.00000000000E+00 0. -1.
        -13    1    3    3    0    0 -0.34362745673E+02 -0.96740829963E+01  0.33568072771E+03  0.33757360253E+03  0.00000000000E+00 0.  1.
         22    1    1    2    0    0  0.18368379654E+03  0.29470575480E+03  0.73034449217E+03  0.80869913829E+03  0.00000000000E+00 0.  1.
<mgrwt>
<rscale>  0 0.83799206E+03</rscale>
<asrwt>0</asrwt>
<pdfrwt beam="1">  1        1 0.52648546E+00 0.83799206E+03</pdfrwt>
<pdfrwt beam="2">  1       -1 0.78923569E-02 0.83799206E+03</pdfrwt>
<totfact> 0.27905010E+01</totfact>
</mgrwt>
</event>
<event>
 6    1  0.1603085E-006  0.3537776E+04  0.7818608E-02  0.8104895E-01
         -1   -1    0    0    0  501 -0.00000000000E+00  0.00000000000E+00  0.27398612852E+04  0.27398612852E+04  0.00000000000E+00 0.  1.
          1   -1    0    0  501    0  0.00000000000E+00 -0.00000000000E+00 -0.11420159518E+04  0.11420159518E+04  0.00000000000E+00 0. -1.
         23    2    1    2    0    0 -0.77801946023E+03 -0.91249138758E+03 -0.62564781975E+03  0.13556395968E+04  0.91480649548E+02 0.  0.
         13    1    3    3    0    0 -0.19179409412E+03 -0.27686704322E+03 -0.14914692459E+03  0.36835463792E+03  0.00000000000E+00 0.  1.
        -13    1    3    3    0    0 -0.58622536611E+03 -0.63562434436E+03 -0.47650089516E+03  0.98728495891E+03  0.00000000000E+00 0. -1.
         22    1    1    2    0    0  0.77801946023E+03  0.91249138758E+03  0.22234931531E+04  0.25262376402E+04  0.00000000000E+00 0.  1.
<mgrwt>
<rscale>  0 0.35377763E+04</rscale>
<asrwt>0</asrwt>
<pdfrwt beam="1">  1        1 0.17569476E+00 0.35377763E+04</pdfrwt>
<pdfrwt beam="2">  1       -1 0.42151712E+00 0.35377763E+04</pdfrwt>
<totfact> 0.48767613E-02</totfact>
</mgrwt>
</event>
<event>
 6    1  0.1603085E-006  0.1115144E+04  0.7818608E-02  0.9190556E-01
         -2   -1    0    0    0  501 -0.00000000000E+00  0.00000000000E+00  0.31360916072E+03  0.31360916072E+03  0.00000000000E+00 0.  1.
          2   -1    0    0  501    0  0.00000000000E+00 -0.00000000000E+00 -0.99131886134E+03  0.99131886134E+03  0.00000000000E+00 0. -1.
         23    2    1    2    0    0  0.88102344917E+02 -0.53993972511E+03 -0.44251465272E+03  0.70943357163E+03  0.90442494169E+02 0.  0.
         13    1    3    3    0    0 -0.58456181433E+01 -0.21823536714E+03 -0.15339398989E+03  0.26681559710E+03  0.00000000000E+00 0. -1.
        -13    1    3    3    0    0  0.93947963061E+02 -0.32170435797E+03 -0.28912066284E+03  0.44261797453E+03  0.00000000000E+00 0.  1.
         22    1    1    2    0    0 -0.88102344917E+02  0.53993972511E+03 -0.23519504790E+03  0.59549445042E+03  0.00000000000E+00 0.  1.
<mgrwt>
<rscale>  0 0.11151443E+04</rscale>
<asrwt>0</asrwt>
<pdfrwt beam="1">  1        2 0.15251059E+00 0.11151443E+04</pdfrwt>
<pdfrwt beam="2">  1       -2 0.48247564E-01 0.11151443E+04</pdfrwt>
<totfact> 0.10297013E+02</totfact>
</mgrwt>
</event>
<event>
 6    1  0.1603085E-006  0.2001497E+04  0.7818608E-02  0.8605921E-01
          2   -1    0    0  501    0  0.00000000000E+00  0.00000000000E+00  0.28243383650E+04  0.28243383650E+04  0.00000000000E+00 0. -1.
         -2   -1    0    0    0  501 -0.00000000000E+00 -0.00000000000E+00 -0.35459541597E+03  0.35459541597E+03  0.00000000000E+00 0.  1.
         23    2    1    2    0    0  0.73235888338E+03 -0.56899611790E+03  0.64879208228E+03  0.11354152038E+04  0.90168745561E+02 0.  0.
         11    1    3    3    0    0  0.11985283077E+02 -0.96844443285E+01  0.28664183681E+02  0.32543369502E+02  0.00000000000E+00 0. -1.
        -11    1    3    3    0    0  0.72037360030E+03 -0.55931167357E+03  0.62012789860E+03  0.11028718343E+04  0.00000000000E+00 0.  1.
         22    1    1    2    0    0 -0.73235888338E+03  0.56899611790E+03  0.18209508667E+04  0.20435185772E+04  0.00000000000E+00 0. -1.
<mgrwt>
<rscale>  0 0.20014969E+04</rscale>
<asrwt>0</asrwt>
<pdfrwt beam="1">  1        2 0.43451358E+00 0.20014969E+04</pdfrwt>
<pdfrwt beam="2">  1       -2 0.54553143E-01 0.20014969E+04</pdfrwt>
<totfact> 0.65760840E+00</totfact>
</mgrwt>
</event>
<event>
 6    1  0.1603085E-006  0.1723433E+04  0.7818608E-02  0.8748111E-01
         -2   -1    0    0    0  501 -0.00000000000E+00  0.00000000000E+00  0.38216689622E+03  0.38216689622E+03  0.00000000000E+00 0.  1.
          2   -1    0    0  501    0  0.00000000000E+00 -0.00000000000E+00 -0.19430130072E+04  0.19430130072E+04  0.00000000000E+00 0. -1.
         23    2    1    2    0    0 -0.63090834519E+03  0.54432168847E+03 -0.10657455843E+04  0.13559245335E+04  0.91576468430E+02 0.  0.
         11    1    3    3    0    0 -0.18597351408E+03  0.11952366067E+03 -0.24111765963E+03  0.32712349225E+03  0.00000000000E+00 0. -1.
        -11    1    3    3    0    0 -0.44493483111E+03  0.42479802780E+03 -0.82462792471E+03  0.10288010413E+04  0.00000000000E+00 0.  1.
         22    1    1    2    0    0  0.63090834519E+03 -0.54432168847E+03 -0.49510052667E+03  0.96925536989E+03  0.00000000000E+00 0.  1.
<mgrwt>
<rscale>  0 0.17234329E+04</rscale>
<asrwt>0</asrwt>
<pdfrwt beam="1">  1        2 0.29892507E+00 0.17234329E+04</pdfrwt>
<pdfrwt beam="2">  1       -2 0.58794908E-01 0.17234329E+04</pdfrwt>
<totfact> 0.18454091E+01</totfact>
</mgrwt>
</event>
<event>
 6    1  0.1603085E-006  0.8544623E+03  0.7818608E-02  0.9484367E-01
         -2   -1    0    0    0  501 -0.00000000000E+00  0.00000000000E+00  0.13161449851E+03  0.13161449851E+03  0.00000000000E+00 0. -1.
          2   -1    0    0  501    0  0.00000000000E+00 -0.00000000000E+00 -0.13868263973E+04  0.13868263973E+04  0.00000000000E+00 0.  1.
         23    2    1    2    0    0 -0.12622208897E+03 -0.27591833693E+03 -0.11567369300E+04  0.11994420496E+04  0.92509246956E+02 0.  0.
         11    1    3    3    0    0 -0.57007878392E+02 -0.90253944194E+02 -0.57663594280E+03  0.58643386939E+03  0.00000000000E+00 0. -1.
        -11    1    3    3    0    0 -0.69214210582E+02 -0.18566439274E+03 -0.58010098721E+03  0.61300818024E+03  0.00000000000E+00 0.  1.
         22    1    1    2    0    0  0.12622208897E+03  0.27591833693E+03 -0.98474968807E+02  0.31899884621E+03  0.00000000000E+00 0. -1.
<mgrwt>
<rscale>  0 0.85446231E+03</rscale>
<asrwt>0</asrwt>
<pdfrwt beam="1">  1        2 0.21335791E+00 0.85446231E+03</pdfrwt>
<pdfrwt beam="2">  1       -2 0.20248384E-01 0.85446231E+03</pdfrwt>
<totfact> 0.30913587E+02</totfact>
</mgrwt>
</event>
<event>
 6    1  0.1603085E-006  0.2589336E+04  0.7818608E-02  0.8371832E-01
          2   -1    0    0  501    0  0.00000000000E+00  0.00000000000E+00  0.13476995504E+04  0.13476995504E+04  0.00000000000E+00 0. -1.
         -2   -1    0    0    0  501 -0.00000000000E+00 -0.00000000000E+00 -0.12437236404E+04  0.12437236404E+04  0.00000000000E+00 0.  1.
         23    2    1    2    0    0 -0.46067992616E+03 -0.89401826155E+02  0.12579191704E+04  0.13457090465E+04  0.91397580072E+02 0.  0.
         13    1    3    3    0    0 -0.17575047837E+03 -0.49351905346E+02  0.37466513073E+03  0.41677068202E+03  0.00000000000E+00 0.  1.
        -13    1    3    3    0    0 -0.28492944779E+03 -0.40049920809E+02  0.88325403972E+03  0.92893836451E+03  0.00000000000E+00 0. -1.
         22    1    1    2    0    0  0.46067992616E+03  0.89401826155E+02 -0.11539432605E+04  0.12457141443E+04  0.00000000000E+00 0.  1.
<mgrwt>
<rscale>  0 0.25893364E+04</rscale>
<asrwt>0</asrwt>
<pdfrwt beam="1">  1        2 0.20733839E+00 0.25893364E+04</pdfrwt>
<pdfrwt beam="2">  1       -2 0.19134210E+00 0.25893364E+04</pdfrwt>
<totfact> 0.20848314E+00</totfact>
</mgrwt>
</event>
<event>
 6    1  0.1603085E-006  0.1470552E+04  0.7818608E-02  0.8904275E-01
          2   -1    0    0  501    0  0.00000000000E+00  0.00000000000E+00  0.12438319765E+04  0.12438319765E+04  0.00000000000E+00 0.  1.
         -2   -1    0    0    0  501 -0.00000000000E+00 -0.00000000000E+00 -0.43464936673E+03  0.43464936673E+03  0.00000000000E+00 0. -1.
         23    2    1    2    0    0 -0.60234240414E+03 -0.78215449967E+02  0.87328725280E+03  0.10677085265E+04  0.91852289775E+02 0.  0.
         13    1    3    3    0    0 -0.33319388680E+03 -0.19195786925E+02  0.54544743792E+03  0.63945254083E+03  0.00000000000E+00 0. -1.
        -13    1    3    3    0    0 -0.26914851733E+03 -0.59019663042E+02  0.32783981488E+03  0.42825598563E+03  0.00000000000E+00 0.  1.
         22    1    1    2    0    0  0.60234240414E+03  0.78215449967E+02 -0.64104643044E+02  0.61077281676E+03  0.00000000000E+00 0. -1.
<mgrwt>
<rscale>  0 0.14705520E+04</rscale>
<asrwt>0</asrwt>
<pdfrwt beam="1">  1        2 0.19135876E+00 0.14705520E+04</pdfrwt>
<pdfrwt beam="2">  1       -2 0.66869134E-01 0.14705520E+04</pdfrwt>
<totfact> 0.35469064E+01</totfact>
</mgrwt>
</event>
<event>
 6    1  0.1603085E-006  0.5270052E+04  0.7818608E-02  0.7788148E-01
          2   -1    0    0  501    0  0.00000000000E+00  0.00000000000E+00  0.14113529096E+04  0.14113529096E+04  0.00000000000E+00 0. -1.
         -2   -1    0    0    0  501 -0.00000000000E+00 -0.00000000000E+00 -0.49196501455E+04  0.49196501455E+04  0.00000000000E+00 0.  1.
         23    2    1    2    0    0 -0.11562581285E+04  0.14922226365E+04 -0.39617799933E+04  0.43895325125E+04  0.92917742428E+02 0.  0.
         13    1    3    3    0    0 -0.27055929674E+03  0.28765460999E+03 -0.82236250509E+03  0.91226509167E+03  0.00000000000E+00 0. -1.
        -13    1    3    3    0    0 -0.88569883176E+03  0.12045680265E+04 -0.31394174882E+04  0.34772674209E+04  0.00000000000E+00 0.  1.
         22    1    1    2    0    0  0.11562581285E+04 -0.14922226365E+04  0.45348275734E+03  0.19414705426E+04  0.00000000000E+00 0. -1.
<mgrwt>
<rscale>  0 0.52700522E+04</rscale>
<asrwt>0</asrwt>
<pdfrwt beam="1">  1        2 0.21713121E+00 0.52700522E+04</pdfrwt>
<pdfrwt beam="2">  1       -2 0.75686926E+00 0.52700522E+04</pdfrwt>
<totfact> 0.13636214E-03</totfact>
</mgrwt>
</event>
<event>
 6    1  0.1606542E-006  0.3415034E+04  0.7818608E-02  0.8134226E-01
         -2   -1    0    0    0  501 -0.00000000000E+00  0.00000000000E+00  0.14731906756E+04  0.14731906756E+04  0.00000000000E+00 0.  1.
          2   -1    0    0  501    0  0.00000000000E+00 -0.00000000000E+00 -0.19791153274E+04  0.19791153274E+04  0.00000000000E+00 0. -1.
         23    2    1    2    0    0 -0.10864701537E+02 -0.42740866509E+03 -0.19230060815E+04  0.19721316933E+04  0.92492256757E+02 0.  0.
         13    1    3    3    0    0 -0.47861909526E+02 -0.31726954092E+03 -0.13741629188E+04  0.14111252430E+04  0.00000000000E+00 0.  1.
        -13    1    3    3    0    0  0.36997207989E+02 -0.11013912416E+03 -0.54884316269E+03  0.56100645032E+03  0.00000000000E+00 0. -1.
         22    1    1    2    0    0  0.10864701537E+02  0.42740866509E+03  0.14170814297E+04  0.14801743097E+04  0.00000000000E+00 0.  1.
<mgrwt>
<rscale>  0 0.34150340E+04</rscale>
<asrwt>0</asrwt>
<pdfrwt beam="1">  1        2 0.30447928E+00 0.34150340E+04</pdfrwt>
<pdfrwt beam="2">  1       -2 0.22664472E+00 0.34150340E+04</pdfrwt>
<totfact> 0.50960150E-01</totfact>
</mgrwt>
</event>
<event>
 6    1  0.1603085E-006  0.5019230E+04  0.7818608E-02  0.7825548E-01
          2   -1    0    0  501    0  0.00000000000E+00  0.00000000000E+00  0.20284507139E+04  0.20284507139E+04  0.00000000000E+00 0. -1.
         -2   -1    0    0    0  501 -0.00000000000E+00 -0.00000000000E+00 -0.31049153759E+04  0.31049153759E+04  0.00000000000E+00 0.  1.
         23    2    1    2    0    0  0.18957160459E+04 -0.13682280001E+04  0.39233872640E+03  0.23723571110E+04  0.91440684408E+02 0.  0.
         11    1    3    3    0    0  0.63992939626E+03 -0.43030732522E+03  0.94417190524E+02  0.77690966798E+03  0.00000000000E+00 0. -1.
        -11    1    3    3    0    0  0.12557866497E+04 -0.93792067490E+03  0.29792153587E+03  0.15954474430E+04  0.00000000000E+00 0.  1.
         22    1    1    2    0    0 -0.18957160459E+04  0.13682280001E+04 -0.14688033884E+04  0.27610089788E+04  0.00000000000E+00 0.  1.
<mgrwt>
<rscale>  0 0.50192301E+04</rscale>
<asrwt>0</asrwt>
<pdfrwt beam="1">  1        2 0.31206934E+00 0.50192301E+04</pdfrwt>
<pdfrwt beam="2">  1       -2 0.47767929E+00 0.50192301E+04</pdfrwt>
<totfact> 0.10755533E-02</totfact>
</mgrwt>
</event>
<event>
 6    1  0.1603085E-006  0.2869232E+04  0.7818608E-02  0.8282091E-01
          1   -1    0    0  501    0  0.00000000000E+00  0.00000000000E+00  0.15023846620E+04  0.15023846620E+04  0.00000000000E+00 0. -1.
         -1   -1    0    0    0  501 -0.00000000000E+00 -0.00000000000E+00 -0.13699038763E+04  0.13699038763E+04  0.00000000000E+00 0.  1.
         23    2    1    2    0    0  0.29064679576E+03  0.10356883033E+04  0.10146225628E+04  0.14811379583E+04  0.84763700928E+02 0.  0.
         11    1    3    3    0    0  0.21085035502E+03  0.86679968006E+03  0.84866674322E+03  0.12312736490E+04  0.00000000000E+00 0. -1.
        -11    1    3    3    0    0  0.79796440739E+02  0.16888862327E+03  0.16595581953E+03  0.24986430930E+03  0.00000000000E+00 0.  1.
         22    1    1    2    0    0 -0.29064679576E+03 -0.10356883033E+04 -0.88214177701E+03  0.13911505800E+04  0.00000000000E+00 0.  1.
<mgrwt>
<rscale>  0 0.28692317E+04</rscale>
<asrwt>0</asrwt>
<pdfrwt beam="1">  1        1 0.23113610E+00 0.28692317E+04</pdfrwt>
<pdfrwt beam="2">  1       -1 0.21075444E+00 0.28692317E+04</pdfrwt>
<totfact> 0.71259862E-01</totfact>
</mgrwt>
</event>
<event>
 6    1  0.1603085E-006  0.5599817E+04  0.7818608E-02  0.7742102E-01
          2   -1    0    0  501    0  0.00000000000E+00  0.00000000000E+00  0.34886295556E+04  0.34886295556E+04  0.00000000000E+00 0. -1.
         -2   -1    0    0    0  501 -0.00000000000E+00 -0.00000000000E+00 -0.22471537040E+04  0.22471537040E+04  0.00000000000E+00 0.  1.
         23    2    1    2    0    0  0.17063124141E+04 -0.10625961860E+04 -0.13743987457E+04  0.24367814988E+04  0.91211028992E+02 0.  0.
         13    1    3    3    0    0  0.29251091947E+03 -0.14548142186E+03 -0.23866590457E+03  0.40458484415E+03  0.00000000000E+00 0.  1.
        -13    1    3    3    0    0  0.14138014946E+04 -0.91711476417E+03 -0.11357328411E+04  0.20321966546E+04  0.00000000000E+00 0. -1.
         22    1    1    2    0    0 -0.17063124141E+04  0.10625961860E+04  0.26158745974E+04  0.32990017608E+04  0.00000000000E+00 0. -1.
<mgrwt>
<rscale>  0 0.55998167E+04</rscale>
<asrwt>0</asrwt>
<pdfrwt beam="1">  1        2 0.53671224E+00 0.55998167E+04</pdfrwt>
<pdfrwt beam="2">  1       -2 0.34571595E+00 0.55998167E+04</pdfrwt>
<totfact> 0.94993364E-03</totfact>
</mgrwt>
</event>
<event>
 6    1  0.1603085E-006  0.1738511E+04  0.7818608E-02  0.8739700E-01
         -3   -1    0    0    0  501 -0.00000000000E+00  0.00000000000E+00  0.35037953952E+03  0.35037953952E+03  0.00000000000E+00 0.  1.
          3   -1    0    0  501    0  0.00000000000E+00 -0.00000000000E+00 -0.21565323899E+04  0.21565323899E+04  0.00000000000E+00 0. -1.
         23    2    1    2    0    0 -0.18509038677E+03 -0.84612726052E+03 -0.95877843141E+03  0.12952052000E+04  0.90059076428E+02 0.  0.
         13    1    3    3    0    0 -0.12862676935E+03 -0.73467006216E+03 -0.82394778503E+03  0.11113842263E+04  0.00000000000E+00 0. -1.
        -13    1    3    3    0    0 -0.56463617424E+02 -0.11145719836E+03 -0.13483064638E+03  0.18382097367E+03  0.00000000000E+00 0.  1.
         22    1    1    2    0    0  0.18509038677E+03  0.84612726052E+03 -0.84737441901E+03  0.12117067295E+04  0.00000000000E+00 0.  1.
<mgrwt>
<rscale>  0 0.17385107E+04</rscale>
<asrwt>0</asrwt>
<pdfrwt beam="1">  1        3 0.33177422E+00 0.17385107E+04</pdfrwt>
<pdfrwt beam="2">  1       -3 0.53904543E-01 0.17385107E+04</pdfrwt>
<totfact> 0.21934230E-01</totfact>
</mgrwt>
</event>
<event>
 6    1  0.1603085E-006  0.1545101E+04  0.7818608E-02  0.8855003E-01
         -1   -1    0    0    0  501 -0.00000000000E+00  0.00000000000E+00  0.27003202274E+03  0.27003202274E+03  0.00000000000E+00 0.  1.
          1   -1    0    0  501    0  0.00000000000E+00 -0.00000000000E+00 -0.22102355069E+04  0.22102355069E+04  0.00000000000E+00 0. -1.
         23    2    1    2    0    0  0.73392050517E+02  0.26941509938E+03 -0.21251214908E+04  0.21453562608E+04  0.91876254534E+02 0.  0.
         11    1    3    3    0    0 -0.16501028959E+01  0.44889224610E+00 -0.20782858697E+03  0.20783562232E+03  0.00000000000E+00 0. -1.
        -11    1    3    3    0    0  0.75042153413E+02  0.26896620713E+03 -0.19172929038E+04  0.19375206384E+04  0.00000000000E+00 0.  1.
         22    1    1    2    0    0 -0.73392050517E+02 -0.26941509938E+03  0.18491800662E+03  0.33491126888E+03  0.00000000000E+00 0.  1.
<mgrwt>
<rscale>  0 0.15451011E+04</rscale>
<asrwt>0</asrwt>
<pdfrwt beam="1">  1        1 0.34003623E+00 0.15451011E+04</pdfrwt>
<pdfrwt beam="2">  1       -1 0.41543388E-01 0.15451011E+04</pdfrwt>
<totfact> 0.11751964E+01</totfact>
</mgrwt>
</event>
<event>
 6    1  0.1603085E-006  0.3089828E+04  0.7818608E-02  0.8218535E-01
         -1   -1    0    0    0  501 -0.00000000000E+00  0.00000000000E+00  0.10553969492E+04  0.10553969492E+04  0.00000000000E+00 0.  1.
          1   -1    0    0  501    0  0.00000000000E+00 -0.00000000000E+00 -0.22614802030E+04  0.22614802030E+04  0.00000000000E+00 0. -1.
         23    2    1    2    0    0  0.69792984145E+03 -0.11118891620E+02  0.87436395699E+03  0.11224546109E+04  0.90345618899E+02 0.  0.
         13    1    3    3    0    0  0.98148183899E+02  0.71771184149E+01  0.17650123131E+03  0.20208231413E+03  0.00000000000E+00 0. -1.
        -13    1    3    3    0    0  0.59978165755E+03 -0.18296010035E+02  0.69786272569E+03  0.92037229675E+03  0.00000000000E+00 0.  1.
         22    1    1    2    0    0 -0.69792984145E+03  0.11118891620E+02 -0.20804472107E+04  0.21944225414E+04  0.00000000000E+00 0. -1.
<mgrwt>
<rscale>  0 0.30898280E+04</rscale>
<asrwt>0</asrwt>
<pdfrwt beam="1">  1        1 0.34792003E+00 0.30898280E+04</pdfrwt>
<pdfrwt beam="2">  1       -1 0.16236876E+00 0.30898280E+04</pdfrwt>
<totfact> 0.46833999E-01</totfact>
</mgrwt>
</event>
<event>
 6    1  0.1603085E-006  0.1848459E+04  0.7818608E-02  0.8680946E-01
         -4   -1    0    0    0  501 -0.00000000000E+00  0.00000000000E+00  0.18885535223E+04  0.18885535223E+04  0.00000000000E+00 0.  1.
          4   -1    0    0  501    0  0.00000000000E+00 -0.00000000000E+00 -0.45230369565E+03  0.45230369565E+03  0.00000000000E+00 0. -1.
         23    2    1    2    0    0 -0.76387541675E+03  0.33900632151E+03  0.22350871617E+03  0.86804632059E+03  0.71535516659E+02 0.  0.
         13    1    3    3    0    0 -0.19309237155E+03  0.52415988263E+02  0.54685053134E+02  0.20741879089E+03  0.00000000000E+00 0.  1.
        -13    1    3    3    0    0 -0.57078304520E+03  0.28659033325E+03  0.16882366303E+03  0.66062752970E+03  0.00000000000E+00 0. -1.
         22    1    1    2    0    0  0.76387541675E+03 -0.33900632151E+03  0.12127411105E+04  0.14728108974E+04  0.00000000000E+00 0. -1.
<mgrwt>
<rscale>  0 0.18484585E+04</rscale>
<asrwt>0</asrwt>
<pdfrwt beam="1">  1        4 0.69585185E-01 0.18484585E+04</pdfrwt>
<pdfrwt beam="2">  1       -4 0.29054669E+00 0.18484585E+04</pdfrwt>
<totfact> 0.12657330E-01</totfact>
</mgrwt>
</event>
<event>
 6    1  0.1603085E-006  0.1421598E+04  0.7818608E-02  0.8938331E-01
          1   -1    0    0  501    0  0.00000000000E+00  0.00000000000E+00  0.18906425951E+03  0.18906425951E+03  0.00000000000E+00 0. -1.
         -1   -1    0    0    0  501 -0.00000000000E+00 -0.00000000000E+00 -0.26722954816E+04  0.26722954816E+04  0.00000000000E+00 0.  1.
         23    2    1    2    0    0  0.68026876564E+02 -0.31508263296E+03 -0.25151767822E+04  0.25374380834E+04  0.92590818871E+02 0.  0.
         11    1    3    3    0    0  0.31751697336E+02 -0.66859586779E+02 -0.34757939340E+03  0.35537277519E+03  0.00000000000E+00 0. -1.
        -11    1    3    3    0    0  0.36275179227E+02 -0.24822304618E+03 -0.21675973888E+04  0.21820653082E+04  0.00000000000E+00 0.  1.
         22    1    1    2    0    0 -0.68026876564E+02  0.31508263296E+03  0.31945560118E+02  0.32392165772E+03  0.00000000000E+00 0. -1.
<mgrwt>
<rscale>  0 0.14215985E+04</rscale>
<asrwt>0</asrwt>
<pdfrwt beam="1">  1        1 0.29086808E-01 0.14215985E+04</pdfrwt>
<pdfrwt beam="2">  1       -1 0.41112240E+00 0.14215985E+04</pdfrwt>
<totfact> 0.94373334E-01</totfact>
</mgrwt>
</event>
<event>
 6    1  0.1603085E-006  0.1442064E+04  0.7818608E-02  0.8923921E-01
          2   -1    0    0  501    0  0.00000000000E+00  0.00000000000E+00  0.58231205183E+03  0.58231205183E+03  0.00000000000E+00 0. -1.
         -2   -1    0    0    0  501 -0.00000000000E+00 -0.00000000000E+00 -0.89279790964E+03  0.89279790964E+03  0.00000000000E+00 0.  1.
         23    2    1    2    0    0 -0.60038568583E+03  0.23825106181E+03  0.16527027889E+03  0.67288153900E+03  0.90712514201E+02 0.  0.
         11    1    3    3    0    0 -0.38377621875E+03  0.12702212938E+03  0.64540559802E+02  0.40937060384E+03  0.00000000000E+00 0. -1.
        -11    1    3    3    0    0 -0.21660946708E+03  0.11122893243E+03  0.10072971909E+03  0.26351093516E+03  0.00000000000E+00 0.  1.
         22    1    1    2    0    0  0.60038568583E+03 -0.23825106181E+03 -0.47575613670E+03  0.80222842247E+03  0.00000000000E+00 0.  1.
<mgrwt>
<rscale>  0 0.14420638E+04</rscale>
<asrwt>0</asrwt>
<pdfrwt beam="1">  1        2 0.89586470E-01 0.14420638E+04</pdfrwt>
<pdfrwt beam="2">  1       -2 0.13735352E+00 0.14420638E+04</pdfrwt>
<totfact> 0.18819362E+01</totfact>
</mgrwt>
</event>
<event>
 6    1  0.1603085E-006  0.1479398E+04  0.7818608E-02  0.8898270E-01
         -2   -1    0    0    0  501 -0.00000000000E+00  0.00000000000E+00  0.82690066618E+03  0.82690066618E+03  0.00000000000E+00 0.  1.
          2   -1    0    0  501    0  0.00000000000E+00 -0.00000000000E+00 -0.66169283186E+03  0.66169283186E+03  0.00000000000E+00 0. -1.
         23    2    1    2    0    0  0.13188862548E+03  0.49542577526E+03  0.61598385291E+03  0.80592203442E+03  0.85046517814E+02 0.  0.
         13    1    3    3    0    0  0.13570090137E+02  0.20013072477E+03  0.21438448639E+03  0.29359353254E+03  0.00000000000E+00 0.  1.
        -13    1    3    3    0    0  0.11831853534E+03  0.29529505048E+03  0.40159936652E+03  0.51232850188E+03  0.00000000000E+00 0. -1.
         22    1    1    2    0    0 -0.13188862548E+03 -0.49542577526E+03 -0.45077601859E+03  0.68267146363E+03  0.00000000000E+00 0. -1.
<mgrwt>
<rscale>  0 0.14793975E+04</rscale>
<asrwt>0</asrwt>
<pdfrwt beam="1">  1        2 0.10179890E+00 0.14793975E+04</pdfrwt>
<pdfrwt beam="2">  1       -2 0.12721549E+00 0.14793975E+04</pdfrwt>
<totfact> 0.19516327E+01</totfact>
</mgrwt>
</event>
<event>
 6    1  0.1603085E-006  0.1574206E+04  0.7818608E-02  0.8836553E-01
          1   -1    0    0  501    0  0.00000000000E+00  0.00000000000E+00  0.71896169230E+03  0.71896169230E+03  0.00000000000E+00 0. -1.
         -1   -1    0    0    0  501 -0.00000000000E+00 -0.00000000000E+00 -0.86170254065E+03  0.86170254065E+03  0.00000000000E+00 0.  1.
         23    2    1    2    0    0  0.42558113980E+03 -0.52842246281E+03 -0.46695200264E+03  0.82869184096E+03  0.91303826579E+02 0.  0.
         11    1    3    3    0    0  0.14940915065E+03 -0.25118288466E+03 -0.17732066293E+03  0.34184580346E+03  0.00000000000E+00 0.  1.
        -11    1    3    3    0    0  0.27617198915E+03 -0.27723957815E+03 -0.28963133971E+03  0.48684603750E+03  0.00000000000E+00 0. -1.
         22    1    1    2    0    0 -0.42558113980E+03  0.52842246281E+03  0.32421115428E+03  0.75197239199E+03  0.00000000000E+00 0. -1.
<mgrwt>
<rscale>  0 0.15742060E+04</rscale>
<asrwt>0</asrwt>
<pdfrwt beam="1">  1        1 0.11060949E+00 0.15742060E+04</pdfrwt>
<pdfrwt beam="2">  1       -1 0.13256962E+00 0.15742060E+04</pdfrwt>
<totfact> 0.12137080E+01</totfact>
</mgrwt>
</event>
<event>
 6    1  0.1603085E-006  0.2035205E+04  0.7818608E-02  0.8590336E-01
          1   -1    0    0  501    0  0.00000000000E+00  0.00000000000E+00  0.14119933487E+04  0.14119933487E+04  0.00000000000E+00 0. -1.
         -1   -1    0    0    0  501 -0.00000000000E+00 -0.00000000000E+00 -0.73337068061E+03  0.73337068061E+03  0.00000000000E+00 0.  1.
         23    2    1    2    0    0  0.24446071239E+03 -0.97379128714E+03  0.50089044692E+03  0.11257468201E+04  0.91565017498E+02 0.  0.
         11    1    3    3    0    0  0.21740101608E+03 -0.69867481755E+03  0.36099529477E+03  0.81592113915E+03  0.00000000000E+00 0. -1.
        -11    1    3    3    0    0  0.27059696308E+02 -0.27511646959E+03  0.13989515215E+03  0.30982568099E+03  0.00000000000E+00 0.  1.
         22    1    1    2    0    0 -0.24446071239E+03  0.97379128714E+03  0.17773222118E+03  0.10196172092E+04  0.00000000000E+00 0.  1.
<mgrwt>
<rscale>  0 0.20352047E+04</rscale>
<asrwt>0</asrwt>
<pdfrwt beam="1">  1        1 0.21722975E+00 0.20352047E+04</pdfrwt>
<pdfrwt beam="2">  1       -1 0.11282626E+00 0.20352047E+04</pdfrwt>
<totfact> 0.50072579E+00</totfact>
</mgrwt>
</event>
<event>
 6    1  0.1603085E-006  0.3709154E+04  0.7818608E-02  0.8065936E-01
          1   -1    0    0  501    0  0.00000000000E+00  0.00000000000E+00  0.14960253339E+04  0.14960253339E+04  0.00000000000E+00 0. -1.
         -1   -1    0    0    0  501 -0.00000000000E+00 -0.00000000000E+00 -0.22990631268E+04  0.22990631268E+04  0.00000000000E+00 0.  1.
         23    2    1    2    0    0 -0.13909208638E+04 -0.54286685886E+03  0.72170157009E+03  0.16610323694E+04  0.93862132262E+02 0.  0.
         11    1    3    3    0    0 -0.45403745125E+03 -0.13846632066E+03  0.25663105401E+03  0.53961321979E+03  0.00000000000E+00 0. -1.
        -11    1    3    3    0    0 -0.93688341260E+03 -0.40440053820E+03  0.46507051608E+03  0.11214191496E+04  0.00000000000E+00 0.  1.
         22    1    1    2    0    0  0.13909208638E+04  0.54286685886E+03 -0.15247393630E+04  0.21340560914E+04  0.00000000000E+00 0.  1.
<mgrwt>
<rscale>  0 0.37091544E+04</rscale>
<asrwt>0</asrwt>
<pdfrwt beam="1">  1        1 0.23015775E+00 0.37091544E+04</pdfrwt>
<pdfrwt beam="2">  1       -1 0.35370202E+00 0.37091544E+04</pdfrwt>
<totfact> 0.77458793E-02</totfact>
</mgrwt>
</event>
<event>
 6    1  0.1603085E-006  0.9444899E+03  0.7818608E-02  0.9371614E-01
         -1   -1    0    0    0  501 -0.00000000000E+00  0.00000000000E+00  0.14688588411E+03  0.14688588411E+03  0.00000000000E+00 0.  1.
          1   -1    0    0  501    0  0.00000000000E+00 -0.00000000000E+00 -0.15182894003E+04  0.15182894003E+04  0.00000000000E+00 0. -1.
         23    2    1    2    0    0 -0.37344119832E+03  0.21716969776E+03 -0.37510726419E+03  0.57925299070E+03  0.90595592353E+02 0.  0.
         13    1    3    3    0    0 -0.23381848122E+03  0.16880298580E+03 -0.20439143100E+03  0.35347048992E+03  0.00000000000E+00 0. -1.
        -13    1    3    3    0    0 -0.13962271709E+03  0.48366711957E+02 -0.17071583319E+03  0.22578250078E+03  0.00000000000E+00 0.  1.
         22    1    1    2    0    0  0.37344119832E+03 -0.21716969776E+03 -0.99629625199E+03  0.10859222937E+04  0.00000000000E+00 0.  1.
<mgrwt>
<rscale>  0 0.94448987E+03</rscale>
<asrwt>0</asrwt>
<pdfrwt beam="1">  1        1 0.23358298E+00 0.94448987E+03</pdfrwt>
<pdfrwt beam="2">  1       -1 0.22597829E-01 0.94448987E+03</pdfrwt>
<totfact> 0.10641116E+02</totfact>
</mgrwt>
</event>
<event>
 6    1  0.1603085E-006  0.3565518E+04  0.7818608E-02  0.8098436E-01
          1   -1    0    0  501    0  0.00000000000E+00  0.00000000000E+00  0.17344932654E+04  0.17344932654E+04  0.00000000000E+00 0. -1.
         -1   -1    0    0    0  501 -0.00000000000E+00 -0.00000000000E+00 -0.18323680165E+04  0.18323680165E+04  0.00000000000E+00 0.  1.
         23    2    1    2    0    0  0.38132416428E+03  0.17089178496E+04 -0.37850772630E+03  0.17935696528E+04  0.88406252480E+02 0.  0.
         11    1    3    3    0    0  0.37489628409E+03  0.15888432357E+04 -0.34211565567E+03  0.16679368013E+04  0.00000000000E+00 0.  1.
        -11    1    3    3    0    0  0.64278801887E+01  0.12007461398E+03 -0.36392070633E+02  0.12563285148E+03  0.00000000000E+00 0. -1.
         22    1    1    2    0    0 -0.38132416428E+03 -0.17089178496E+04  0.28063297524E+03  0.17732916291E+04  0.00000000000E+00 0. -1.
<mgrwt>
<rscale>  0 0.35655182E+04</rscale>
<asrwt>0</asrwt>
<pdfrwt beam="1">  1        1 0.26684512E+00 0.35655182E+04</pdfrwt>
<pdfrwt beam="2">  1       -1 0.28190277E+00 0.35655182E+04</pdfrwt>
<totfact> 0.15846922E-01</totfact>
</mgrwt>
</event>
<event>
 6    1  0.1603085E-006  0.4080020E+04  0.7818608E-02  0.7988596E-01
         -1   -1    0    0    0  501 -0.00000000000E+00  0.00000000000E+00  0.21393511694E+04  0.21393511694E+04  0.00000000000E+00 0.  1.
          1   -1    0    0  501    0  0.00000000000E+00 -0.00000000000E+00 -0.19452820135E+04  0.19452820135E+04  0.00000000000E+00 0. -1.
         23    2    1    2    0    0 -0.48338276095E+03 -0.13598570722E+03 -0.18813819725E+04  0.19492998617E+04  0.89559022478E+02 0.  0.
         13    1    3    3    0    0 -0.28722190856E+03 -0.11909733363E+03 -0.10609887937E+04  0.11056119663E+04  0.00000000000E+00 0.  1.
        -13    1    3    3    0    0 -0.19616085239E+03 -0.16888373591E+02 -0.82039317874E+03  0.84368789543E+03  0.00000000000E+00 0. -1.
         22    1    1    2    0    0  0.48338276095E+03  0.13598570722E+03  0.20754511283E+04  0.21353333211E+04  0.00000000000E+00 0.  1.
<mgrwt>
<rscale>  0 0.40800203E+04</rscale>
<asrwt>0</asrwt>
<pdfrwt beam="1">  1        1 0.29927416E+00 0.40800203E+04</pdfrwt>
<pdfrwt beam="2">  1       -1 0.32913095E+00 0.40800203E+04</pdfrwt>
<totfact> 0.53826344E-02</totfact>
</mgrwt>
</event>
<event>
 6    1  0.1603085E-006  0.1792677E+04  0.7818608E-02  0.8710203E-01
          2   -1    0    0  501    0  0.00000000000E+00  0.00000000000E+00  0.27493650169E+04  0.27493650169E+04  0.00000000000E+00 0. -1.
         -2   -1    0    0    0  501 -0.00000000000E+00 -0.00000000000E+00 -0.29222122193E+03  0.29222122193E+03  0.00000000000E+00 0.  1.
         23    2    1    2    0    0 -0.33849872447E+03  0.78276264003E+03  0.77696226663E+03  0.11573599506E+04  0.92265672864E+02 0.  0.
         13    1    3    3    0    0 -0.88120479016E+02  0.12396591478E+03  0.15904434935E+03  0.22006333613E+03  0.00000000000E+00 0.  1.
        -13    1    3    3    0    0 -0.25037824545E+03  0.65879672525E+03  0.61791791729E+03  0.93729661447E+03  0.00000000000E+00 0. -1.
         22    1    1    2    0    0  0.33849872447E+03 -0.78276264003E+03  0.16801815284E+04  0.18842262883E+04  0.00000000000E+00 0. -1.
<mgrwt>
<rscale>  0 0.17926771E+04</rscale>
<asrwt>0</asrwt>
<pdfrwt beam="1">  1        2 0.42297922E+00 0.17926771E+04</pdfrwt>
<pdfrwt beam="2">  1       -2 0.44957113E-01 0.17926771E+04</pdfrwt>
<totfact> 0.11022058E+01</totfact>
</mgrwt>
</event>
<event>
 6    1  0.1603085E-006  0.3667913E+04  0.7818608E-02  0.8075110E-01
         -2   -1    0    0    0  501 -0.00000000000E+00  0.00000000000E+00  0.85122522027E+03  0.85122522027E+03  0.00000000000E+00 0.  1.
          2   -1    0    0  501    0  0.00000000000E+00 -0.00000000000E+00 -0.39512420721E+04  0.39512420721E+04  0.00000000000E+00 0. -1.
         23    2    1    2    0    0  0.91630006845E+03 -0.13930479288E+04 -0.55446979920E+03  0.17594427863E+04  0.89519901986E+02 0.  0.
         13    1    3    3    0    0  0.82279281870E+03 -0.12937603971E+04 -0.50224892963E+03  0.16133995087E+04  0.00000000000E+00 0. -1.
        -13    1    3    3    0    0  0.93507249750E+02 -0.99287531705E+02 -0.52220869571E+02  0.14604327758E+03  0.00000000000E+00 0.  1.
         22    1    1    2    0    0 -0.91630006845E+03  0.13930479288E+04 -0.25455470526E+04  0.30430245061E+04  0.00000000000E+00 0.  1.
<mgrwt>
<rscale>  0 0.36679133E+04</rscale>
<asrwt>0</asrwt>
<pdfrwt beam="1">  1        2 0.60788340E+00 0.36679133E+04</pdfrwt>
<pdfrwt beam="2">  1       -2 0.13095772E+00 0.36679133E+04</pdfrwt>
<totfact> 0.12899562E-01</totfact>
</mgrwt>
</event>
<event>
 6    1  0.1603085E-006  0.3130604E+04  0.7818608E-02  0.8207389E-01
          1   -1    0    0  501    0  0.00000000000E+00  0.00000000000E+00  0.11145917702E+04  0.11145917702E+04  0.00000000000E+00 0.  1.
         -1   -1    0    0    0  501 -0.00000000000E+00 -0.00000000000E+00 -0.21982675308E+04  0.21982675308E+04  0.00000000000E+00 0. -1.
         23    2    1    2    0    0 -0.19252206005E+03 -0.11909552676E+04 -0.15952924666E+04  0.20024430135E+04  0.96854403088E+02 0.  0.
         11    1    3    3    0    0 -0.35558290294E+02 -0.27354576501E+03 -0.30148773100E+03  0.40863985306E+03  0.00000000000E+00 0.  1.
        -11    1    3    3    0    0 -0.15696376975E+03 -0.91740950257E+03 -0.12938047356E+04  0.15938031604E+04  0.00000000000E+00 0. -1.
         22    1    1    2    0    0  0.19252206005E+03  0.11909552676E+04  0.51161670595E+03  0.13104162876E+04  0.00000000000E+00 0.  1.
<mgrwt>
<rscale>  0 0.31306043E+04</rscale>
<asrwt>0</asrwt>
<pdfrwt beam="1">  1        1 0.17147566E+00 0.31306043E+04</pdfrwt>
<pdfrwt beam="2">  1       -1 0.33819500E+00 0.31306043E+04</pdfrwt>
<totfact> 0.19342550E-01</totfact>
</mgrwt>
</event>
<event>
 6    1  0.1603085E-006  0.1980238E+04  0.7818608E-02  0.8615916E-01
          1   -1    0    0  501    0  0.00000000000E+00  0.00000000000E+00  0.11908968886E+04  0.11908968886E+04  0.00000000000E+00 0. -1.
         -1   -1    0    0    0  501 -0.00000000000E+00 -0.00000000000E+00 -0.82319098441E+03  0.82319098441E+03  0.00000000000E+00 0.  1.
         23    2    1    2    0    0 -0.16857838116E+03  0.36496193926E+03  0.11023044130E+04  0.11766806501E+04  0.88805663480E+02 0.  0.
         13    1    3    3    0    0 -0.10014730917E+03  0.13525521562E+03  0.53424760610E+03  0.56012852232E+03  0.00000000000E+00 0. -1.
        -13    1    3    3    0    0 -0.68431071989E+02  0.22970672364E+03  0.56805680687E+03  0.61655212782E+03  0.00000000000E+00 0.  1.
         22    1    1    2    0    0  0.16857838116E+03 -0.36496193926E+03 -0.73459850881E+03  0.83740722283E+03  0.00000000000E+00 0.  1.
<mgrwt>
<rscale>  0 0.19802379E+04</rscale>
<asrwt>0</asrwt>
<pdfrwt beam="1">  1        1 0.18321491E+00 0.19802379E+04</pdfrwt>
<pdfrwt beam="2">  1       -1 0.12664477E+00 0.19802379E+04</pdfrwt>
<totfact> 0.54620303E+00</totfact>
</mgrwt>
</event>
<event>
 6    1  0.1603085E-006  0.5643578E+04  0.7818608E-02  0.7736236E-01
          2   -1    0    0  501    0  0.00000000000E+00  0.00000000000E+00  0.32155106565E+04  0.32155106565E+04  0.00000000000E+00 0.  1.
         -2   -1    0    0    0  501 -0.00000000000E+00 -0.00000000000E+00 -0.24762763465E+04  0.24762763465E+04  0.00000000000E+00 0. -1.
         23    2    1    2    0    0  0.21843536613E+04 -0.90091921249E+03 -0.11847735208E+04  0.26446797719E+04  0.87100257618E+02 0.  0.
         11    1    3    3    0    0  0.11958055019E+04 -0.44673796373E+03 -0.64668585096E+03  0.14309885382E+04  0.00000000000E+00 0. -1.
        -11    1    3    3    0    0  0.98854815949E+03 -0.45418124875E+03 -0.53808766988E+03  0.12136912337E+04  0.00000000000E+00 0.  1.
         22    1    1    2    0    0 -0.21843536613E+04  0.90091921249E+03  0.19240078308E+04  0.30471072312E+04  0.00000000000E+00 0.  1.
<mgrwt>
<rscale>  0 0.56435779E+04</rscale>
<asrwt>0</asrwt>
<pdfrwt beam="1">  1        2 0.49469395E+00 0.56435779E+04</pdfrwt>
<pdfrwt beam="2">  1       -2 0.38096559E+00 0.56435779E+04</pdfrwt>
<totfact> 0.86474754E-03</totfact>
</mgrwt>
</event>
<event>
 6    1  0.1603085E-006  0.7634872E+03  0.7818608E-02  0.9614426E-01
         -2   -1    0    0    0  501 -0.00000000000E+00  0.00000000000E+00  0.12691885040E+03  0.12691885040E+03  0.00000000000E+00 0.  1.
          2   -1    0    0  501    0  0.00000000000E+00 -0.00000000000E+00 -0.11481995148E+04  0.11481995148E+04  0.00000000000E+00 0. -1.
         23    2    1    2    0    0 -0.12367372657E+03  0.30374336476E+03 -0.20898555018E+03  0.39911689553E+03  0.89800411086E+02 0.  0.
         13    1    3    3    0    0  0.72689479423E+01  0.62201301411E+02 -0.59254397137E+02  0.86214401821E+02  0.00000000000E+00 0.  1.
        -13    1    3    3    0    0 -0.13094267451E+03  0.24154206335E+03 -0.14973115305E+03  0.31290249371E+03  0.00000000000E+00 0. -1.
         22    1    1    2    0    0  0.12367372657E+03 -0.30374336476E+03 -0.81229511419E+03  0.87600146964E+03  0.00000000000E+00 0. -1.
<mgrwt>
<rscale>  0 0.76348716E+03</rscale>
<asrwt>0</asrwt>
<pdfrwt beam="1">  1        2 0.17664609E+00 0.76348716E+03</pdfrwt>
<pdfrwt beam="2">  1       -2 0.19525976E-01 0.76348716E+03</pdfrwt>
<totfact> 0.45607636E+02</totfact>
</mgrwt>
</event>
<event>
 6    1  0.1603085E-006  0.8373172E+03  0.7818608E-02  0.9507519E-01
         -1   -1    0    0    0  501 -0.00000000000E+00  0.00000000000E+00  0.16047474002E+03  0.16047474002E+03  0.00000000000E+00 0.  1.
          1   -1    0    0  501    0  0.00000000000E+00 -0.00000000000E+00 -0.10922279955E+04  0.10922279955E+04  0.00000000000E+00 0. -1.
         23    2    1    2    0    0  0.41347277478E+03 -0.10706379641E+02 -0.46306885940E+03  0.62761120208E+03  0.91589794106E+02 0.  0.
         13    1    3    3    0    0  0.15561984949E+03 -0.25301298429E+02 -0.23541209875E+03  0.28333116576E+03  0.00000000000E+00 0. -1.
        -13    1    3    3    0    0  0.25785292530E+03  0.14594918789E+02 -0.22765676065E+03  0.34428003632E+03  0.00000000000E+00 0.  1.
         22    1    1    2    0    0 -0.41347277478E+03  0.10706379641E+02 -0.46868439611E+03  0.62509153346E+03  0.00000000000E+00 0.  1.
<mgrwt>
<rscale>  0 0.83731715E+03</rscale>
<asrwt>0</asrwt>
<pdfrwt beam="1">  1        1 0.16803508E+00 0.83731715E+03</pdfrwt>
<pdfrwt beam="2">  1       -1 0.24688421E-01 0.83731715E+03</pdfrwt>
<totfact> 0.18555711E+02</totfact>
</mgrwt>
</event>
<event>
 6    1  0.1603085E-006  0.2066094E+04  0.7818608E-02  0.8576328E-01
         -2   -1    0    0    0  501 -0.00000000000E+00  0.00000000000E+00  0.40230046732E+03  0.40230046732E+03  0.00000000000E+00 0.  1.
          2   -1    0    0  501    0  0.00000000000E+00 -0.00000000000E+00 -0.26527078380E+04  0.26527078380E+04  0.00000000000E+00 0. -1.
         23    2    1    2    0    0  0.38807872627E+03 -0.44588630039E+03 -0.23764815007E+04  0.24505958824E+04  0.91302601245E+02 0.  0.
         13    1    3    3    0    0  0.30069922310E+02 -0.72673866299E+02 -0.39369485662E+03  0.40147394835E+03  0.00000000000E+00 0.  1.
        -13    1    3    3    0    0  0.35800880396E+03 -0.37321243409E+03 -0.19827866441E+04  0.20491219341E+04  0.00000000000E+00 0. -1.
         22    1    1    2    0    0 -0.38807872627E+03  0.44588630039E+03  0.12607413007E+03  0.60441242288E+03  0.00000000000E+00 0.  1.
<mgrwt>
<rscale>  0 0.20660935E+04</rscale>
<asrwt>0</asrwt>
<pdfrwt beam="1">  1        2 0.40810889E+00 0.20660935E+04</pdfrwt>
<pdfrwt beam="2">  1       -2 0.61892381E-01 0.20660935E+04</pdfrwt>
<totfact> 0.63523557E+00</totfact>
</mgrwt>
</event>
<event>
 6    1  0.1603085E-006  0.2240073E+04  0.7818608E-02  0.8501931E-01
          2   -1    0    0  501    0  0.00000000000E+00  0.00000000000E+00  0.17667974692E+04  0.17667974692E+04  0.00000000000E+00 0.  1.
         -2   -1    0    0    0  501 -0.00000000000E+00 -0.00000000000E+00 -0.71003168649E+03  0.71003168649E+03  0.00000000000E+00 0. -1.
         23    2    1    2    0    0 -0.29474891510E+03 -0.70952554935E+02  0.17193346831E+04  0.17481943118E+04  0.90334995160E+02 0.  0.
         13    1    3    3    0    0 -0.15288336768E+03 -0.82129438921E+02  0.99277155638E+03  0.10078263402E+04  0.00000000000E+00 0. -1.
        -13    1    3    3    0    0 -0.14186554742E+03  0.11176883986E+02  0.72656312672E+03  0.74036797161E+03  0.00000000000E+00 0.  1.
         22    1    1    2    0    0  0.29474891510E+03  0.70952554935E+02 -0.66256890037E+03  0.72863484390E+03  0.00000000000E+00 0. -1.
<mgrwt>
<rscale>  0 0.22400734E+04</rscale>
<asrwt>0</asrwt>
<pdfrwt beam="1">  1        2 0.27181499E+00 0.22400734E+04</pdfrwt>
<pdfrwt beam="2">  1       -2 0.10923564E+00 0.22400734E+04</pdfrwt>
<totfact> 0.54810920E+00</totfact>
</mgrwt>
</event>
<event>
 6    1  0.1603085E-006  0.3006034E+04  0.7818608E-02  0.8242010E-01
         -1   -1    0    0    0  501 -0.00000000000E+00  0.00000000000E+00  0.79608075635E+03  0.79608075635E+03  0.00000000000E+00 0.  1.
          1   -1    0    0  501    0  0.00000000000E+00 -0.00000000000E+00 -0.28377267207E+04  0.28377267207E+04  0.00000000000E+00 0. -1.
         23    2    1    2    0    0 -0.75166555598E+03 -0.12274214034E+04 -0.15394196990E+04  0.21094073881E+04  0.90675849109E+02 0.  0.
         11    1    3    3    0    0 -0.34690722360E+03 -0.56094848948E+03 -0.77163062455E+03  0.10150968675E+04  0.00000000000E+00 0. -1.
        -11    1    3    3    0    0 -0.40475833239E+03 -0.66647291393E+03 -0.76778907445E+03  0.10943105206E+04  0.00000000000E+00 0.  1.
         22    1    1    2    0    0  0.75166555598E+03  0.12274214034E+04 -0.50222626533E+03  0.15244000889E+04  0.00000000000E+00 0.  1.
<mgrwt>
<rscale>  0 0.30060337E+04</rscale>
<asrwt>0</asrwt>
<pdfrwt beam="1">  1        1 0.43657335E+00 0.30060337E+04</pdfrwt>
<pdfrwt beam="2">  1       -1 0.12247396E+00 0.30060337E+04</pdfrwt>
<totfact> 0.39195753E-01</totfact>
</mgrwt>
</event>
<event>
 6    1  0.1603085E-006  0.3332908E+04  0.7818608E-02  0.8154572E-01
         -2   -1    0    0    0  501 -0.00000000000E+00  0.00000000000E+00  0.72835833944E+03  0.72835833944E+03  0.00000000000E+00 0.  1.
          2   -1    0    0  501    0  0.00000000000E+00 -0.00000000000E+00 -0.38127776170E+04  0.38127776170E+04  0.00000000000E+00 0. -1.
         23    2    1    2    0    0  0.24571344903E+03  0.14505304189E+04 -0.48057073927E+03  0.15504101573E+04  0.91705099317E+02 0.  0.
         11    1    3    3    0    0  0.10821417149E+03  0.51499929853E+03 -0.13123569317E+03  0.54236278593E+03  0.00000000000E+00 0. -1.
        -11    1    3    3    0    0  0.13749927754E+03  0.93553112038E+03 -0.34933504610E+03  0.10080473714E+04  0.00000000000E+00 0.  1.
         22    1    1    2    0    0 -0.24571344903E+03 -0.14505304189E+04 -0.26038485383E+04  0.29907257991E+04  0.00000000000E+00 0.  1.
<mgrwt>
<rscale>  0 0.33329077E+04</rscale>
<asrwt>0</asrwt>
<pdfrwt beam="1">  1        2 0.58658118E+00 0.33329077E+04</pdfrwt>
<pdfrwt beam="2">  1       -2 0.11205513E+00 0.33329077E+04</pdfrwt>
<totfact> 0.25078723E-01</totfact>
</mgrwt>
</event>
<event>
 6    1  0.1603085E-006  0.1590552E+04  0.7818608E-02  0.8826373E-01
         -1   -1    0    0    0  501 -0.00000000000E+00  0.00000000000E+00  0.10654327282E+04  0.10654327282E+04  0.00000000000E+00 0.  1.
          1   -1    0    0  501    0  0.00000000000E+00 -0.00000000000E+00 -0.59362164495E+03  0.59362164495E+03  0.00000000000E+00 0. -1.
         23    2    1    2    0    0  0.39462043081E+03 -0.54729362195E+03 -0.19729381650E+03  0.70881389835E+03  0.90756263796E+02 0.  0.
         11    1    3    3    0    0  0.18903351973E+03 -0.20411168018E+03 -0.50889425986E+02  0.28281616511E+03  0.00000000000E+00 0. -1.
        -11    1    3    3    0    0  0.20558691108E+03 -0.34318194177E+03 -0.14640439052E+03  0.42599773324E+03  0.00000000000E+00 0.  1.
         22    1    1    2    0    0 -0.39462043081E+03  0.54729362195E+03  0.66910489971E+03  0.95024047476E+03  0.00000000000E+00 0.  1.
<mgrwt>
<rscale>  0 0.15905520E+04</rscale>
<asrwt>0</asrwt>
<pdfrwt beam="1">  1        1 0.91326407E-01 0.15905520E+04</pdfrwt>
<pdfrwt beam="2">  1       -1 0.16391273E+00 0.15905520E+04</pdfrwt>
<totfact> 0.91196360E+00</totfact>
</mgrwt>
</event>
<event>
 6    1  0.1603085E-006  0.2421058E+04  0.7818608E-02  0.8431662E-01
          1   -1    0    0  501    0  0.00000000000E+00  0.00000000000E+00  0.15879262651E+04  0.15879262651E+04  0.00000000000E+00 0. -1.
         -1   -1    0    0    0  501 -0.00000000000E+00 -0.00000000000E+00 -0.92282615338E+03  0.92282615338E+03  0.00000000000E+00 0.  1.
         23    2    1    2    0    0  0.42676282973E+02  0.33661932042E+03  0.15362366849E+04  0.15758659221E+04  0.90534083565E+02 0.  0.
         11    1    3    3    0    0  0.16813165519E+02  0.27943341588E+03  0.10963848829E+04  0.11315588928E+04  0.00000000000E+00 0.  1.
        -11    1    3    3    0    0  0.25863117454E+02  0.57185904537E+02  0.43985180205E+03  0.44430702931E+03  0.00000000000E+00 0. -1.
         22    1    1    2    0    0 -0.42676282973E+02 -0.33661932042E+03 -0.87113657319E+03  0.93488649641E+03  0.00000000000E+00 0.  1.
<mgrwt>
<rscale>  0 0.24210575E+04</rscale>
<asrwt>0</asrwt>
<pdfrwt beam="1">  1        1 0.24429635E+00 0.24210575E+04</pdfrwt>
<pdfrwt beam="2">  1       -1 0.14197325E+00 0.24210575E+04</pdfrwt>
<totfact> 0.20555855E+00</totfact>
</mgrwt>
</event>
<event>
 6    1  0.1603085E-006  0.2287390E+04  0.7818608E-02  0.8482910E-01
          2   -1    0    0  501    0  0.00000000000E+00  0.00000000000E+00  0.14549060213E+04  0.14549060213E+04  0.00000000000E+00 0. -1.
         -2   -1    0    0    0  501 -0.00000000000E+00 -0.00000000000E+00 -0.89905326219E+03  0.89905326219E+03  0.00000000000E+00 0.  1.
         23    2    1    2    0    0  0.26029496066E+03  0.83831985377E+03  0.10296414478E+04  0.13564577220E+04  0.96345195449E+02 0.  0.
         13    1    3    3    0    0  0.54829375717E+02  0.32396563534E+03  0.35889121326E+03  0.48658287710E+03  0.00000000000E+00 0. -1.
        -13    1    3    3    0    0  0.20546558494E+03  0.51435421843E+03  0.67075023455E+03  0.86987484488E+03  0.00000000000E+00 0.  1.
         22    1    1    2    0    0 -0.26029496066E+03 -0.83831985377E+03 -0.47378868867E+03  0.99750156154E+03  0.00000000000E+00 0.  1.
<mgrwt>
<rscale>  0 0.22873898E+04</rscale>
<asrwt>0</asrwt>
<pdfrwt beam="1">  1        2 0.22383170E+00 0.22873898E+04</pdfrwt>
<pdfrwt beam="2">  1       -2 0.13831589E+00 0.22873898E+04</pdfrwt>
<totfact> 0.45293405E+00</totfact>
</mgrwt>
</event>
<event>
 6    1  0.1603085E-006  0.2071500E+04  0.7818608E-02  0.8573903E-01
          1   -1    0    0  501    0  0.00000000000E+00  0.00000000000E+00  0.12843706174E+04  0.12843706174E+04  0.00000000000E+00 0. -1.
         -1   -1    0    0    0  501 -0.00000000000E+00 -0.00000000000E+00 -0.83525593357E+03  0.83525593357E+03  0.00000000000E+00 0.  1.
         23    2    1    2    0    0  0.80715930159E+03 -0.64582764828E+03  0.22198466242E+03  0.10612374278E+04  0.91368475930E+02 0.  0.
         13    1    3    3    0    0  0.44751483624E+03 -0.36040713393E+03  0.16968324081E+03  0.59912872828E+03  0.00000000000E+00 0. -1.
        -13    1    3    3    0    0  0.35964446535E+03 -0.28542051435E+03  0.52301421609E+02  0.46210869952E+03  0.00000000000E+00 0.  1.
         22    1    1    2    0    0 -0.80715930159E+03  0.64582764828E+03  0.22713002142E+03  0.10583891232E+04  0.00000000000E+00 0.  1.
<mgrwt>
<rscale>  0 0.20715001E+04</rscale>
<asrwt>0</asrwt>
<pdfrwt beam="1">  1        1 0.19759548E+00 0.20715001E+04</pdfrwt>
<pdfrwt beam="2">  1       -1 0.12850091E+00 0.20715001E+04</pdfrwt>
<totfact> 0.44691587E+00</totfact>
</mgrwt>
</event>
<event>
 6    1  0.1603085E-006  0.2898478E+04  0.7818608E-02  0.8273330E-01
          1   -1    0    0  501    0  0.00000000000E+00  0.00000000000E+00  0.23217856230E+04  0.23217856230E+04  0.00000000000E+00 0. -1.
         -1   -1    0    0    0  501 -0.00000000000E+00 -0.00000000000E+00 -0.90460285200E+03  0.90460285200E+03  0.00000000000E+00 0.  1.
         23    2    1    2    0    0  0.86649099521E+03  0.32529375187E+03 -0.53006598548E+03  0.10703735424E+04  0.90038334251E+02 0.  0.
         13    1    3    3    0    0  0.14510376173E+03  0.65251492996E+02 -0.13001744385E+03  0.20546871955E+03  0.00000000000E+00 0. -1.
        -13    1    3    3    0    0  0.72138723347E+03  0.26004225888E+03 -0.40004854162E+03  0.86490482290E+03  0.00000000000E+00 0.  1.
         22    1    1    2    0    0 -0.86649099521E+03 -0.32529375187E+03  0.19472487564E+04  0.21560149325E+04  0.00000000000E+00 0. -1.
<mgrwt>
<rscale>  0 0.28984781E+04</rscale>
<asrwt>0</asrwt>
<pdfrwt beam="1">  1        1 0.35719779E+00 0.28984781E+04</pdfrwt>
<pdfrwt beam="2">  1       -1 0.13916967E+00 0.28984781E+04</pdfrwt>
<totfact> 0.65702495E-01</totfact>
</mgrwt>
</event>
<event>
 6    1  0.1603085E-006  0.2752923E+04  0.7818608E-02  0.8318035E-01
         -2   -1    0    0    0  501 -0.00000000000E+00  0.00000000000E+00  0.21650653290E+04  0.21650653290E+04  0.00000000000E+00 0.  1.
          2   -1    0    0  501    0  0.00000000000E+00 -0.00000000000E+00 -0.87509882426E+03  0.87509882426E+03  0.00000000000E+00 0. -1.
         23    2    1    2    0    0 -0.21033001206E+03 -0.11333018886E+04 -0.18213523258E+03  0.11704862640E+04  0.90845839374E+02 0.  0.
         13    1    3    3    0    0 -0.15462103087E+03 -0.59377781608E+03 -0.84365747773E+02  0.61935235323E+03  0.00000000000E+00 0. -1.
        -13    1    3    3    0    0 -0.55708981194E+02 -0.53952407251E+03 -0.97769484804E+02  0.55113391074E+03  0.00000000000E+00 0.  1.
         22    1    1    2    0    0  0.21033001206E+03  0.11333018886E+04  0.14721017373E+04  0.18696778893E+04  0.00000000000E+00 0.  1.
<mgrwt>
<rscale>  0 0.27529229E+04</rscale>
<asrwt>0</asrwt>
<pdfrwt beam="1">  1        2 0.13463059E+00 0.27529229E+04</pdfrwt>
<pdfrwt beam="2">  1       -2 0.33308697E+00 0.27529229E+04</pdfrwt>
<totfact> 0.52900103E-01</totfact>
</mgrwt>
</event>
<event>
 6    1  0.1603085E-006  0.3087954E+04  0.7818608E-02  0.8219052E-01
          2   -1    0    0  501    0  0.00000000000E+00  0.00000000000E+00  0.42247632968E+04  0.42247632968E+04  0.00000000000E+00 0. -1.
         -2   -1    0    0    0  501 -0.00000000000E+00 -0.00000000000E+00 -0.56426002935E+03  0.56426002935E+03  0.00000000000E+00 0.  1.
         23    2    1    2    0    0 -0.39478607689E+03  0.14810082382E+04  0.21010154722E+04  0.26024178218E+04  0.95242093842E+02 0.  0.
         11    1    3    3    0    0 -0.20348124077E+03  0.92908670103E+03  0.12713769297E+04  0.15877676186E+04  0.00000000000E+00 0.  1.
        -11    1    3    3    0    0 -0.19130483611E+03  0.55192153721E+03  0.82963854249E+03  0.10146502031E+04  0.00000000000E+00 0. -1.
         22    1    1    2    0    0  0.39478607689E+03 -0.14810082382E+04  0.15594877953E+04  0.21866055044E+04  0.00000000000E+00 0.  1.
<mgrwt>
<rscale>  0 0.30879541E+04</rscale>
<asrwt>0</asrwt>
<pdfrwt beam="1">  1        2 0.64996356E+00 0.30879541E+04</pdfrwt>
<pdfrwt beam="2">  1       -2 0.86809238E-01 0.30879541E+04</pdfrwt>
<totfact> 0.21564057E-01</totfact>
</mgrwt>
</event>
<event>
 6    1  0.1603085E-006  0.3407688E+04  0.7818608E-02  0.8136022E-01
         -2   -1    0    0    0  501 -0.00000000000E+00  0.00000000000E+00  0.95597796135E+03  0.95597796135E+03  0.00000000000E+00 0. -1.
          2   -1    0    0  501    0  0.00000000000E+00 -0.00000000000E+00 -0.30367684017E+04  0.30367684017E+04  0.00000000000E+00 0.  1.
         23    2    1    2    0    0 -0.11958064514E+04 -0.43772356109E+03  0.28311211737E+03  0.13076783402E+04  0.91187637331E+02 0.  0.
         11    1    3    3    0    0 -0.95637734802E+03 -0.35746525775E+03  0.18994644990E+03  0.10385175473E+04  0.00000000000E+00 0. -1.
        -11    1    3    3    0    0 -0.23942910337E+03 -0.80258303338E+02  0.93165667476E+02  0.26916079282E+03  0.00000000000E+00 0.  1.
         22    1    1    2    0    0  0.11958064514E+04  0.43772356109E+03 -0.23639025577E+04  0.26850680229E+04  0.00000000000E+00 0.  1.
<mgrwt>
<rscale>  0 0.34076876E+04</rscale>
<asrwt>0</asrwt>
<pdfrwt beam="1">  1        2 0.46719514E+00 0.34076876E+04</pdfrwt>
<pdfrwt beam="2">  1       -2 0.14707353E+00 0.34076876E+04</pdfrwt>
<totfact> 0.43107052E-01</totfact>
</mgrwt>
</event>
<event>
 6    1  0.1603085E-006  0.9521864E+03  0.7818608E-02  0.9362599E-01
          3   -1    0    0  501    0  0.00000000000E+00  0.00000000000E+00  0.56520430640E+03  0.56520430640E+03  0.00000000000E+00 0. -1.
         -3   -1    0    0    0  501 -0.00000000000E+00 -0.00000000000E+00 -0.40103149885E+03  0.40103149885E+03  0.00000000000E+00 0.  1.
         23    2    1    2    0    0  0.24179838721E+03 -0.37249582805E+03 -0.74406388150E+02  0.46211316680E+03  0.10388775849E+03 0.  0.
         13    1    3    3    0    0  0.79003661099E+02 -0.21280647830E+03 -0.52744394229E+02  0.23304537497E+03  0.00000000000E+00 0.  1.
        -13    1    3    3    0    0  0.16279472611E+03 -0.15968934975E+03 -0.21661993921E+02  0.22906779183E+03  0.00000000000E+00 0. -1.
         22    1    1    2    0    0 -0.24179838721E+03  0.37249582805E+03  0.23857919570E+03  0.50412263845E+03  0.00000000000E+00 0. -1.
<mgrwt>
<rscale>  0 0.95218639E+03</rscale>
<asrwt>0</asrwt>
<pdfrwt beam="1">  1        3 0.86954509E-01 0.95218639E+03</pdfrwt>
<pdfrwt beam="2">  1       -3 0.61697154E-01 0.95218639E+03</pdfrwt>
<totfact> 0.80982562E+00</totfact>
</mgrwt>
</event>
<event>
 6    1  0.1832884E-006  0.3327503E+04  0.7818608E-02  0.8155932E-01
          2   -1    0    0  501    0  0.00000000000E+00  0.00000000000E+00  0.23665927527E+04  0.23665927527E+04  0.00000000000E+00 0. -1.
         -2   -1    0    0    0  501 -0.00000000000E+00 -0.00000000000E+00 -0.11696433625E+04  0.11696433625E+04  0.00000000000E+00 0.  1.
         23    2    1    2    0    0  0.68349625950E+03 -0.13187170704E+04  0.13927893465E+04  0.20380588437E+04  0.87406166561E+02 0.  0.
         13    1    3    3    0    0  0.20228654457E+03 -0.47255879793E+03  0.50493428924E+03  0.72054861049E+03  0.00000000000E+00 0. -1.
        -13    1    3    3    0    0  0.48120971493E+03 -0.84615827244E+03  0.88785505728E+03  0.13175102332E+04  0.00000000000E+00 0.  1.
         22    1    1    2    0    0 -0.68349625950E+03  0.13187170704E+04 -0.19583995631E+03  0.14981772715E+04  0.00000000000E+00 0.  1.
<mgrwt>
<rscale>  0 0.33275033E+04</rscale>
<asrwt>0</asrwt>
<pdfrwt beam="1">  1        2 0.36409119E+00 0.33275033E+04</pdfrwt>
<pdfrwt beam="2">  1       -2 0.17994513E+00 0.33275033E+04</pdfrwt>
<totfact> 0.62827837E-01</totfact>
</mgrwt>
</event>
<event>
 6    1  0.1603085E-006  0.2781334E+04  0.7818608E-02  0.8309087E-01
          2   -1    0    0  501    0  0.00000000000E+00  0.00000000000E+00  0.22268000635E+04  0.22268000635E+04  0.00000000000E+00 0. -1.
         -2   -1    0    0    0  501 -0.00000000000E+00 -0.00000000000E+00 -0.86849039318E+03  0.86849039318E+03  0.00000000000E+00 0.  1.
         23    2    1    2    0    0 -0.97413353562E+03  0.98995742699E+03  0.71481547535E+03  0.15645923704E+04  0.89645240293E+02 0.  0.
         11    1    3    3    0    0 -0.20242072771E+03  0.25729923904E+03  0.18129348131E+03  0.37422503362E+03  0.00000000000E+00 0. -1.
        -11    1    3    3    0    0 -0.77171280791E+03  0.73265818794E+03  0.53352199404E+03  0.11903673367E+04  0.00000000000E+00 0.  1.
         22    1    1    2    0    0  0.97413353562E+03 -0.98995742699E+03  0.64349419494E+03  0.15306980863E+04  0.00000000000E+00 0.  1.
<mgrwt>
<rscale>  0 0.27813338E+04</rscale>
<asrwt>0</asrwt>
<pdfrwt beam="1">  1        2 0.34258462E+00 0.27813338E+04</pdfrwt>
<pdfrwt beam="2">  1       -2 0.13361391E+00 0.27813338E+04</pdfrwt>
<totfact> 0.17603911E+00</totfact>
</mgrwt>
</event>
<event>
 6    1  0.1603085E-006  0.1525532E+04  0.7818608E-02  0.8867650E-01
          2   -1    0    0  501    0  0.00000000000E+00  0.00000000000E+00  0.90877071074E+03  0.90877071074E+03  0.00000000000E+00 0.  1.
         -2   -1    0    0    0  501 -0.00000000000E+00 -0.00000000000E+00 -0.64021849850E+03  0.64021849850E+03  0.00000000000E+00 0. -1.
         23    2    1    2    0    0 -0.48422305702E+03  0.27351528544E+03 -0.39145337369E+03  0.68591913458E+03  0.89256568947E+02 0.  0.
         13    1    3    3    0    0 -0.43752483582E+03  0.27139585376E+03 -0.34337851838E+03  0.61886387702E+03  0.00000000000E+00 0. -1.
        -13    1    3    3    0    0 -0.46698221196E+02  0.21194316755E+01 -0.48074855308E+02  0.67055257560E+02  0.00000000000E+00 0.  1.
         22    1    1    2    0    0  0.48422305702E+03 -0.27351528544E+03  0.66000558592E+03  0.86307007465E+03  0.00000000000E+00 0.  1.
<mgrwt>
<rscale>  0 0.15255318E+04</rscale>
<asrwt>0</asrwt>
<pdfrwt beam="1">  1        2 0.13981088E+00 0.15255318E+04</pdfrwt>
<pdfrwt beam="2">  1       -2 0.98495154E-01 0.15255318E+04</pdfrwt>
<totfact> 0.23885856E+01</totfact>
</mgrwt>
</event>
<event>
 6    1  0.1603085E-006  0.3840668E+03  0.7818608E-02  0.1049441E+00
          2   -1    0    0  501    0  0.00000000000E+00  0.00000000000E+00  0.36166510702E+03  0.36166510702E+03  0.00000000000E+00 0. -1.
         -2   -1    0    0    0  501 -0.00000000000E+00 -0.00000000000E+00 -0.10196401666E+03  0.10196401666E+03  0.00000000000E+00 0.  1.
         23    2    1    2    0    0  0.28277832460E+02  0.15729993019E+03  0.25099279526E+03  0.30357057736E+03  0.60123275989E+02 0.  0.
         13    1    3    3    0    0  0.40364847273E+02  0.13028605413E+03  0.22958381685E+03  0.26704401464E+03  0.00000000000E+00 0. -1.
        -13    1    3    3    0    0 -0.12087014814E+02  0.27013876065E+02  0.21408978409E+02  0.36526562714E+02  0.00000000000E+00 0.  1.
         22    1    1    2    0    0 -0.28277832460E+02 -0.15729993019E+03  0.87082950992E+01  0.16005854632E+03  0.00000000000E+00 0.  1.
<mgrwt>
<rscale>  0 0.38406680E+03</rscale>
<asrwt>0</asrwt>
<pdfrwt beam="1">  1        2 0.55640785E-01 0.38406680E+03</pdfrwt>
<pdfrwt beam="2">  1       -2 0.15686772E-01 0.38406680E+03</pdfrwt>
<totfact> 0.28481290E+03</totfact>
</mgrwt>
</event>
<event>
 6    1  0.1603085E-006  0.1114600E+04  0.7818608E-02  0.9191077E-01
          2   -1    0    0  501    0  0.00000000000E+00  0.00000000000E+00  0.14515834460E+04  0.14515834460E+04  0.00000000000E+00 0. -1.
         -2   -1    0    0    0  501 -0.00000000000E+00 -0.00000000000E+00 -0.21396177027E+03  0.21396177027E+03  0.00000000000E+00 0.  1.
         23    2    1    2    0    0  0.41423566178E+02 -0.11235766378E+02  0.14472306701E+04  0.14515870784E+04  0.10385701427E+03 0.  0.
         13    1    3    3    0    0  0.42979876161E+02 -0.45770274930E+02  0.53014360584E+03  0.53384869639E+03  0.00000000000E+00 0.  1.
        -13    1    3    3    0    0 -0.15563099830E+01  0.34534508552E+02  0.91708706423E+03  0.91773838198E+03  0.00000000000E+00 0. -1.
         22    1    1    2    0    0 -0.41423566178E+02  0.11235766378E+02 -0.20960899432E+03  0.21395813792E+03  0.00000000000E+00 0.  1.
<mgrwt>
<rscale>  0 0.11146001E+04</rscale>
<asrwt>0</asrwt>
<pdfrwt beam="1">  1        2 0.22332052E+00 0.11146001E+04</pdfrwt>
<pdfrwt beam="2">  1       -2 0.32917196E-01 0.11146001E+04</pdfrwt>
<totfact> 0.11541406E+02</totfact>
</mgrwt>
</event>
<event>
 6    1  0.1603085E-006  0.1156450E+04  0.7818608E-02  0.9151854E-01
          2   -1    0    0  501    0  0.00000000000E+00  0.00000000000E+00  0.22127437898E+04  0.22127437898E+04  0.00000000000E+00 0. -1.
         -2   -1    0    0    0  501 -0.00000000000E+00 -0.00000000000E+00 -0.15109925292E+03  0.15109925292E+03  0.00000000000E+00 0.  1.
         23    2    1    2    0    0  0.50233264616E+03  0.16258474591E+03  0.57455502679E+03  0.78580403876E+03  0.92750318241E+02 0.  0.
         11    1    3    3    0    0  0.13994504211E+03  0.38366573574E+01  0.16442293830E+03  0.21594961771E+03  0.00000000000E+00 0.  1.
        -11    1    3    3    0    0  0.36238760404E+03  0.15874808855E+03  0.41013208849E+03  0.56985442105E+03  0.00000000000E+00 0. -1.
         22    1    1    2    0    0 -0.50233264616E+03 -0.16258474591E+03  0.14870895101E+04  0.15780390040E+04  0.00000000000E+00 0. -1.
<mgrwt>
<rscale>  0 0.11564496E+04</rscale>
<asrwt>0</asrwt>
<pdfrwt beam="1">  1        2 0.34042210E+00 0.11564496E+04</pdfrwt>
<pdfrwt beam="2">  1       -2 0.23246040E-01 0.11564496E+04</pdfrwt>
<totfact> 0.82523980E+01</totfact>
</mgrwt>
</event>
<event>
 6    1  0.1603085E-006  0.3145611E+04  0.7818608E-02  0.8203331E-01
         -1   -1    0    0    0  501 -0.00000000000E+00  0.00000000000E+00  0.70859454799E+03  0.70859454799E+03  0.00000000000E+00 0.  1.
          1   -1    0    0  501    0  0.00000000000E+00 -0.00000000000E+00 -0.34910193855E+04  0.34910193855E+04  0.00000000000E+00 0. -1.
         23    2    1    2    0    0  0.97538372009E+03 -0.12221403008E+04 -0.16045074561E+04  0.22419393758E+04  0.82750661522E+02 0.  0.
         13    1    3    3    0    0  0.14999872261E+03 -0.23436248906E+03 -0.30359571174E+03  0.41182004474E+03  0.00000000000E+00 0. -1.
        -13    1    3    3    0    0  0.82538499748E+03 -0.98777781174E+03 -0.13009117443E+04  0.18301193311E+04  0.00000000000E+00 0.  1.
         22    1    1    2    0    0 -0.97538372009E+03  0.12221403008E+04 -0.11779173814E+04  0.19576745577E+04  0.00000000000E+00 0.  1.
<mgrwt>
<rscale>  0 0.31456111E+04</rscale>
<asrwt>0</asrwt>
<pdfrwt beam="1">  1        1 0.53707991E+00 0.31456111E+04</pdfrwt>
<pdfrwt beam="2">  1       -1 0.10901454E+00 0.31456111E+04</pdfrwt>
<totfact> 0.16624716E-01</totfact>
</mgrwt>
</event>
<event>
 6    1  0.1603085E-006  0.2998003E+04  0.7818608E-02  0.8244301E-01
          2   -1    0    0  501    0  0.00000000000E+00  0.00000000000E+00  0.31339780457E+04  0.31339780457E+04  0.00000000000E+00 0. -1.
         -2   -1    0    0    0  501 -0.00000000000E+00 -0.00000000000E+00 -0.71698200951E+03  0.71698200951E+03  0.00000000000E+00 0.  1.
         23    2    1    2    0    0 -0.14881275095E+04 -0.10591710518E+03  0.10416599062E+04  0.18218490706E+04  0.91305849704E+02 0.  0.
         11    1    3    3    0    0 -0.13021934164E+04 -0.63747281994E+02  0.89697269880E+03  0.15825079564E+04  0.00000000000E+00 0. -1.
        -11    1    3    3    0    0 -0.18593409308E+03 -0.42169823190E+02  0.14468720741E+03  0.23934111420E+03  0.00000000000E+00 0.  1.
         22    1    1    2    0    0  0.14881275095E+04  0.10591710518E+03  0.13753361300E+04  0.20291109846E+04  0.00000000000E+00 0.  1.
<mgrwt>
<rscale>  0 0.29980033E+04</rscale>
<asrwt>0</asrwt>
<pdfrwt beam="1">  1        2 0.48215046E+00 0.29980033E+04</pdfrwt>
<pdfrwt beam="2">  1       -2 0.11030493E+00 0.29980033E+04</pdfrwt>
<totfact> 0.79909952E-01</totfact>
</mgrwt>
</event>
<event>
 6    1  0.1603085E-006  0.5418151E+04  0.7818608E-02  0.7767053E-01
          1   -1    0    0  501    0  0.00000000000E+00  0.00000000000E+00  0.40192831704E+04  0.40192831704E+04  0.00000000000E+00 0. -1.
         -1   -1    0    0    0  501 -0.00000000000E+00 -0.00000000000E+00 -0.18259701081E+04  0.18259701081E+04  0.00000000000E+00 0.  1.
         23    2    1    2    0    0 -0.79481312579E+03 -0.22201089733E+04  0.25341148832E+04  0.34626585502E+04  0.87488492050E+02 0.  0.
         13    1    3    3    0    0 -0.44258776968E+03 -0.12270926298E+04  0.13379865732E+04  0.18686487969E+04  0.00000000000E+00 0. -1.
        -13    1    3    3    0    0 -0.35222535611E+03 -0.99301634347E+03  0.11961283100E+04  0.15940097534E+04  0.00000000000E+00 0.  1.
         22    1    1    2    0    0  0.79481312579E+03  0.22201089733E+04 -0.34080182088E+03  0.23825947283E+04  0.00000000000E+00 0.  1.
<mgrwt>
<rscale>  0 0.54181513E+04</rscale>
<asrwt>0</asrwt>
<pdfrwt beam="1">  1        1 0.61835126E+00 0.54181513E+04</pdfrwt>
<pdfrwt beam="2">  1       -1 0.28091848E+00 0.54181513E+04</pdfrwt>
<totfact> 0.28193322E-03</totfact>
</mgrwt>
</event>
<event>
 6    1  0.1603085E-006  0.2364217E+04  0.7818608E-02  0.8453023E-01
         -1   -1    0    0    0  501 -0.00000000000E+00  0.00000000000E+00  0.48228941184E+03  0.48228941184E+03  0.00000000000E+00 0.  1.
          1   -1    0    0  501    0  0.00000000000E+00 -0.00000000000E+00 -0.28973897052E+04  0.28973897052E+04  0.00000000000E+00 0. -1.
         23    2    1    2    0    0  0.83522158392E+03 -0.21866032455E+03 -0.23599423127E+04  0.25145491646E+04  0.90677173590E+02 0.  0.
         11    1    3    3    0    0  0.48288114596E+03 -0.15446355082E+03 -0.12788170889E+04  0.13756476063E+04  0.00000000000E+00 0. -1.
        -11    1    3    3    0    0  0.35234043796E+03 -0.64196773730E+02 -0.10811252238E+04  0.11389015583E+04  0.00000000000E+00 0.  1.
         22    1    1    2    0    0 -0.83522158392E+03  0.21866032455E+03 -0.55157980596E+02  0.86512995243E+03  0.00000000000E+00 0.  1.
<mgrwt>
<rscale>  0 0.23642169E+04</rscale>
<asrwt>0</asrwt>
<pdfrwt beam="1">  1        1 0.44575226E+00 0.23642169E+04</pdfrwt>
<pdfrwt beam="2">  1       -1 0.74198372E-01 0.23642169E+04</pdfrwt>
<totfact> 0.11664996E+00</totfact>
</mgrwt>
</event>
<event>
 6    1  0.1603085E-006  0.5455948E+03  0.7818608E-02  0.1002519E+00
         -2   -1    0    0    0  501 -0.00000000000E+00  0.00000000000E+00  0.62016829885E+02  0.62016829885E+02  0.00000000000E+00 0.  1.
          2   -1    0    0  501    0  0.00000000000E+00 -0.00000000000E+00 -0.11999712728E+04  0.11999712728E+04  0.00000000000E+00 0. -1.
         23    2    1    2    0    0 -0.54817395552E+02 -0.26746489604E+02 -0.11818170694E+04  0.11868598686E+04  0.90688702120E+02 0.  0.
         11    1    3    3    0    0 -0.22849139547E+02 -0.34302113912E+02 -0.18645816238E+03  0.19095906502E+03  0.00000000000E+00 0. -1.
        -11    1    3    3    0    0 -0.31968256005E+02  0.75556243076E+01 -0.99535890698E+03  0.99590080357E+03  0.00000000000E+00 0.  1.
         22    1    1    2    0    0  0.54817395552E+02  0.26746489604E+02  0.43862626434E+02  0.75128234099E+02  0.00000000000E+00 0.  1.
<mgrwt>
<rscale>  0 0.54559477E+03</rscale>
<asrwt>0</asrwt>
<pdfrwt beam="1">  1        2 0.18461095E+00 0.54559477E+03</pdfrwt>
<pdfrwt beam="2">  1       -2 0.95410513E-02 0.54559477E+03</pdfrwt>
<totfact> 0.14199444E+03</totfact>
</mgrwt>
</event>
<event>
 6    1  0.1603085E-006  0.8072767E+03  0.7818608E-02  0.9549544E-01
          2   -1    0    0  501    0  0.00000000000E+00  0.00000000000E+00  0.72940170120E+03  0.72940170120E+03  0.00000000000E+00 0. -1.
         -2   -1    0    0    0  501 -0.00000000000E+00 -0.00000000000E+00 -0.22336650977E+03  0.22336650977E+03  0.00000000000E+00 0.  1.
         23    2    1    2    0    0 -0.25978087823E+03 -0.54625553984E+02  0.60674105574E+03  0.66884616718E+03  0.93543737313E+02 0.  0.
         11    1    3    3    0    0 -0.19242018040E+03 -0.33009595868E+02  0.33204707441E+03  0.38518880938E+03  0.00000000000E+00 0. -1.
        -11    1    3    3    0    0 -0.67360697826E+02 -0.21615958116E+02  0.27469398133E+03  0.28365735780E+03  0.00000000000E+00 0.  1.
         22    1    1    2    0    0  0.25978087823E+03  0.54625553984E+02 -0.10070586431E+03  0.28392204379E+03  0.00000000000E+00 0.  1.
<mgrwt>
<rscale>  0 0.80727669E+03</rscale>
<asrwt>0</asrwt>
<pdfrwt beam="1">  1        2 0.11221565E+00 0.80727669E+03</pdfrwt>
<pdfrwt beam="2">  1       -2 0.34364079E-01 0.80727669E+03</pdfrwt>
<totfact> 0.30992890E+02</totfact>
</mgrwt>
</event>
<event>
 6    1  0.1603085E-006  0.1865027E+04  0.7818608E-02  0.8672463E-01
          2   -1    0    0  501    0  0.00000000000E+00  0.00000000000E+00  0.21408630527E+04  0.21408630527E+04  0.00000000000E+00 0. -1.
         -2   -1    0    0    0  501 -0.00000000000E+00 -0.00000000000E+00 -0.40618278740E+03  0.40618278740E+03  0.00000000000E+00 0.  1.
         23    2    1    2    0    0 -0.87623036955E+03 -0.24945730479E+03  0.11265014949E+04  0.14516509231E+04  0.90973496572E+02 0.  0.
         11    1    3    3    0    0 -0.63905668510E+03 -0.21620353905E+03  0.79463784266E+03  0.10423947036E+04  0.00000000000E+00 0. -1.
        -11    1    3    3    0    0 -0.23717368444E+03 -0.33253765739E+02  0.33186365227E+03  0.40925621953E+03  0.00000000000E+00 0.  1.
         22    1    1    2    0    0  0.87623036955E+03  0.24945730479E+03  0.60817877035E+03  0.10953949170E+04  0.00000000000E+00 0.  1.
<mgrwt>
<rscale>  0 0.18650273E+04</rscale>
<asrwt>0</asrwt>
<pdfrwt beam="1">  1        2 0.32936354E+00 0.18650273E+04</pdfrwt>
<pdfrwt beam="2">  1       -2 0.62489661E-01 0.18650273E+04</pdfrwt>
<totfact> 0.12437500E+01</totfact>
</mgrwt>
</event>
<event>
 6    1  0.1603085E-006  0.8745501E+03  0.7818608E-02  0.9457966E-01
         -2   -1    0    0    0  501 -0.00000000000E+00  0.00000000000E+00  0.58833631061E+03  0.58833631061E+03  0.00000000000E+00 0.  1.
          2   -1    0    0  501    0  0.00000000000E+00 -0.00000000000E+00 -0.32500028038E+03  0.32500028038E+03  0.00000000000E+00 0. -1.
         23    2    1    2    0    0  0.58806796808E+02 -0.45329136098E+01  0.58053722263E+03  0.59069842972E+03  0.91773533004E+02 0.  0.
         11    1    3    3    0    0  0.76813870202E+02 -0.25462969904E+02  0.45742876631E+03  0.46453181779E+03  0.00000000000E+00 0. -1.
        -11    1    3    3    0    0 -0.18007073394E+02  0.20930056294E+02  0.12310845632E+03  0.12616661193E+03  0.00000000000E+00 0.  1.
         22    1    1    2    0    0 -0.58806796808E+02  0.45329136098E+01 -0.31720119239E+03  0.32263816128E+03  0.00000000000E+00 0. -1.
<mgrwt>
<rscale>  0 0.87455009E+03</rscale>
<asrwt>0</asrwt>
<pdfrwt beam="1">  1        2 0.50000043E-01 0.87455009E+03</pdfrwt>
<pdfrwt beam="2">  1       -2 0.90513278E-01 0.87455009E+03</pdfrwt>
<totfact> 0.10521633E+02</totfact>
</mgrwt>
</event>
<event>
 6    1  0.1603085E-006  0.4710555E+04  0.7818608E-02  0.7874777E-01
         -2   -1    0    0    0  501 -0.00000000000E+00  0.00000000000E+00  0.14659446642E+04  0.14659446642E+04  0.00000000000E+00 0.  1.
          2   -1    0    0  501    0  0.00000000000E+00 -0.00000000000E+00 -0.37841353141E+04  0.37841353141E+04  0.00000000000E+00 0. -1.
         23    2    1    2    0    0  0.49237659156E+03  0.14021009618E+04 -0.31948460455E+04  0.35247259573E+04  0.91268857948E+02 0.  0.
         13    1    3    3    0    0  0.28550216328E+03  0.88858713308E+03 -0.19183015625E+04  0.21333024781E+04  0.00000000000E+00 0. -1.
        -13    1    3    3    0    0  0.20687442828E+03  0.51351382876E+03 -0.12765444830E+04  0.13914234792E+04  0.00000000000E+00 0.  1.
         22    1    1    2    0    0 -0.49237659156E+03 -0.14021009618E+04  0.87665539562E+03  0.17253540210E+04  0.00000000000E+00 0.  1.
<mgrwt>
<rscale>  0 0.47105554E+04</rscale>
<asrwt>0</asrwt>
<pdfrwt beam="1">  1        2 0.58217466E+00 0.47105554E+04</pdfrwt>
<pdfrwt beam="2">  1       -2 0.22552995E+00 0.47105554E+04</pdfrwt>
<totfact> 0.34195197E-02</totfact>
</mgrwt>
</event>
<event>
 6    1  0.1603085E-006  0.3243537E+04  0.7818608E-02  0.8177413E-01
          2   -1    0    0  501    0  0.00000000000E+00  0.00000000000E+00  0.26380645459E+04  0.26380645459E+04  0.00000000000E+00 0. -1.
         -2   -1    0    0    0  501 -0.00000000000E+00 -0.00000000000E+00 -0.99699371660E+03  0.99699371660E+03  0.00000000000E+00 0.  1.
         23    2    1    2    0    0 -0.12903014773E+04 -0.97440926931E+03  0.94215643880E+03  0.18735723410E+04  0.90902338618E+02 0.  0.
         11    1    3    3    0    0 -0.11979016498E+04 -0.88038614879E+03  0.88296060474E+03  0.17290655173E+04  0.00000000000E+00 0. -1.
        -11    1    3    3    0    0 -0.92399827562E+02 -0.94023120517E+02  0.59195834060E+02  0.14450682370E+03  0.00000000000E+00 0.  1.
         22    1    1    2    0    0  0.12903014773E+04  0.97440926931E+03  0.69891439048E+03  0.17614859215E+04  0.00000000000E+00 0.  1.
<mgrwt>
<rscale>  0 0.32435374E+04</rscale>
<asrwt>0</asrwt>
<pdfrwt beam="1">  1        2 0.40585608E+00 0.32435374E+04</pdfrwt>
<pdfrwt beam="2">  1       -2 0.15338365E+00 0.32435374E+04</pdfrwt>
<totfact> 0.68442910E-01</totfact>
</mgrwt>
</event>
<event>
 6    1  0.1603085E-006  0.1818272E+04  0.7818608E-02  0.8696643E-01
          2   -1    0    0  501    0  0.00000000000E+00  0.00000000000E+00  0.19629955310E+04  0.19629955310E+04  0.00000000000E+00 0. -1.
         -2   -1    0    0    0  501 -0.00000000000E+00 -0.00000000000E+00 -0.42105435500E+03  0.42105435500E+03  0.00000000000E+00 0.  1.
         23    2    1    2    0    0 -0.53210116426E+03 -0.31718559737E+03  0.16412668229E+04  0.17566712632E+04  0.91644918407E+02 0.  0.
         13    1    3    3    0    0 -0.17510083140E+03 -0.84362628859E+02  0.62873467968E+03  0.65809167426E+03  0.00000000000E+00 0.  1.
        -13    1    3    3    0    0 -0.35700033286E+03 -0.23282296851E+03  0.10125321432E+04  0.10985795890E+04  0.00000000000E+00 0. -1.
         22    1    1    2    0    0  0.53210116426E+03  0.31718559737E+03 -0.99325646849E+02  0.62737862277E+03  0.00000000000E+00 0.  1.
<mgrwt>
<rscale>  0 0.18182715E+04</rscale>
<asrwt>0</asrwt>
<pdfrwt beam="1">  1        2 0.30199931E+00 0.18182715E+04</pdfrwt>
<pdfrwt beam="2">  1       -2 0.64777594E-01 0.18182715E+04</pdfrwt>
<totfact> 0.14523644E+01</totfact>
</mgrwt>
</event>
<event>
 6    1  0.1603085E-006  0.3262875E+04  0.7818608E-02  0.8172407E-01
          2   -1    0    0  501    0  0.00000000000E+00  0.00000000000E+00  0.23941833389E+04  0.23941833389E+04  0.00000000000E+00 0. -1.
         -2   -1    0    0    0  501 -0.00000000000E+00 -0.00000000000E+00 -0.11116893984E+04  0.11116893984E+04  0.00000000000E+00 0.  1.
         23    2    1    2    0    0 -0.79992587082E+03 -0.14174513420E+04  0.54236012409E+03  0.17178996470E+04  0.89302784228E+02 0.  0.
         11    1    3    3    0    0 -0.23808599282E+03 -0.42227821793E+03  0.20492173049E+03  0.52630480612E+03  0.00000000000E+00 0.  1.
        -11    1    3    3    0    0 -0.56183987800E+03 -0.99517312404E+03  0.33743839360E+03  0.11915948409E+04  0.00000000000E+00 0. -1.
         22    1    1    2    0    0  0.79992587082E+03  0.14174513420E+04  0.74013381635E+03  0.17879730903E+04  0.00000000000E+00 0. -1.
<mgrwt>
<rscale>  0 0.32628750E+04</rscale>
<asrwt>0</asrwt>
<pdfrwt beam="1">  1        2 0.36833590E+00 0.32628750E+04</pdfrwt>
<pdfrwt beam="2">  1       -2 0.17102914E+00 0.32628750E+04</pdfrwt>
<totfact> 0.70327528E-01</totfact>
</mgrwt>
</event>
<event>
 6    1  0.1603085E-006  0.8917171E+03  0.7818608E-02  0.9435995E-01
         -1   -1    0    0    0  501 -0.00000000000E+00  0.00000000000E+00  0.45463362165E+03  0.45463362165E+03  0.00000000000E+00 0.  1.
          1   -1    0    0  501    0  0.00000000000E+00 -0.00000000000E+00 -0.43725286963E+03  0.43725286963E+03  0.00000000000E+00 0. -1.
         23    2    1    2    0    0  0.32652320772E+02  0.18470448208E+03 -0.39079354231E+03  0.44267810500E+03  0.89790824576E+02 0.  0.
         13    1    3    3    0    0 -0.31300593696E+02  0.54799172210E+02 -0.12312495967E+03  0.13835617852E+03  0.00000000000E+00 0.  1.
        -13    1    3    3    0    0  0.63952914468E+02  0.12990530987E+03 -0.26766858264E+03  0.30432192648E+03  0.00000000000E+00 0. -1.
         22    1    1    2    0    0 -0.32652320772E+02 -0.18470448208E+03  0.40817429434E+03  0.44920838628E+03  0.00000000000E+00 0.  1.
<mgrwt>
<rscale>  0 0.89171712E+03</rscale>
<asrwt>0</asrwt>
<pdfrwt beam="1">  1        1 0.67269672E-01 0.89171712E+03</pdfrwt>
<pdfrwt beam="2">  1       -1 0.69943634E-01 0.89171712E+03</pdfrwt>
<totfact> 0.11098473E+02</totfact>
</mgrwt>
</event>
<event>
 6    1  0.1603085E-006  0.1474285E+04  0.7818608E-02  0.8901735E-01
         -2   -1    0    0    0  501 -0.00000000000E+00  0.00000000000E+00  0.62588852497E+03  0.62588852497E+03  0.00000000000E+00 0.  1.
          2   -1    0    0  501    0  0.00000000000E+00 -0.00000000000E+00 -0.86817233640E+03  0.86817233640E+03  0.00000000000E+00 0. -1.
         23    2    1    2    0    0 -0.12388275728E+03 -0.69637887072E+03  0.78862482085E+02  0.71725624568E+03  0.89144611477E+02 0.  0.
         11    1    3    3    0    0 -0.72808840201E+02 -0.22787982963E+03 -0.11855245696E+01  0.23923158118E+03  0.00000000000E+00 0.  1.
        -11    1    3    3    0    0 -0.51073917075E+02 -0.46849904108E+03  0.80048006655E+02  0.47802466450E+03  0.00000000000E+00 0. -1.
         22    1    1    2    0    0  0.12388275728E+03  0.69637887072E+03 -0.32114629352E+03  0.77680461570E+03  0.00000000000E+00 0. -1.
<mgrwt>
<rscale>  0 0.14742851E+04</rscale>
<asrwt>0</asrwt>
<pdfrwt beam="1">  1        2 0.13356497E+00 0.14742851E+04</pdfrwt>
<pdfrwt beam="2">  1       -2 0.96290543E-01 0.14742851E+04</pdfrwt>
<totfact> 0.26955944E+01</totfact>
</mgrwt>
</event>
<event>
 6    1  0.1603085E-006  0.1994986E+04  0.7818608E-02  0.8608969E-01
          2   -1    0    0  501    0  0.00000000000E+00  0.00000000000E+00  0.94086937101E+03  0.94086937101E+03  0.00000000000E+00 0. -1.
         -2   -1    0    0    0  501 -0.00000000000E+00 -0.00000000000E+00 -0.10575242527E+04  0.10575242527E+04  0.00000000000E+00 0.  1.
         23    2    1    2    0    0  0.65350461630E+03  0.42833403639E+03  0.55946359171E+03  0.96511025485E+03  0.88881737763E+02 0.  0.
         13    1    3    3    0    0  0.38789929496E+03  0.22923799874E+03  0.36913222610E+03  0.58247276627E+03  0.00000000000E+00 0. -1.
        -13    1    3    3    0    0  0.26560532134E+03  0.19909603765E+03  0.19033136561E+03  0.38263748858E+03  0.00000000000E+00 0.  1.
         22    1    1    2    0    0 -0.65350461630E+03 -0.42833403639E+03 -0.67611847336E+03  0.10332833688E+04  0.00000000000E+00 0.  1.
<mgrwt>
<rscale>  0 0.19949859E+04</rscale>
<asrwt>0</asrwt>
<pdfrwt beam="1">  1        2 0.14474913E+00 0.19949859E+04</pdfrwt>
<pdfrwt beam="2">  1       -2 0.16269604E+00 0.19949859E+04</pdfrwt>
<totfact> 0.61559202E+00</totfact>
</mgrwt>
</event>
<event>
 6    1  0.1603085E-006  0.8976660E+03  0.7818608E-02  0.9428504E-01
          2   -1    0    0  501    0  0.00000000000E+00  0.00000000000E+00  0.12568358910E+04  0.12568358910E+04  0.00000000000E+00 0. -1.
         -2   -1    0    0    0  501 -0.00000000000E+00 -0.00000000000E+00 -0.16028430849E+03  0.16028430849E+03  0.00000000000E+00 0.  1.
         23    2    1    2    0    0  0.30920271308E+03  0.17033575189E+03  0.97952061897E+03  0.10452104893E+04  0.91562752788E+02 0.  0.
         11    1    3    3    0    0  0.22172045015E+03  0.12713940041E+03  0.57767769325E+03  0.63169288616E+03  0.00000000000E+00 0.  1.
        -11    1    3    3    0    0  0.87482262927E+02  0.43196351481E+02  0.40184292573E+03  0.41351760309E+03  0.00000000000E+00 0. -1.
         22    1    1    2    0    0 -0.30920271308E+03 -0.17033575189E+03  0.11703096354E+03  0.37190971025E+03  0.00000000000E+00 0.  1.
<mgrwt>
<rscale>  0 0.89766602E+03</rscale>
<asrwt>0</asrwt>
<pdfrwt beam="1">  1        2 0.19335936E+00 0.89766602E+03</pdfrwt>
<pdfrwt beam="2">  1       -2 0.24659125E-01 0.89766602E+03</pdfrwt>
<totfact> 0.25807848E+02</totfact>
</mgrwt>
</event>
<event>
 6    1  0.1603085E-006  0.1192114E+04  0.7818608E-02  0.9119787E-01
          2   -1    0    0  501    0  0.00000000000E+00  0.00000000000E+00  0.30387128006E+03  0.30387128006E+03  0.00000000000E+00 0. -1.
         -2   -1    0    0    0  501 -0.00000000000E+00 -0.00000000000E+00 -0.11691925965E+04  0.11691925965E+04  0.00000000000E+00 0.  1.
         23    2    1    2    0    0  0.26841484142E+03  0.50191867287E+03 -0.23217389865E+03  0.62168585601E+03  0.92842356044E+02 0.  0.
         11    1    3    3    0    0  0.20668863383E+03  0.29139943580E+03 -0.14833928265E+03  0.38683118452E+03  0.00000000000E+00 0. -1.
        -11    1    3    3    0    0  0.61726207585E+02  0.21051923707E+03 -0.83834616003E+02  0.23485467149E+03  0.00000000000E+00 0.  1.
         22    1    1    2    0    0 -0.26841484142E+03 -0.50191867287E+03 -0.63314741783E+03  0.85137802061E+03  0.00000000000E+00 0. -1.
<mgrwt>
<rscale>  0 0.11921142E+04</rscale>
<asrwt>0</asrwt>
<pdfrwt beam="1">  1        2 0.46749427E-01 0.11921142E+04</pdfrwt>
<pdfrwt beam="2">  1       -2 0.17987579E+00 0.11921142E+04</pdfrwt>
<totfact> 0.19392198E+01</totfact>
</mgrwt>
</event>
<event>
 6    1  0.1603085E-006  0.2657883E+04  0.7818608E-02  0.8348801E-01
          2   -1    0    0  501    0  0.00000000000E+00  0.00000000000E+00  0.98161574794E+03  0.98161574794E+03  0.00000000000E+00 0. -1.
         -2   -1    0    0    0  501 -0.00000000000E+00 -0.00000000000E+00 -0.17991611842E+04  0.17991611842E+04  0.00000000000E+00 0.  1.
         23    2    1    2    0    0  0.41111268006E+03  0.11599933913E+04 -0.92861117524E+03  0.15450852627E+04  0.10184032015E+03 0.  0.
         13    1    3    3    0    0  0.23942554227E+03  0.68453757783E+03 -0.60921018812E+03  0.94712899811E+03  0.00000000000E+00 0. -1.
        -13    1    3    3    0    0  0.17168713779E+03  0.47545581343E+03 -0.31940098711E+03  0.59795626460E+03  0.00000000000E+00 0.  1.
         22    1    1    2    0    0 -0.41111268006E+03 -0.11599933913E+04  0.11106573898E+03  0.12356916694E+04  0.00000000000E+00 0. -1.
<mgrwt>
<rscale>  0 0.26578826E+04</rscale>
<asrwt>0</asrwt>
<pdfrwt beam="1">  1        2 0.15101781E+00 0.26578826E+04</pdfrwt>
<pdfrwt beam="2">  1       -2 0.27679403E+00 0.26578826E+04</pdfrwt>
<totfact> 0.10039089E+00</totfact>
</mgrwt>
</event>
<event>
 6    1  0.1603085E-006  0.1136617E+04  0.7818608E-02  0.9170220E-01
          2   -1    0    0  501    0  0.00000000000E+00  0.00000000000E+00  0.84740352967E+03  0.84740352967E+03  0.00000000000E+00 0. -1.
         -2   -1    0    0    0  501 -0.00000000000E+00 -0.00000000000E+00 -0.38113421477E+03  0.38113421477E+03  0.00000000000E+00 0.  1.
         23    2    1    2    0    0  0.43855473723E+03 -0.35353677221E+03  0.19407494929E+03  0.60291143464E+03  0.92296290421E+02 0.  0.
         13    1    3    3    0    0  0.39765927320E+03 -0.31727744664E+03  0.14381262300E+03  0.52865862922E+03  0.00000000000E+00 0.  1.
        -13    1    3    3    0    0  0.40895464026E+02 -0.36259325567E+02  0.50262326295E+02  0.74252805422E+02  0.00000000000E+00 0. -1.
         22    1    1    2    0    0 -0.43855473723E+03  0.35353677221E+03  0.27219436561E+03  0.62562630980E+03  0.00000000000E+00 0.  1.
<mgrwt>
<rscale>  0 0.11366169E+04</rscale>
<asrwt>0</asrwt>
<pdfrwt beam="1">  1        2 0.13036977E+00 0.11366169E+04</pdfrwt>
<pdfrwt beam="2">  1       -2 0.58636033E-01 0.11366169E+04</pdfrwt>
<totfact> 0.85868409E+01</totfact>
</mgrwt>
</event>
<event>
 6    1  0.1603085E-006  0.2114974E+04  0.7818608E-02  0.8554676E-01
          2   -1    0    0  501    0  0.00000000000E+00  0.00000000000E+00  0.14273833395E+04  0.14273833395E+04  0.00000000000E+00 0. -1.
         -2   -1    0    0    0  501 -0.00000000000E+00 -0.00000000000E+00 -0.78344698991E+03  0.78344698991E+03  0.00000000000E+00 0.  1.
         23    2    1    2    0    0  0.76156007976E+03 -0.28987842756E+03 -0.37844349126E+03  0.90344217097E+03  0.94789357805E+02 0.  0.
         11    1    3    3    0    0  0.38540724777E+03 -0.12670443709E+03 -0.14026591309E+03  0.42926365719E+03  0.00000000000E+00 0. -1.
        -11    1    3    3    0    0  0.37615283199E+03 -0.16317399047E+03 -0.23817757817E+03  0.47417851377E+03  0.00000000000E+00 0.  1.
         22    1    1    2    0    0 -0.76156007976E+03  0.28987842756E+03  0.10223798408E+04  0.13073881584E+04  0.00000000000E+00 0. -1.
<mgrwt>
<rscale>  0 0.21149744E+04</rscale>
<asrwt>0</asrwt>
<pdfrwt beam="1">  1        2 0.21959744E+00 0.21149744E+04</pdfrwt>
<pdfrwt beam="2">  1       -2 0.12053031E+00 0.21149744E+04</pdfrwt>
<totfact> 0.67487373E+00</totfact>
</mgrwt>
</event>
<event>
 6    1  0.1603085E-006  0.3958102E+04  0.7818608E-02  0.8013052E-01
          2   -1    0    0  501    0  0.00000000000E+00  0.00000000000E+00  0.25303601549E+04  0.25303601549E+04  0.00000000000E+00 0. -1.
         -2   -1    0    0    0  501 -0.00000000000E+00 -0.00000000000E+00 -0.15478600818E+04  0.15478600818E+04  0.00000000000E+00 0.  1.
         23    2    1    2    0    0  0.16070669627E+04  0.95957191083E+03 -0.16843675992E+03  0.18809268861E+04  0.77926466842E+02 0.  0.
         13    1    3    3    0    0  0.13640877674E+04  0.78841914541E+03 -0.12400641779E+03  0.15804169633E+04  0.00000000000E+00 0. -1.
        -13    1    3    3    0    0  0.24297919526E+03  0.17115276542E+03 -0.44430342128E+02  0.30050992286E+03  0.00000000000E+00 0.  1.
         22    1    1    2    0    0 -0.16070669627E+04 -0.95957191083E+03  0.11509368331E+04  0.21972933505E+04  0.00000000000E+00 0. -1.
<mgrwt>
<rscale>  0 0.39581023E+04</rscale>
<asrwt>0</asrwt>
<pdfrwt beam="1">  1        2 0.38928618E+00 0.39581023E+04</pdfrwt>
<pdfrwt beam="2">  1       -2 0.23813232E+00 0.39581023E+04</pdfrwt>
<totfact> 0.20127932E-01</totfact>
</mgrwt>
</event>
<event>
 6    1  0.1603085E-006  0.1287821E+04  0.7818608E-02  0.9039279E-01
          1   -1    0    0  501    0  0.00000000000E+00  0.00000000000E+00  0.78623768479E+03  0.78623768479E+03  0.00000000000E+00 0. -1.
         -1   -1    0    0    0  501 -0.00000000000E+00 -0.00000000000E+00 -0.52734797260E+03  0.52734797260E+03  0.00000000000E+00 0.  1.
         23    2    1    2    0    0 -0.37025065124E+03 -0.12300693092E+03  0.64867195887E+03  0.76209091615E+03  0.88266666761E+02 0.  0.
         13    1    3    3    0    0 -0.24205324787E+03 -0.42742072594E+02  0.44538445490E+03  0.50870814053E+03  0.00000000000E+00 0. -1.
        -13    1    3    3    0    0 -0.12819740337E+03 -0.80264858322E+02  0.20328750397E+03  0.25338277562E+03  0.00000000000E+00 0.  1.
         22    1    1    2    0    0  0.37025065124E+03  0.12300693092E+03 -0.38978224668E+03  0.55149474125E+03  0.00000000000E+00 0.  1.
<mgrwt>
<rscale>  0 0.12878212E+04</rscale>
<asrwt>0</asrwt>
<pdfrwt beam="1">  1        1 0.12095964E+00 0.12878212E+04</pdfrwt>
<pdfrwt beam="2">  1       -1 0.81130457E-01 0.12878212E+04</pdfrwt>
<totfact> 0.33857092E+01</totfact>
</mgrwt>
</event>
<event>
 6    1  0.1603085E-006  0.2497574E+04  0.7818608E-02  0.8403850E-01
         -1   -1    0    0    0  501 -0.00000000000E+00  0.00000000000E+00  0.83261387028E+03  0.83261387028E+03  0.00000000000E+00 0.  1.
          1   -1    0    0  501    0  0.00000000000E+00 -0.00000000000E+00 -0.18729801556E+04  0.18729801556E+04  0.00000000000E+00 0. -1.
         23    2    1    2    0    0 -0.95805982453E+03  0.42527654747E+03 -0.12528594359E+04  0.16360651070E+04  0.91178391008E+02 0.  0.
         13    1    3    3    0    0 -0.66290489311E+03  0.33941452771E+03 -0.88116124420E+03  0.11537288491E+04  0.00000000000E+00 0. -1.
        -13    1    3    3    0    0 -0.29515493142E+03  0.85862019756E+02 -0.37169819168E+03  0.48233625790E+03  0.00000000000E+00 0.  1.
         22    1    1    2    0    0  0.95805982453E+03 -0.42527654747E+03  0.21249315060E+03  0.10695289189E+04  0.00000000000E+00 0. -1.
<mgrwt>
<rscale>  0 0.24975742E+04</rscale>
<asrwt>0</asrwt>
<pdfrwt beam="1">  1        1 0.28815079E+00 0.24975742E+04</pdfrwt>
<pdfrwt beam="2">  1       -1 0.12809444E+00 0.24975742E+04</pdfrwt>
<totfact> 0.16997946E+00</totfact>
</mgrwt>
</event>
<event>
 6    1  0.1603085E-006  0.7720919E+03  0.7818608E-02  0.9601315E-01
         -3   -1    0    0    0  501 -0.00000000000E+00  0.00000000000E+00  0.29750070974E+03  0.29750070974E+03  0.00000000000E+00 0.  1.
          3   -1    0    0  501    0  0.00000000000E+00 -0.00000000000E+00 -0.50094500098E+03  0.50094500098E+03  0.00000000000E+00 0. -1.
         23    2    1    2    0    0  0.15838586910E+03  0.66699484602E+02 -0.45442691842E+03  0.49426289740E+03  0.90868491679E+02 0.  0.
         11    1    3    3    0    0  0.20921612480E+02  0.35519840972E+02 -0.19200637375E+03  0.19638182332E+03  0.00000000000E+00 0.  1.
        -11    1    3    3    0    0  0.13746425662E+03  0.31179643631E+02 -0.26242054468E+03  0.29788107408E+03  0.00000000000E+00 0. -1.
         22    1    1    2    0    0 -0.15838586910E+03 -0.66699484602E+02  0.25098262718E+03  0.30418281333E+03  0.00000000000E+00 0.  1.
<mgrwt>
<rscale>  0 0.77209195E+03</rscale>
<asrwt>0</asrwt>
<pdfrwt beam="1">  1        3 0.77068460E-01 0.77209195E+03</pdfrwt>
<pdfrwt beam="2">  1       -3 0.45769341E-01 0.77209195E+03</pdfrwt>
<totfact> 0.19785233E+01</totfact>
</mgrwt>
</event>
<event>
 6    1  0.1603085E-006  0.1891926E+04  0.7818608E-02  0.8658886E-01
         -1   -1    0    0    0  501 -0.00000000000E+00  0.00000000000E+00  0.15619105157E+04  0.15619105157E+04  0.00000000000E+00 0.  1.
          1   -1    0    0  501    0  0.00000000000E+00 -0.00000000000E+00 -0.57291731548E+03  0.57291731548E+03  0.00000000000E+00 0. -1.
         23    2    1    2    0    0  0.64169741268E+03 -0.66951719662E+03  0.29741069023E+03  0.97797208644E+03  0.89148399799E+02 0.  0.
         13    1    3    3    0    0  0.59708887330E+03 -0.64902755326E+03  0.28979441617E+03  0.92829558394E+03  0.00000000000E+00 0.  1.
        -13    1    3    3    0    0  0.44608539381E+02 -0.20489643354E+02  0.76162740598E+01  0.49676502504E+02  0.00000000000E+00 0. -1.
         22    1    1    2    0    0 -0.64169741268E+03  0.66951719662E+03  0.69158250997E+03  0.11568557447E+04  0.00000000000E+00 0. -1.
<mgrwt>
<rscale>  0 0.18919256E+04</rscale>
<asrwt>0</asrwt>
<pdfrwt beam="1">  1        1 0.88141126E-01 0.18919256E+04</pdfrwt>
<pdfrwt beam="2">  1       -1 0.24029392E+00 0.18919256E+04</pdfrwt>
<totfact> 0.27658808E+00</totfact>
</mgrwt>
</event>
<event>
 6    1  0.1603085E-006  0.9885079E+03  0.7818608E-02  0.9321240E-01
         -2   -1    0    0    0  501 -0.00000000000E+00  0.00000000000E+00  0.14281528507E+03  0.14281528507E+03  0.00000000000E+00 0.  1.
          2   -1    0    0  501    0  0.00000000000E+00 -0.00000000000E+00 -0.17105099200E+04  0.17105099200E+04  0.00000000000E+00 0. -1.
         23    2    1    2    0    0  0.46342668354E+03 -0.11252155422E+03 -0.57904264195E+03  0.75566489586E+03  0.91179287445E+02 0.  0.
         13    1    3    3    0    0  0.27890216428E+03 -0.22012747669E+02 -0.34535363075E+03  0.44445484424E+03  0.00000000000E+00 0.  1.
        -13    1    3    3    0    0  0.18452451926E+03 -0.90508806552E+02 -0.23368901120E+03  0.31121005162E+03  0.00000000000E+00 0. -1.
         22    1    1    2    0    0 -0.46342668354E+03  0.11252155422E+03 -0.98865199303E+03  0.10976603092E+04  0.00000000000E+00 0.  1.
<mgrwt>
<rscale>  0 0.98850789E+03</rscale>
<asrwt>0</asrwt>
<pdfrwt beam="1">  1        2 0.26315535E+00 0.98850789E+03</pdfrwt>
<pdfrwt beam="2">  1       -2 0.21971584E-01 0.98850789E+03</pdfrwt>
<totfact> 0.17503316E+02</totfact>
</mgrwt>
</event>
<event>
 6    1  0.1603085E-006  0.3016038E+04  0.7818608E-02  0.8239166E-01
          1   -1    0    0  501    0  0.00000000000E+00  0.00000000000E+00  0.22634810375E+04  0.22634810375E+04  0.00000000000E+00 0. -1.
         -1   -1    0    0    0  501 -0.00000000000E+00 -0.00000000000E+00 -0.10047010781E+04  0.10047010781E+04  0.00000000000E+00 0.  1.
         23    2    1    2    0    0  0.75071963697E+03  0.12964497639E+04  0.80286527750E+03  0.17022254876E+04  0.92827760425E+02 0.  0.
         11    1    3    3    0    0  0.56372487346E+03  0.89286119884E+03  0.55040366739E+03  0.11907691004E+04  0.00000000000E+00 0. -1.
        -11    1    3    3    0    0  0.18699476352E+03  0.40358856502E+03  0.25246161011E+03  0.51145638718E+03  0.00000000000E+00 0.  1.
         22    1    1    2    0    0 -0.75071963697E+03 -0.12964497639E+04  0.45591468188E+03  0.15659566280E+04  0.00000000000E+00 0.  1.
<mgrwt>
<rscale>  0 0.30160384E+04</rscale>
<asrwt>0</asrwt>
<pdfrwt beam="1">  1        1 0.34822785E+00 0.30160384E+04</pdfrwt>
<pdfrwt beam="2">  1       -1 0.15456940E+00 0.30160384E+04</pdfrwt>
<totfact> 0.53869973E-01</totfact>
</mgrwt>
</event>
<event>
 6    1  0.1603085E-006  0.1837593E+04  0.7818608E-02  0.8686559E-01
          2   -1    0    0  501    0  0.00000000000E+00  0.00000000000E+00  0.15412857533E+04  0.15412857533E+04  0.00000000000E+00 0. -1.
         -2   -1    0    0    0  501 -0.00000000000E+00 -0.00000000000E+00 -0.54771635309E+03  0.54771635309E+03  0.00000000000E+00 0.  1.
         23    2    1    2    0    0 -0.67144715411E+02  0.56051357358E+03  0.13188226365E+04  0.14374857622E+04  0.91587614353E+02 0.  0.
         11    1    3    3    0    0 -0.28029736452E+02  0.30261228543E+03  0.82136458202E+03  0.87578515517E+03  0.00000000000E+00 0. -1.
        -11    1    3    3    0    0 -0.39114978959E+02  0.25790128815E+03  0.49745805447E+03  0.56170060705E+03  0.00000000000E+00 0.  1.
         22    1    1    2    0    0  0.67144715411E+02 -0.56051357358E+03 -0.32525323630E+03  0.65151634415E+03  0.00000000000E+00 0.  1.
<mgrwt>
<rscale>  0 0.18375934E+04</rscale>
<asrwt>0</asrwt>
<pdfrwt beam="1">  1        2 0.23712088E+00 0.18375934E+04</pdfrwt>
<pdfrwt beam="2">  1       -2 0.84264055E-01 0.18375934E+04</pdfrwt>
<totfact> 0.13917474E+01</totfact>
</mgrwt>
</event>
<event>
 6    1  0.1603085E-006  0.5281001E+04  0.7818608E-02  0.7786564E-01
          2   -1    0    0  501    0  0.00000000000E+00  0.00000000000E+00  0.34857111831E+04  0.34857111831E+04  0.00000000000E+00 0. -1.
         -2   -1    0    0    0  501 -0.00000000000E+00 -0.00000000000E+00 -0.20002354247E+04  0.20002354247E+04  0.00000000000E+00 0.  1.
         23    2    1    2    0    0  0.52133871357E+03  0.66592969849E+03 -0.18546450895E+04  0.20404185357E+04  0.91339889380E+02 0.  0.
         11    1    3    3    0    0  0.21417903106E+03  0.33931749981E+03 -0.92619829791E+03  0.10093821427E+04  0.00000000000E+00 0. -1.
        -11    1    3    3    0    0  0.30715968251E+03  0.32661219868E+03 -0.92844679157E+03  0.10310363930E+04  0.00000000000E+00 0.  1.
         22    1    1    2    0    0 -0.52133871357E+03 -0.66592969849E+03  0.33401208479E+04  0.34455280722E+04  0.00000000000E+00 0. -1.
<mgrwt>
<rscale>  0 0.52810010E+04</rscale>
<asrwt>0</asrwt>
<pdfrwt beam="1">  1        2 0.53626326E+00 0.52810010E+04</pdfrwt>
<pdfrwt beam="2">  1       -2 0.30772853E+00 0.52810010E+04</pdfrwt>
<totfact> 0.16846059E-02</totfact>
</mgrwt>
</event>
<event>
 6    1  0.1603085E-006  0.3656094E+04  0.7818608E-02  0.8077762E-01
         -2   -1    0    0    0  501 -0.00000000000E+00  0.00000000000E+00  0.13089638990E+04  0.13089638990E+04  0.00000000000E+00 0.  1.
          2   -1    0    0  501    0  0.00000000000E+00 -0.00000000000E+00 -0.25529773596E+04  0.25529773596E+04  0.00000000000E+00 0. -1.
         23    2    1    2    0    0  0.15267276128E+04 -0.85408726928E+02  0.43353075204E+03  0.15920631916E+04  0.92327887056E+02 0.  0.
         11    1    3    3    0    0  0.39750408845E+03  0.13105837633E+01  0.78615528946E+02  0.40520565070E+03  0.00000000000E+00 0. -1.
        -11    1    3    3    0    0  0.11292235243E+04 -0.86719310691E+02  0.35491522309E+03  0.11868575409E+04  0.00000000000E+00 0.  1.
         22    1    1    2    0    0 -0.15267276128E+04  0.85408726928E+02 -0.16775442126E+04  0.22698780671E+04  0.00000000000E+00 0. -1.
<mgrwt>
<rscale>  0 0.36560937E+04</rscale>
<asrwt>0</asrwt>
<pdfrwt beam="1">  1        2 0.39276574E+00 0.36560937E+04</pdfrwt>
<pdfrwt beam="2">  1       -2 0.20137906E+00 0.36560937E+04</pdfrwt>
<totfact> 0.34262551E-01</totfact>
</mgrwt>
</event>
<event>
 6    1  0.1603085E-006  0.2828066E+04  0.7818608E-02  0.8294608E-01
          2   -1    0    0  501    0  0.00000000000E+00  0.00000000000E+00  0.14958302594E+04  0.14958302594E+04  0.00000000000E+00 0.  1.
         -2   -1    0    0    0  501 -0.00000000000E+00 -0.00000000000E+00 -0.13367085853E+04  0.13367085853E+04  0.00000000000E+00 0. -1.
         23    2    1    2    0    0 -0.70503965727E+03 -0.10981090465E+04  0.62125828487E+03  0.14481636632E+04  0.91059007235E+02 0.  0.
         11    1    3    3    0    0 -0.37808657751E+03 -0.65948046980E+03  0.38745463232E+03  0.85322039488E+03  0.00000000000E+00 0.  1.
        -11    1    3    3    0    0 -0.32695307976E+03 -0.43862857666E+03  0.23380365254E+03  0.59494326836E+03  0.00000000000E+00 0. -1.
         22    1    1    2    0    0  0.70503965727E+03  0.10981090465E+04 -0.46213661074E+03  0.13843751815E+04  0.00000000000E+00 0. -1.
<mgrwt>
<rscale>  0 0.28280659E+04</rscale>
<asrwt>0</asrwt>
<pdfrwt beam="1">  1        2 0.23012773E+00 0.28280659E+04</pdfrwt>
<pdfrwt beam="2">  1       -2 0.20564747E+00 0.28280659E+04</pdfrwt>
<totfact> 0.13538163E+00</totfact>
</mgrwt>
</event>
<event>
 6    1  0.1603085E-006  0.1053162E+04  0.7818608E-02  0.9252085E-01
          2   -1    0    0  501    0  0.00000000000E+00  0.00000000000E+00  0.41567650730E+03  0.41567650730E+03  0.00000000000E+00 0. -1.
         -2   -1    0    0    0  501 -0.00000000000E+00 -0.00000000000E+00 -0.66707551049E+03  0.66707551049E+03  0.00000000000E+00 0.  1.
         23    2    1    2    0    0 -0.48097874163E+03  0.15811530538E+03  0.48635943978E+01  0.51529143006E+03  0.95711042461E+02 0.  0.
         11    1    3    3    0    0 -0.18729382374E+03  0.14606150643E+02 -0.95088606051E+01  0.18810298902E+03  0.00000000000E+00 0. -1.
        -11    1    3    3    0    0 -0.29368491789E+03  0.14350915473E+03  0.14372455003E+02  0.32718844104E+03  0.00000000000E+00 0.  1.
         22    1    1    2    0    0  0.48097874163E+03 -0.15811530538E+03 -0.25626259760E+03  0.56746058773E+03  0.00000000000E+00 0.  1.
<mgrwt>
<rscale>  0 0.10531621E+04</rscale>
<asrwt>0</asrwt>
<pdfrwt beam="1">  1        2 0.63950233E-01 0.10531621E+04</pdfrwt>
<pdfrwt beam="2">  1       -2 0.10262700E+00 0.10531621E+04</pdfrwt>
<totfact> 0.58861920E+01</totfact>
</mgrwt>
</event>
<event>
 6    1  0.1603085E-006  0.1410601E+04  0.7818608E-02  0.8946180E-01
         -1   -1    0    0    0  501 -0.00000000000E+00  0.00000000000E+00  0.42243267948E+03  0.42243267948E+03  0.00000000000E+00 0.  1.
          1   -1    0    0  501    0  0.00000000000E+00 -0.00000000000E+00 -0.11775814210E+04  0.11775814210E+04  0.00000000000E+00 0. -1.
         23    2    1    2    0    0  0.33162298468E+03 -0.17939227805E+03 -0.10512193767E+04  0.11206257252E+04  0.92652277711E+02 0.  0.
         11    1    3    3    0    0  0.14882076599E+03 -0.10832719019E+03 -0.62308196399E+03  0.64970265073E+03  0.00000000000E+00 0.  1.
        -11    1    3    3    0    0  0.18280221868E+03 -0.71065087866E+02 -0.42813741272E+03  0.47092307444E+03  0.00000000000E+00 0. -1.
         22    1    1    2    0    0 -0.33162298468E+03  0.17939227805E+03  0.29607063517E+03  0.47938837533E+03  0.00000000000E+00 0.  1.
<mgrwt>
<rscale>  0 0.14106011E+04</rscale>
<asrwt>0</asrwt>
<pdfrwt beam="1">  1        1 0.18116637E+00 0.14106011E+04</pdfrwt>
<pdfrwt beam="2">  1       -1 0.64989644E-01 0.14106011E+04</pdfrwt>
<totfact> 0.25956366E+01</totfact>
</mgrwt>
</event>
<event>
 6    1  0.1603085E-006  0.2238239E+04  0.7818608E-02  0.8502678E-01
          2   -1    0    0  501    0  0.00000000000E+00  0.00000000000E+00  0.22768896448E+04  0.22768896448E+04  0.00000000000E+00 0. -1.
         -2   -1    0    0    0  501 -0.00000000000E+00 -0.00000000000E+00 -0.55006133804E+03  0.55006133804E+03  0.00000000000E+00 0.  1.
         23    2    1    2    0    0  0.15373431051E+03  0.10501162308E+04  0.42391647773E+03  0.11464874841E+04  0.91378524773E+02 0.  0.
         11    1    3    3    0    0  0.76391452321E+02  0.77945531698E+03  0.32800777355E+03  0.84910267027E+03  0.00000000000E+00 0.  1.
        -11    1    3    3    0    0  0.77342858192E+02  0.27066091379E+03  0.95908704173E+02  0.29738481384E+03  0.00000000000E+00 0. -1.
         22    1    1    2    0    0 -0.15373431051E+03 -0.10501162308E+04  0.13029118290E+04  0.16804634987E+04  0.00000000000E+00 0. -1.
<mgrwt>
<rscale>  0 0.22382395E+04</rscale>
<asrwt>0</asrwt>
<pdfrwt beam="1">  1        2 0.35029071E+00 0.22382395E+04</pdfrwt>
<pdfrwt beam="2">  1       -2 0.84624822E-01 0.22382395E+04</pdfrwt>
<totfact> 0.51813124E+00</totfact>
</mgrwt>
</event>
<event>
 6    1  0.1603085E-006  0.2255596E+04  0.7818608E-02  0.8495638E-01
         -2   -1    0    0    0  501 -0.00000000000E+00  0.00000000000E+00  0.69554001765E+03  0.69554001765E+03  0.00000000000E+00 0.  1.
          2   -1    0    0  501    0  0.00000000000E+00 -0.00000000000E+00 -0.18286916508E+04  0.18286916508E+04  0.00000000000E+00 0. -1.
         23    2    1    2    0    0  0.10719155126E+04 -0.28863716338E+03 -0.35677137976E+03  0.11695802092E+04  0.91201809672E+02 0.  0.
         13    1    3    3    0    0  0.71225751888E+03 -0.23570799344E+03 -0.24595394665E+03  0.78953301086E+03  0.00000000000E+00 0. -1.
        -13    1    3    3    0    0  0.35965799372E+03 -0.52929169940E+02 -0.11081743310E+03  0.38004719833E+03  0.00000000000E+00 0.  1.
         22    1    1    2    0    0 -0.10719155126E+04  0.28863716338E+03 -0.77638025341E+03  0.13546514593E+04  0.00000000000E+00 0. -1.
<mgrwt>
<rscale>  0 0.22555959E+04</rscale>
<asrwt>0</asrwt>
<pdfrwt beam="1">  1        2 0.28133717E+00 0.22555959E+04</pdfrwt>
<pdfrwt beam="2">  1       -2 0.10700616E+00 0.22555959E+04</pdfrwt>
<totfact> 0.53158849E+00</totfact>
</mgrwt>
</event>
<event>
 6    1  0.1603085E-006  0.8335489E+03  0.7818608E-02  0.9512687E-01
          2   -1    0    0  501    0  0.00000000000E+00  0.00000000000E+00  0.39635271819E+03  0.39635271819E+03  0.00000000000E+00 0. -1.
         -2   -1    0    0    0  501 -0.00000000000E+00 -0.00000000000E+00 -0.43824836115E+03  0.43824836115E+03  0.00000000000E+00 0.  1.
         23    2    1    2    0    0  0.25987660926E+03  0.15902339369E+03  0.25608338953E+03  0.40843703159E+03  0.91748649033E+02 0.  0.
         11    1    3    3    0    0  0.50938046291E+02  0.59213438333E+02  0.10907743202E+03  0.13415961395E+03  0.00000000000E+00 0.  1.
        -11    1    3    3    0    0  0.20893856297E+03  0.99809955360E+02  0.14700595752E+03  0.27427741765E+03  0.00000000000E+00 0. -1.
         22    1    1    2    0    0 -0.25987660926E+03 -0.15902339369E+03 -0.29797903250E+03  0.42616404775E+03  0.00000000000E+00 0.  1.
<mgrwt>
<rscale>  0 0.83354887E+03</rscale>
<asrwt>0</asrwt>
<pdfrwt beam="1">  1        2 0.60977341E-01 0.83354887E+03</pdfrwt>
<pdfrwt beam="2">  1       -2 0.67422825E-01 0.83354887E+03</pdfrwt>
<totfact> 0.16315055E+02</totfact>
</mgrwt>
</event>
<event>
 6    1  0.1603085E-006  0.2600298E+04  0.7818608E-02  0.8368100E-01
         -1   -1    0    0    0  501 -0.00000000000E+00  0.00000000000E+00  0.45563910851E+03  0.45563910851E+03  0.00000000000E+00 0.  1.
          1   -1    0    0  501    0  0.00000000000E+00 -0.00000000000E+00 -0.37099256918E+04  0.37099256918E+04  0.00000000000E+00 0. -1.
         23    2    1    2    0    0 -0.13803045387E+03  0.10920748334E+04 -0.27325988111E+04  0.29474359157E+04  0.92748945165E+02 0.  0.
         13    1    3    3    0    0 -0.93545521527E+02  0.58915397798E+03 -0.13668342995E+04  0.14913380491E+04  0.00000000000E+00 0.  1.
        -13    1    3    3    0    0 -0.44484932342E+02  0.50292085539E+03 -0.13657645116E+04  0.14560978666E+04  0.00000000000E+00 0. -1.
         22    1    1    2    0    0  0.13803045387E+03 -0.10920748334E+04 -0.52168777220E+03  0.12181288846E+04  0.00000000000E+00 0.  1.
<mgrwt>
<rscale>  0 0.26002979E+04</rscale>
<asrwt>0</asrwt>
<pdfrwt beam="1">  1        1 0.57075781E+00 0.26002979E+04</pdfrwt>
<pdfrwt beam="2">  1       -1 0.70098323E-01 0.26002979E+04</pdfrwt>
<totfact> 0.30706642E-01</totfact>
</mgrwt>
</event>
<event>
 6    1  0.1603085E-006  0.2980592E+04  0.7818608E-02  0.8249295E-01
          2   -1    0    0  501    0  0.00000000000E+00  0.00000000000E+00  0.16507949188E+04  0.16507949188E+04  0.00000000000E+00 0. -1.
         -2   -1    0    0    0  501 -0.00000000000E+00 -0.00000000000E+00 -0.13454018754E+04  0.13454018754E+04  0.00000000000E+00 0.  1.
         23    2    1    2    0    0  0.87219751932E+03  0.66345790369E+03  0.11661242797E+04  0.16027251713E+04  0.89315376043E+02 0.  0.
         11    1    3    3    0    0  0.55815204246E+03  0.47391377261E+03  0.79888072452E+03  0.10836689432E+04  0.00000000000E+00 0. -1.
        -11    1    3    3    0    0  0.31404547687E+03  0.18954413109E+03  0.36724355514E+03  0.51905622813E+03  0.00000000000E+00 0.  1.
         22    1    1    2    0    0 -0.87219751932E+03 -0.66345790369E+03 -0.86073123623E+03  0.13934716229E+04  0.00000000000E+00 0.  1.
<mgrwt>
<rscale>  0 0.29805923E+04</rscale>
<asrwt>0</asrwt>
<pdfrwt beam="1">  1        2 0.25396845E+00 0.29805923E+04</pdfrwt>
<pdfrwt beam="2">  1       -2 0.20698490E+00 0.29805923E+04</pdfrwt>
<totfact> 0.10726940E+00</totfact>
</mgrwt>
</event>
<event>
 6    1  0.1603085E-006  0.1453560E+04  0.7818608E-02  0.8915936E-01
         -2   -1    0    0    0  501 -0.00000000000E+00  0.00000000000E+00  0.22432197349E+03  0.22432197349E+03  0.00000000000E+00 0.  1.
          2   -1    0    0  501    0  0.00000000000E+00 -0.00000000000E+00 -0.23546926570E+04  0.23546926570E+04  0.00000000000E+00 0. -1.
         23    2    1    2    0    0  0.10183737374E+03  0.53854751565E+03 -0.19095119134E+04  0.19880976535E+04  0.76761026512E+02 0.  0.
         11    1    3    3    0    0 -0.20244881695E+01  0.11485335924E+03 -0.47688925691E+03  0.49052905728E+03  0.00000000000E+00 0. -1.
        -11    1    3    3    0    0  0.10386186191E+03  0.42369415642E+03 -0.14326226565E+04  0.14975685962E+04  0.00000000000E+00 0.  1.
         22    1    1    2    0    0 -0.10183737374E+03 -0.53854751565E+03 -0.22085877008E+03  0.59091697694E+03  0.00000000000E+00 0.  1.
<mgrwt>
<rscale>  0 0.14535602E+04</rscale>
<asrwt>0</asrwt>
<pdfrwt beam="1">  1        2 0.36226043E+00 0.14535602E+04</pdfrwt>
<pdfrwt beam="2">  1       -2 0.34511071E-01 0.14535602E+04</pdfrwt>
<totfact> 0.32268179E+01</totfact>
</mgrwt>
</event>
<event>
 6    1  0.1603085E-006  0.9336751E+03  0.7818608E-02  0.9384438E-01
          2   -1    0    0  501    0  0.00000000000E+00  0.00000000000E+00  0.16636737507E+04  0.16636737507E+04  0.00000000000E+00 0. -1.
         -2   -1    0    0    0  501 -0.00000000000E+00 -0.00000000000E+00 -0.13099760374E+03  0.13099760374E+03  0.00000000000E+00 0.  1.
         23    2    1    2    0    0  0.30442743886E+03 -0.11408135458E+03  0.14058638193E+04  0.14457129222E+04  0.89118764101E+02 0.  0.
         11    1    3    3    0    0  0.17347044582E+03 -0.22761696698E+02  0.82212012463E+03  0.84053054063E+03  0.00000000000E+00 0.  1.
        -11    1    3    3    0    0  0.13095699304E+03 -0.91319657880E+02  0.58374369464E+03  0.60518238158E+03  0.00000000000E+00 0. -1.
         22    1    1    2    0    0 -0.30442743886E+03  0.11408135458E+03  0.12681232773E+03  0.34895843228E+03  0.00000000000E+00 0.  1.
<mgrwt>
<rscale>  0 0.93367505E+03</rscale>
<asrwt>0</asrwt>
<pdfrwt beam="1">  1        2 0.25594979E+00 0.93367505E+03</pdfrwt>
<pdfrwt beam="2">  1       -2 0.20153479E-01 0.93367505E+03</pdfrwt>
<totfact> 0.21720171E+02</totfact>
</mgrwt>
</event>
<event>
 6    1  0.1603085E-006  0.3230352E+04  0.7818608E-02  0.8180847E-01
         -1   -1    0    0    0  501 -0.00000000000E+00  0.00000000000E+00  0.74275545307E+03  0.74275545307E+03  0.00000000000E+00 0.  1.
          1   -1    0    0  501    0  0.00000000000E+00 -0.00000000000E+00 -0.35123189194E+04  0.35123189194E+04  0.00000000000E+00 0. -1.
         23    2    1    2    0    0 -0.23561241463E+03  0.42351105555E+03 -0.34136685170E+04  0.34490060501E+04  0.87379431700E+02 0.  0.
         11    1    3    3    0    0 -0.16284604717E+03  0.35942202725E+03 -0.26537282654E+04  0.26829045334E+04  0.00000000000E+00 0. -1.
        -11    1    3    3    0    0 -0.72766367462E+02  0.64089028304E+02 -0.75994025162E+03  0.76610151665E+03  0.00000000000E+00 0.  1.
         22    1    1    2    0    0  0.23561241463E+03 -0.42351105555E+03  0.64410505069E+03  0.80606832243E+03  0.00000000000E+00 0.  1.
<mgrwt>
<rscale>  0 0.32303523E+04</rscale>
<asrwt>0</asrwt>
<pdfrwt beam="1">  1        1 0.54035675E+00 0.32303523E+04</pdfrwt>
<pdfrwt beam="2">  1       -1 0.11427007E+00 0.32303523E+04</pdfrwt>
<totfact> 0.14193345E-01</totfact>
</mgrwt>
</event>
<event>
 6    1  0.1603085E-006  0.3069152E+04  0.7818608E-02  0.8224255E-01
         -1   -1    0    0    0  501 -0.00000000000E+00  0.00000000000E+00  0.16904330111E+04  0.16904330111E+04  0.00000000000E+00 0.  1.
          1   -1    0    0  501    0  0.00000000000E+00 -0.00000000000E+00 -0.13930892069E+04  0.13930892069E+04  0.00000000000E+00 0. -1.
         23    2    1    2    0    0 -0.10469022992E+04  0.31872296936E+03  0.12275714810E+04  0.16472380240E+04  0.94194539418E+02 0.  0.
         11    1    3    3    0    0 -0.51793115666E+03  0.17423491913E+03  0.54621086574E+03  0.77262979488E+03  0.00000000000E+00 0.  1.
        -11    1    3    3    0    0 -0.52897114258E+03  0.14448805023E+03  0.68136061530E+03  0.87460822911E+03  0.00000000000E+00 0. -1.
         22    1    1    2    0    0  0.10469022992E+04 -0.31872296936E+03 -0.93022767679E+03  0.14362841940E+04  0.00000000000E+00 0. -1.
<mgrwt>
<rscale>  0 0.30691523E+04</rscale>
<asrwt>0</asrwt>
<pdfrwt beam="1">  1        1 0.21432142E+00 0.30691523E+04</pdfrwt>
<pdfrwt beam="2">  1       -1 0.26006662E+00 0.30691523E+04</pdfrwt>
<totfact> 0.39399909E-01</totfact>
</mgrwt>
</event>
<event>
 6    1  0.1603085E-006  0.2255512E+04  0.7818608E-02  0.8495672E-01
          2   -1    0    0  501    0  0.00000000000E+00  0.00000000000E+00  0.15414944798E+04  0.15414944798E+04  0.00000000000E+00 0. -1.
         -2   -1    0    0    0  501 -0.00000000000E+00 -0.00000000000E+00 -0.82506506743E+03  0.82506506743E+03  0.00000000000E+00 0.  1.
         23    2    1    2    0    0 -0.76075493309E+03 -0.62582578700E+03 -0.21326260155E+03  0.10120363010E+04  0.91271865301E+02 0.  0.
         13    1    3    3    0    0 -0.56192509060E+03 -0.45836382015E+03 -0.11547460652E+03  0.73429665927E+03  0.00000000000E+00 0. -1.
        -13    1    3    3    0    0 -0.19882984249E+03 -0.16746196686E+03 -0.97787995032E+02  0.27773964172E+03  0.00000000000E+00 0.  1.
         22    1    1    2    0    0  0.76075493309E+03  0.62582578700E+03  0.92969201395E+03  0.13545232463E+04  0.00000000000E+00 0. -1.
<mgrwt>
<rscale>  0 0.22555117E+04</rscale>
<asrwt>0</asrwt>
<pdfrwt beam="1">  1        2 0.23715300E+00 0.22555117E+04</pdfrwt>
<pdfrwt beam="2">  1       -2 0.12693309E+00 0.22555117E+04</pdfrwt>
<totfact> 0.50496243E+00</totfact>
</mgrwt>
</event>
<event>
 6    1  0.1603085E-006  0.1932963E+04  0.7818608E-02  0.8638620E-01
          1   -1    0    0  501    0  0.00000000000E+00  0.00000000000E+00  0.32665812826E+04  0.32665812826E+04  0.00000000000E+00 0. -1.
         -1   -1    0    0    0  501 -0.00000000000E+00 -0.00000000000E+00 -0.28595224485E+03  0.28595224485E+03  0.00000000000E+00 0.  1.
         23    2    1    2    0    0 -0.45215985709E+03  0.82385419001E+03  0.10951416001E+04  0.14458187531E+04  0.88726996310E+02 0.  0.
         13    1    3    3    0    0 -0.33722487170E+03  0.52888146743E+03  0.73948502319E+03  0.96967743101E+03  0.00000000000E+00 0. -1.
        -13    1    3    3    0    0 -0.11493498538E+03  0.29497272258E+03  0.35565657690E+03  0.47614132211E+03  0.00000000000E+00 0.  1.
         22    1    1    2    0    0  0.45215985709E+03 -0.82385419001E+03  0.18854874376E+04  0.21067147743E+04  0.00000000000E+00 0. -1.
<mgrwt>
<rscale>  0 0.19329628E+04</rscale>
<asrwt>0</asrwt>
<pdfrwt beam="1">  1        1 0.50255094E+00 0.19329628E+04</pdfrwt>
<pdfrwt beam="2">  1       -1 0.43992655E-01 0.19329628E+04</pdfrwt>
<totfact> 0.18113225E+00</totfact>
</mgrwt>
</event>
<event>
 6    1  0.1603085E-006  0.2486124E+04  0.7818608E-02  0.8407946E-01
          1   -1    0    0  501    0  0.00000000000E+00  0.00000000000E+00  0.25058785009E+04  0.25058785009E+04  0.00000000000E+00 0. -1.
         -1   -1    0    0    0  501 -0.00000000000E+00 -0.00000000000E+00 -0.61663126065E+03  0.61663126065E+03  0.00000000000E+00 0.  1.
         23    2    1    2    0    0  0.35465758133E+03  0.94639176081E+02  0.24353603700E+04  0.24644990290E+04  0.89647968333E+02 0.  0.
         11    1    3    3    0    0  0.27676832591E+03  0.76449846017E+02  0.16223182020E+04  0.16475319826E+04  0.00000000000E+00 0.  1.
        -11    1    3    3    0    0  0.77889255416E+02  0.18189330064E+02  0.81304216807E+03  0.81696704640E+03  0.00000000000E+00 0. -1.
         22    1    1    2    0    0 -0.35465758133E+03 -0.94639176081E+02 -0.54611312979E+03  0.65801073257E+03  0.00000000000E+00 0.  1.
<mgrwt>
<rscale>  0 0.24861239E+04</rscale>
<asrwt>0</asrwt>
<pdfrwt beam="1">  1        1 0.38551976E+00 0.24861239E+04</pdfrwt>
<pdfrwt beam="2">  1       -1 0.94866349E-01 0.24861239E+04</pdfrwt>
<totfact> 0.12818597E+00</totfact>
</mgrwt>
</event>
<event>
 6    1  0.1603085E-006  0.2109910E+04  0.7818608E-02  0.8556890E-01
         -2   -1    0    0    0  501 -0.00000000000E+00  0.00000000000E+00  0.49326172793E+03  0.49326172793E+03  0.00000000000E+00 0.  1.
          2   -1    0    0  501    0  0.00000000000E+00 -0.00000000000E+00 -0.22562674871E+04  0.22562674871E+04  0.00000000000E+00 0. -1.
         23    2    1    2    0    0 -0.16110155022E+03 -0.52285314644E+03  0.28975671939E+03  0.62510860799E+03  0.86444740336E+02 0.  0.
         11    1    3    3    0    0 -0.11295604176E+03 -0.45143219756E+03  0.26488174071E+03  0.53545535101E+03  0.00000000000E+00 0. -1.
        -11    1    3    3    0    0 -0.48145508460E+02 -0.71420948876E+02  0.24874978686E+02  0.89653256984E+02  0.00000000000E+00 0.  1.
         22    1    1    2    0    0  0.16110155022E+03  0.52285314644E+03 -0.20527624786E+04  0.21244206071E+04  0.00000000000E+00 0. -1.
<mgrwt>
<rscale>  0 0.21099103E+04</rscale>
<asrwt>0</asrwt>
<pdfrwt beam="1">  1        2 0.34711807E+00 0.21099103E+04</pdfrwt>
<pdfrwt beam="2">  1       -2 0.75886420E-01 0.21099103E+04</pdfrwt>
<totfact> 0.68753028E+00</totfact>
</mgrwt>
</event>
<event>
 6    1  0.1603085E-006  0.1544201E+04  0.7818608E-02  0.8855581E-01
          1   -1    0    0  501    0  0.00000000000E+00  0.00000000000E+00  0.26325975537E+04  0.26325975537E+04  0.00000000000E+00 0. -1.
         -1   -1    0    0    0  501 -0.00000000000E+00 -0.00000000000E+00 -0.22644512976E+03  0.22644512976E+03  0.00000000000E+00 0.  1.
         23    2    1    2    0    0 -0.21511559667E+03 -0.38328632235E+03  0.23764363876E+04  0.24185132660E+04  0.92592594384E+02 0.  0.
         13    1    3    3    0    0 -0.20022726699E+03 -0.31116005187E+03  0.18206970396E+04  0.18579152958E+04  0.00000000000E+00 0.  1.
        -13    1    3    3    0    0 -0.14888329682E+02 -0.72126270482E+02  0.55573934802E+03  0.56059797020E+03  0.00000000000E+00 0. -1.
         22    1    1    2    0    0  0.21511559667E+03  0.38328632235E+03  0.29716036315E+02  0.44052941746E+03  0.00000000000E+00 0.  1.
<mgrwt>
<rscale>  0 0.15442006E+04</rscale>
<asrwt>0</asrwt>
<pdfrwt beam="1">  1        1 0.40501499E+00 0.15442006E+04</pdfrwt>
<pdfrwt beam="2">  1       -1 0.34837714E-01 0.15442006E+04</pdfrwt>
<totfact> 0.82818889E+00</totfact>
</mgrwt>
</event>
<event>
 6    1  0.1603085E-006  0.1965676E+04  0.7818608E-02  0.8622839E-01
         -2   -1    0    0    0  501 -0.00000000000E+00  0.00000000000E+00  0.84281087262E+03  0.84281087262E+03  0.00000000000E+00 0.  1.
          2   -1    0    0  501    0  0.00000000000E+00 -0.00000000000E+00 -0.11461293870E+04  0.11461293870E+04  0.00000000000E+00 0. -1.
         23    2    1    2    0    0 -0.48565973315E+03  0.26478633873E+02 -0.10135939669E+04  0.11280931693E+04  0.93032114545E+02 0.  0.
         13    1    3    3    0    0 -0.36514771311E+03  0.58639739891E+02 -0.73235040248E+03  0.82043194934E+03  0.00000000000E+00 0.  1.
        -13    1    3    3    0    0 -0.12051202004E+03 -0.32161106018E+02 -0.28124356443E+03  0.30766121993E+03  0.00000000000E+00 0. -1.
         22    1    1    2    0    0  0.48565973315E+03 -0.26478633873E+02  0.71027545255E+03  0.86084709034E+03  0.00000000000E+00 0.  1.
<mgrwt>
<rscale>  0 0.19656758E+04</rscale>
<asrwt>0</asrwt>
<pdfrwt beam="1">  1        2 0.17632760E+00 0.19656758E+04</pdfrwt>
<pdfrwt beam="2">  1       -2 0.12966321E+00 0.19656758E+04</pdfrwt>
<totfact> 0.83146216E+00</totfact>
</mgrwt>
</event>
<event>
 6    1  0.1603085E-006  0.6723674E+03  0.7818608E-02  0.9765690E-01
          1   -1    0    0  501    0  0.00000000000E+00  0.00000000000E+00  0.34229352441E+03  0.34229352441E+03  0.00000000000E+00 0. -1.
         -1   -1    0    0    0  501 -0.00000000000E+00 -0.00000000000E+00 -0.33018294517E+03  0.33018294517E+03  0.00000000000E+00 0.  1.
         23    2    1    2    0    0  0.29500044308E+03  0.36758478030E+02 -0.13735833797E+03  0.33973422048E+03  0.90418916322E+02 0.  0.
         11    1    3    3    0    0  0.13313737976E+03  0.43321879797E+02 -0.10382388445E+03  0.17430360335E+03  0.00000000000E+00 0.  1.
        -11    1    3    3    0    0  0.16186306332E+03 -0.65634017673E+01 -0.33534453520E+02  0.16543061713E+03  0.00000000000E+00 0. -1.
         22    1    1    2    0    0 -0.29500044308E+03 -0.36758478030E+02  0.14946891721E+03  0.33274224910E+03  0.00000000000E+00 0. -1.
<mgrwt>
<rscale>  0 0.67236741E+03</rscale>
<asrwt>0</asrwt>
<pdfrwt beam="1">  1        1 0.52660542E-01 0.67236741E+03</pdfrwt>
<pdfrwt beam="2">  1       -1 0.50797376E-01 0.67236741E+03</pdfrwt>
<totfact> 0.29119569E+02</totfact>
</mgrwt>
</event>
<event>
 6    1  0.1603085E-006  0.2341787E+04  0.7818608E-02  0.8461625E-01
         -2   -1    0    0    0  501 -0.00000000000E+00  0.00000000000E+00  0.71537850522E+03  0.71537850522E+03  0.00000000000E+00 0.  1.
          2   -1    0    0  501    0  0.00000000000E+00 -0.00000000000E+00 -0.19164563010E+04  0.19164563010E+04  0.00000000000E+00 0. -1.
         23    2    1    2    0    0  0.61327653964E+03  0.97166554684E+03 -0.35755407690E+03  0.12064315954E+04  0.85966432804E+02 0.  0.
         11    1    3    3    0    0  0.16195884292E+03  0.21634943339E+03 -0.53518161559E+02  0.27550306304E+03  0.00000000000E+00 0.  1.
        -11    1    3    3    0    0  0.45131769672E+03  0.75531611345E+03 -0.30403591534E+03  0.93092853239E+03  0.00000000000E+00 0. -1.
         22    1    1    2    0    0 -0.61327653964E+03 -0.97166554684E+03 -0.84352371885E+03  0.14254032108E+04  0.00000000000E+00 0.  1.
<mgrwt>
<rscale>  0 0.23417870E+04</rscale>
<asrwt>0</asrwt>
<pdfrwt beam="1">  1        2 0.29483944E+00 0.23417870E+04</pdfrwt>
<pdfrwt beam="2">  1       -2 0.11005823E+00 0.23417870E+04</pdfrwt>
<totfact> 0.44081928E+00</totfact>
</mgrwt>
</event>
<event>
 6    1  0.1603085E-006  0.2214219E+04  0.7818608E-02  0.8512533E-01
          2   -1    0    0  501    0  0.00000000000E+00  0.00000000000E+00  0.12645027287E+04  0.12645027287E+04  0.00000000000E+00 0. -1.
         -2   -1    0    0    0  501 -0.00000000000E+00 -0.00000000000E+00 -0.96930679172E+03  0.96930679172E+03  0.00000000000E+00 0.  1.
         23    2    1    2    0    0  0.19146544961E+03 -0.77873034669E+03 -0.61928369520E+03  0.10175229716E+04  0.93598778148E+02 0.  0.
         11    1    3    3    0    0  0.84422333914E+02 -0.49090125267E+03 -0.41891960367E+03  0.65084929490E+03  0.00000000000E+00 0. -1.
        -11    1    3    3    0    0  0.10704311569E+03 -0.28782909403E+03 -0.20036409153E+03  0.36667367667E+03  0.00000000000E+00 0.  1.
         22    1    1    2    0    0 -0.19146544961E+03  0.77873034669E+03  0.91447963219E+03  0.12162865489E+04  0.00000000000E+00 0. -1.
<mgrwt>
<rscale>  0 0.22142187E+04</rscale>
<asrwt>0</asrwt>
<pdfrwt beam="1">  1        2 0.19453888E+00 0.22142187E+04</pdfrwt>
<pdfrwt beam="2">  1       -2 0.14912412E+00 0.22142187E+04</pdfrwt>
<totfact> 0.48188505E+00</totfact>
</mgrwt>
</event>
<event>
 6    1  0.1603085E-006  0.3593989E+04  0.7818608E-02  0.8091870E-01
          2   -1    0    0  501    0  0.00000000000E+00  0.00000000000E+00  0.35771844845E+04  0.35771844845E+04  0.00000000000E+00 0. -1.
         -2   -1    0    0    0  501 -0.00000000000E+00 -0.00000000000E+00 -0.90271829947E+03  0.90271829947E+03  0.00000000000E+00 0.  1.
         23    2    1    2    0    0  0.94198874959E+03  0.78863287128E+03 -0.29469816882E+03  0.12666145040E+04  0.90447117326E+02 0.  0.
         11    1    3    3    0    0  0.55801404307E+03  0.43650811666E+03 -0.13064414570E+03  0.72040745483E+03  0.00000000000E+00 0. -1.
        -11    1    3    3    0    0  0.38397470652E+03  0.35212475461E+03 -0.16405402312E+03  0.54620704917E+03  0.00000000000E+00 0.  1.
         22    1    1    2    0    0 -0.94198874959E+03 -0.78863287128E+03  0.29691643538E+04  0.32132882799E+04  0.00000000000E+00 0. -1.
<mgrwt>
<rscale>  0 0.35939894E+04</rscale>
<asrwt>0</asrwt>
<pdfrwt beam="1">  1        2 0.55033607E+00 0.35939894E+04</pdfrwt>
<pdfrwt beam="2">  1       -2 0.13887974E+00 0.35939894E+04</pdfrwt>
<totfact> 0.21399248E-01</totfact>
</mgrwt>
</event>
<event>
 6    1  0.1603085E-006  0.4499622E+04  0.7818608E-02  0.7910703E-01
          2   -1    0    0  501    0  0.00000000000E+00  0.00000000000E+00  0.19685260844E+04  0.19685260844E+04  0.00000000000E+00 0. -1.
         -2   -1    0    0    0  501 -0.00000000000E+00 -0.00000000000E+00 -0.25712884748E+04  0.25712884748E+04  0.00000000000E+00 0.  1.
         23    2    1    2    0    0  0.13273684858E+03 -0.61233981277E+03  0.18776709223E+04  0.19814696770E+04  0.89414042434E+02 0.  0.
         13    1    3    3    0    0  0.85107600252E+00 -0.14424521210E+03  0.50494207410E+03  0.52514179393E+03  0.00000000000E+00 0. -1.
        -13    1    3    3    0    0  0.13188577258E+03 -0.46809460067E+03  0.13727288482E+04  0.14563278830E+04  0.00000000000E+00 0.  1.
         22    1    1    2    0    0 -0.13273684858E+03  0.61233981277E+03 -0.24804333128E+04  0.25583448822E+04  0.00000000000E+00 0.  1.
<mgrwt>
<rscale>  0 0.44996215E+04</rscale>
<asrwt>0</asrwt>
<pdfrwt beam="1">  1        2 0.30285017E+00 0.44996215E+04</pdfrwt>
<pdfrwt beam="2">  1       -2 0.39558284E+00 0.44996215E+04</pdfrwt>
<totfact> 0.41814129E-02</totfact>
</mgrwt>
</event>
<event>
 6    1  0.1603085E-006  0.2532880E+04  0.7818608E-02  0.8391365E-01
          1   -1    0    0  501    0  0.00000000000E+00  0.00000000000E+00  0.15628070291E+04  0.15628070291E+04  0.00000000000E+00 0.  1.
         -1   -1    0    0    0  501 -0.00000000000E+00 -0.00000000000E+00 -0.10262751792E+04  0.10262751792E+04  0.00000000000E+00 0. -1.
         23    2    1    2    0    0  0.14271951059E+02  0.45713143200E+03 -0.93667726493E+03  0.10465135937E+04  0.93024558293E+02 0.  0.
         13    1    3    3    0    0  0.53658993795E+02  0.29504154514E+03 -0.59610783314E+03  0.66728805602E+03  0.00000000000E+00 0. -1.
        -13    1    3    3    0    0 -0.39387042735E+02  0.16208988686E+03 -0.34056943179E+03  0.37922553768E+03  0.00000000000E+00 0.  1.
         22    1    1    2    0    0 -0.14271951059E+02 -0.45713143200E+03  0.14732091149E+04  0.15425686146E+04  0.00000000000E+00 0.  1.
<mgrwt>
<rscale>  0 0.25328798E+04</rscale>
<asrwt>0</asrwt>
<pdfrwt beam="1">  1        1 0.24043185E+00 0.25328798E+04</pdfrwt>
<pdfrwt beam="2">  1       -1 0.15788849E+00 0.25328798E+04</pdfrwt>
<totfact> 0.15901749E+00</totfact>
</mgrwt>
</event>
<event>
 6    1  0.1603085E-006  0.3700360E+03  0.7818608E-02  0.1054679E+00
          1   -1    0    0  501    0  0.00000000000E+00  0.00000000000E+00  0.19758230166E+03  0.19758230166E+03  0.00000000000E+00 0.  1.
         -1   -1    0    0    0  501 -0.00000000000E+00 -0.00000000000E+00 -0.17325269602E+03  0.17325269602E+03  0.00000000000E+00 0. -1.
         23    2    1    2    0    0 -0.73140406503E+02 -0.61408531391E+02  0.15890554411E+03  0.20581618055E+03  0.89380095300E+02 0.  0.
         13    1    3    3    0    0 -0.12101585023E+02 -0.58366319176E+02  0.11822052940E+03  0.13239776865E+03  0.00000000000E+00 0.  1.
        -13    1    3    3    0    0 -0.61038821480E+02 -0.30422122159E+01  0.40685014717E+02  0.73418411896E+02  0.00000000000E+00 0. -1.
         22    1    1    2    0    0  0.73140406503E+02  0.61408531391E+02 -0.13457593847E+03  0.16501881712E+03  0.00000000000E+00 0. -1.
<mgrwt>
<rscale>  0 0.37003603E+03</rscale>
<asrwt>0</asrwt>
<pdfrwt beam="1">  1        1 0.30397277E-01 0.37003603E+03</pdfrwt>
<pdfrwt beam="2">  1       -1 0.26654261E-01 0.37003603E+03</pdfrwt>
<totfact> 0.18698787E+03</totfact>
</mgrwt>
</event>
<event>
 6    1  0.1603085E-006  0.1447388E+04  0.7818608E-02  0.8920213E-01
          2   -1    0    0  501    0  0.00000000000E+00  0.00000000000E+00  0.64507644792E+03  0.64507644792E+03  0.00000000000E+00 0. -1.
         -2   -1    0    0    0  501 -0.00000000000E+00 -0.00000000000E+00 -0.81189333806E+03  0.81189333806E+03  0.00000000000E+00 0.  1.
         23    2    1    2    0    0 -0.27696204489E+02 -0.20929946214E+03 -0.77768442886E+03  0.81064750224E+03  0.88221071141E+02 0.  0.
         13    1    3    3    0    0  0.99245082259E+01 -0.82573492601E+02 -0.17666842610E+03  0.19526548677E+03  0.00000000000E+00 0. -1.
        -13    1    3    3    0    0 -0.37620712715E+02 -0.12672596954E+03 -0.60101600276E+03  0.61538201547E+03  0.00000000000E+00 0.  1.
         22    1    1    2    0    0  0.27696204489E+02  0.20929946214E+03  0.61086753872E+03  0.64632228374E+03  0.00000000000E+00 0. -1.
<mgrwt>
<rscale>  0 0.14473884E+04</rscale>
<asrwt>0</asrwt>
<pdfrwt beam="1">  1        2 0.99242530E-01 0.14473884E+04</pdfrwt>
<pdfrwt beam="2">  1       -2 0.12490667E+00 0.14473884E+04</pdfrwt>
<totfact> 0.21142951E+01</totfact>
</mgrwt>
</event>
<event>
 6    1  0.1603085E-006  0.2051110E+04  0.7818608E-02  0.8583091E-01
         -2   -1    0    0    0  501 -0.00000000000E+00  0.00000000000E+00  0.58661311779E+03  0.58661311779E+03  0.00000000000E+00 0. -1.
          2   -1    0    0  501    0  0.00000000000E+00 -0.00000000000E+00 -0.17929409755E+04  0.17929409755E+04  0.00000000000E+00 0.  1.
         23    2    1    2    0    0  0.97698046976E+02  0.62469295871E+03 -0.15381346888E+04  0.16654938899E+04  0.90693853802E+02 0.  0.
         13    1    3    3    0    0  0.12153608763E+02  0.14051685693E+02 -0.22155821928E+02  0.28914365324E+02  0.00000000000E+00 0. -1.
        -13    1    3    3    0    0  0.85544438213E+02  0.61064127301E+03 -0.15159788669E+04  0.16365795245E+04  0.00000000000E+00 0.  1.
         22    1    1    2    0    0 -0.97698046976E+02 -0.62469295871E+03  0.33180683108E+03  0.71406020348E+03  0.00000000000E+00 0. -1.
<mgrwt>
<rscale>  0 0.20511096E+04</rscale>
<asrwt>0</asrwt>
<pdfrwt beam="1">  1        2 0.27583707E+00 0.20511096E+04</pdfrwt>
<pdfrwt beam="2">  1       -2 0.90248174E-01 0.20511096E+04</pdfrwt>
<totfact> 0.84593217E+00</totfact>
</mgrwt>
</event>
<event>
 6    1  0.1603085E-006  0.1336996E+04  0.7818608E-02  0.9000730E-01
          1   -1    0    0  501    0  0.00000000000E+00  0.00000000000E+00  0.51373730156E+03  0.51373730156E+03  0.00000000000E+00 0. -1.
         -1   -1    0    0    0  501 -0.00000000000E+00 -0.00000000000E+00 -0.86988018153E+03  0.86988018153E+03  0.00000000000E+00 0.  1.
         23    2    1    2    0    0 -0.97198252110E+02  0.53883286427E+03  0.21256295389E+03  0.59417801024E+03  0.89867361470E+02 0.  0.
         13    1    3    3    0    0 -0.22460849797E+02  0.34962061965E+03  0.15220062589E+03  0.38197394934E+03  0.00000000000E+00 0. -1.
        -13    1    3    3    0    0 -0.74737402313E+02  0.18921224462E+03  0.60362327995E+02  0.21220406089E+03  0.00000000000E+00 0.  1.
         22    1    1    2    0    0  0.97198252110E+02 -0.53883286427E+03 -0.56870583386E+03  0.78943947285E+03  0.00000000000E+00 0.  1.
<mgrwt>
<rscale>  0 0.13369965E+04</rscale>
<asrwt>0</asrwt>
<pdfrwt beam="1">  1        1 0.79036509E-01 0.13369965E+04</pdfrwt>
<pdfrwt beam="2">  1       -1 0.13382772E+00 0.13369965E+04</pdfrwt>
<totfact> 0.19706012E+01</totfact>
</mgrwt>
</event>
<event>
 6    1  0.1603085E-006  0.1454688E+04  0.7818608E-02  0.8915157E-01
         -2   -1    0    0    0  501 -0.00000000000E+00  0.00000000000E+00  0.55710239735E+03  0.55710239735E+03  0.00000000000E+00 0.  1.
          2   -1    0    0  501    0  0.00000000000E+00 -0.00000000000E+00 -0.94960861198E+03  0.94960861198E+03  0.00000000000E+00 0. -1.
         23    2    1    2    0    0  0.15510023729E+03  0.32842457201E+03  0.45261277713E+03  0.58684966470E+03  0.87266372843E+02 0.  0.
         13    1    3    3    0    0  0.32962801329E+02  0.15209360852E+03  0.15185339171E+03  0.21743611613E+03  0.00000000000E+00 0.  1.
        -13    1    3    3    0    0  0.12213743596E+03  0.17633096349E+03  0.30075938542E+03  0.36941354857E+03  0.00000000000E+00 0. -1.
         22    1    1    2    0    0 -0.15510023729E+03 -0.32842457201E+03 -0.84511899176E+03  0.91986134463E+03  0.00000000000E+00 0. -1.
<mgrwt>
<rscale>  0 0.14546879E+04</rscale>
<asrwt>0</asrwt>
<pdfrwt beam="1">  1        2 0.14609363E+00 0.14546879E+04</pdfrwt>
<pdfrwt beam="2">  1       -2 0.85708062E-01 0.14546879E+04</pdfrwt>
<totfact> 0.31146089E+01</totfact>
</mgrwt>
</event>
<event>
 6    1  0.1603085E-006  0.1978706E+04  0.7818608E-02  0.8616641E-01
         -2   -1    0    0    0  501 -0.00000000000E+00  0.00000000000E+00  0.49157291318E+03  0.49157291318E+03  0.00000000000E+00 0.  1.
          2   -1    0    0  501    0  0.00000000000E+00 -0.00000000000E+00 -0.19911990652E+04  0.19911990652E+04  0.00000000000E+00 0. -1.
         23    2    1    2    0    0  0.76054142767E+03  0.56250784679E+03 -0.39762874299E+03  0.10304508602E+04  0.94244453654E+02 0.  0.
         11    1    3    3    0    0  0.12303685921E+03  0.11745876616E+03 -0.10395524978E+03  0.19935226216E+03  0.00000000000E+00 0. -1.
        -11    1    3    3    0    0  0.63750456846E+03  0.44504908063E+03 -0.29367349321E+03  0.83109859800E+03  0.00000000000E+00 0.  1.
         22    1    1    2    0    0 -0.76054142767E+03 -0.56250784679E+03 -0.11019974090E+04  0.14523211182E+04  0.00000000000E+00 0.  1.
<mgrwt>
<rscale>  0 0.19787062E+04</rscale>
<asrwt>0</asrwt>
<pdfrwt beam="1">  1        2 0.30633832E+00 0.19787062E+04</pdfrwt>
<pdfrwt beam="2">  1       -2 0.75626602E-01 0.19787062E+04</pdfrwt>
<totfact> 0.98567729E+00</totfact>
</mgrwt>
</event>
<event>
 6    1  0.1603085E-006  0.1569222E+04  0.7818608E-02  0.8839682E-01
         -1   -1    0    0    0  501 -0.00000000000E+00  0.00000000000E+00  0.10367264531E+04  0.10367264531E+04  0.00000000000E+00 0.  1.
          1   -1    0    0  501    0  0.00000000000E+00 -0.00000000000E+00 -0.59380614113E+03  0.59380614113E+03  0.00000000000E+00 0. -1.
         23    2    1    2    0    0  0.47333172828E+03 -0.61663571178E+03  0.13401870389E+03  0.79405023967E+03  0.90951877893E+02 0.  0.
         13    1    3    3    0    0  0.32186931286E+03 -0.42760877862E+03  0.49451972323E+02  0.53748918099E+03  0.00000000000E+00 0.  1.
        -13    1    3    3    0    0  0.15146241542E+03 -0.18902693316E+03  0.84566731566E+02  0.25656105868E+03  0.00000000000E+00 0. -1.
         22    1    1    2    0    0 -0.47333172828E+03  0.61663571178E+03  0.30890160810E+03  0.83648235458E+03  0.00000000000E+00 0.  1.
<mgrwt>
<rscale>  0 0.15692221E+04</rscale>
<asrwt>0</asrwt>
<pdfrwt beam="1">  1        1 0.91354791E-01 0.15692221E+04</pdfrwt>
<pdfrwt beam="2">  1       -1 0.15949638E+00 0.15692221E+04</pdfrwt>
<totfact> 0.98598115E+00</totfact>
</mgrwt>
</event>
<event>
 6    1  0.1603085E-006  0.2884046E+04  0.7818608E-02  0.8277640E-01
          2   -1    0    0  501    0  0.00000000000E+00  0.00000000000E+00  0.17277674666E+04  0.17277674666E+04  0.00000000000E+00 0. -1.
         -2   -1    0    0    0  501 -0.00000000000E+00 -0.00000000000E+00 -0.12035357424E+04  0.12035357424E+04  0.00000000000E+00 0.  1.
         23    2    1    2    0    0  0.81466854491E+03 -0.90372191709E+03  0.10463074902E+04  0.16073087804E+04  0.91016536281E+02 0.  0.
         11    1    3    3    0    0  0.54031941613E+03 -0.55358348606E+03  0.62267383224E+03  0.99303698262E+03  0.00000000000E+00 0. -1.
        -11    1    3    3    0    0  0.27434912878E+03 -0.35013843102E+03  0.42363365797E+03  0.61427179775E+03  0.00000000000E+00 0.  1.
         22    1    1    2    0    0 -0.81466854491E+03  0.90372191709E+03 -0.52207576606E+03  0.13239944286E+04  0.00000000000E+00 0.  1.
<mgrwt>
<rscale>  0 0.28840457E+04</rscale>
<asrwt>0</asrwt>
<pdfrwt beam="1">  1        2 0.26581038E+00 0.28840457E+04</pdfrwt>
<pdfrwt beam="2">  1       -2 0.18515935E+00 0.28840457E+04</pdfrwt>
<totfact> 0.13671491E+00</totfact>
</mgrwt>
</event>
<event>
 6    1  0.1603085E-006  0.1400459E+04  0.7818608E-02  0.8953486E-01
          1   -1    0    0  501    0  0.00000000000E+00  0.00000000000E+00  0.18953514058E+04  0.18953514058E+04  0.00000000000E+00 0. -1.
         -1   -1    0    0    0  501 -0.00000000000E+00 -0.00000000000E+00 -0.25869679047E+03  0.25869679047E+03  0.00000000000E+00 0.  1.
         23    2    1    2    0    0 -0.21546376396E+03 -0.58957730270E+03  0.35606280993E+03  0.72788502135E+03  0.94920230994E+02 0.  0.
         11    1    3    3    0    0 -0.30241665331E+02 -0.55677289080E+02  0.72188168819E+01  0.63770135317E+02  0.00000000000E+00 0.  1.
        -11    1    3    3    0    0 -0.18522209863E+03 -0.53390001362E+03  0.34884399305E+03  0.66411488603E+03  0.00000000000E+00 0. -1.
         22    1    1    2    0    0  0.21546376396E+03  0.58957730270E+03  0.12805918054E+04  0.14261631749E+04  0.00000000000E+00 0. -1.
<mgrwt>
<rscale>  0 0.14004590E+04</rscale>
<asrwt>0</asrwt>
<pdfrwt beam="1">  1        1 0.29159252E+00 0.14004590E+04</pdfrwt>
<pdfrwt beam="2">  1       -1 0.39799507E-01 0.14004590E+04</pdfrwt>
<totfact> 0.21047390E+01</totfact>
</mgrwt>
</event>
<event>
 6    1  0.1603085E-006  0.1113643E+04  0.7818608E-02  0.9191996E-01
         -1   -1    0    0    0  501 -0.00000000000E+00  0.00000000000E+00  0.60576843360E+03  0.60576843360E+03  0.00000000000E+00 0.  1.
          1   -1    0    0  501    0  0.00000000000E+00 -0.00000000000E+00 -0.51182947901E+03  0.51182947901E+03  0.00000000000E+00 0. -1.
         23    2    1    2    0    0 -0.20524856508E+03 -0.27556209353E+03 -0.38765999895E+03  0.52599078546E+03  0.91239195198E+02 0.  0.
         13    1    3    3    0    0 -0.79014641419E+01 -0.69657330853E+02 -0.69633962084E+02  0.98810250241E+02  0.00000000000E+00 0. -1.
        -13    1    3    3    0    0 -0.19734710094E+03 -0.20590476268E+03 -0.31802603686E+03  0.42718053521E+03  0.00000000000E+00 0.  1.
         22    1    1    2    0    0  0.20524856508E+03  0.27556209353E+03  0.48159895354E+03  0.59160712716E+03  0.00000000000E+00 0.  1.
<mgrwt>
<rscale>  0 0.11136429E+04</rscale>
<asrwt>0</asrwt>
<pdfrwt beam="1">  1        1 0.78742997E-01 0.11136429E+04</pdfrwt>
<pdfrwt beam="2">  1       -1 0.93195143E-01 0.11136429E+04</pdfrwt>
<totfact> 0.47780078E+01</totfact>
</mgrwt>
</event>
<event>
 6    1  0.1603085E-006  0.1527035E+04  0.7818608E-02  0.8866671E-01
         -2   -1    0    0    0  501 -0.00000000000E+00  0.00000000000E+00  0.84132775152E+03  0.84132775152E+03  0.00000000000E+00 0.  1.
          2   -1    0    0  501    0  0.00000000000E+00 -0.00000000000E+00 -0.69290341950E+03  0.69290341950E+03  0.00000000000E+00 0. -1.
         23    2    1    2    0    0 -0.41215383280E+03  0.37991508033E+03 -0.44235242507E+03  0.71984586487E+03  0.91083209515E+02 0.  0.
         11    1    3    3    0    0 -0.12360367710E+03  0.12042279413E+03 -0.19138228422E+03  0.25769496901E+03  0.00000000000E+00 0.  1.
        -11    1    3    3    0    0 -0.28855015569E+03  0.25949228621E+03 -0.25097014085E+03  0.46215089586E+03  0.00000000000E+00 0. -1.
         22    1    1    2    0    0  0.41215383280E+03 -0.37991508033E+03  0.59077675709E+03  0.81438530615E+03  0.00000000000E+00 0.  1.
<mgrwt>
<rscale>  0 0.15270349E+04</rscale>
<asrwt>0</asrwt>
<pdfrwt beam="1">  1        2 0.10660053E+00 0.15270349E+04</pdfrwt>
<pdfrwt beam="2">  1       -2 0.12943504E+00 0.15270349E+04</pdfrwt>
<totfact> 0.17568841E+01</totfact>
</mgrwt>
</event>
<event>
 6    1  0.1603085E-006  0.2273772E+04  0.7818608E-02  0.8488335E-01
          2   -1    0    0  501    0  0.00000000000E+00  0.00000000000E+00  0.22135370037E+04  0.22135370037E+04  0.00000000000E+00 0.  1.
         -2   -1    0    0    0  501 -0.00000000000E+00 -0.00000000000E+00 -0.58391133969E+03  0.58391133969E+03  0.00000000000E+00 0. -1.
         23    2    1    2    0    0  0.69043104504E+03  0.59168849404E+03 -0.19136085763E+02  0.91457670426E+03  0.96405685857E+02 0.  0.
         13    1    3    3    0    0  0.33979818518E+03  0.25370277536E+03 -0.47672225817E+02  0.42673240560E+03  0.00000000000E+00 0. -1.
        -13    1    3    3    0    0  0.35063285986E+03  0.33798571868E+03  0.28536140055E+02  0.48784429866E+03  0.00000000000E+00 0.  1.
         22    1    1    2    0    0 -0.69043104504E+03 -0.59168849404E+03  0.16487617498E+04  0.18828716392E+04  0.00000000000E+00 0.  1.
<mgrwt>
<rscale>  0 0.22737716E+04</rscale>
<asrwt>0</asrwt>
<pdfrwt beam="1">  1        2 0.34054415E+00 0.22737716E+04</pdfrwt>
<pdfrwt beam="2">  1       -2 0.89832515E-01 0.22737716E+04</pdfrwt>
<totfact> 0.48922082E+00</totfact>
</mgrwt>
</event>
<event>
 6    1  0.1603085E-006  0.1503469E+04  0.7818608E-02  0.8882149E-01
          1   -1    0    0  501    0  0.00000000000E+00  0.00000000000E+00  0.97584393569E+03  0.97584393569E+03  0.00000000000E+00 0. -1.
         -1   -1    0    0    0  501 -0.00000000000E+00 -0.00000000000E+00 -0.57909356952E+03  0.57909356952E+03  0.00000000000E+00 0.  1.
         23    2    1    2    0    0 -0.63245489554E+03 -0.39809486661E+03  0.14711561589E+03  0.76703127586E+03  0.90638049379E+02 0.  0.
         11    1    3    3    0    0 -0.29814745734E+03 -0.17923413679E+03  0.23051978716E+02  0.34863759957E+03  0.00000000000E+00 0.  1.
        -11    1    3    3    0    0 -0.33430743820E+03 -0.21886072982E+03  0.12406363718E+03  0.41839367629E+03  0.00000000000E+00 0. -1.
         22    1    1    2    0    0  0.63245489554E+03  0.39809486661E+03  0.24963475028E+03  0.78790622936E+03  0.00000000000E+00 0.  1.
<mgrwt>
<rscale>  0 0.15034693E+04</rscale>
<asrwt>0</asrwt>
<pdfrwt beam="1">  1        1 0.15012984E+00 0.15034693E+04</pdfrwt>
<pdfrwt beam="2">  1       -1 0.89091319E-01 0.15034693E+04</pdfrwt>
<totfact> 0.18889837E+01</totfact>
</mgrwt>
</event>
<event>
 6    1  0.1603085E-006  0.9620674E+03  0.7818608E-02  0.9351156E-01
         -1   -1    0    0    0  501 -0.00000000000E+00  0.00000000000E+00  0.13274947018E+03  0.13274947018E+03  0.00000000000E+00 0.  1.
          1   -1    0    0  501    0  0.00000000000E+00 -0.00000000000E+00 -0.17430835286E+04  0.17430835286E+04  0.00000000000E+00 0. -1.
         23    2    1    2    0    0 -0.63428687878E+02  0.32897579051E+03 -0.15171463703E+03  0.37923055135E+03  0.92467349910E+02 0.  0.
         13    1    3    3    0    0  0.15030801488E+02  0.12317778708E+03 -0.30310512984E+02  0.12773965485E+03  0.00000000000E+00 0.  1.
        -13    1    3    3    0    0 -0.78459489366E+02  0.20579800343E+03 -0.12140412405E+03  0.25149089650E+03  0.00000000000E+00 0. -1.
         22    1    1    2    0    0  0.63428687878E+02 -0.32897579051E+03 -0.14586194214E+04  0.14966024474E+04  0.00000000000E+00 0. -1.
<mgrwt>
<rscale>  0 0.96206739E+03</rscale>
<asrwt>0</asrwt>
<pdfrwt beam="1">  1        1 0.26816669E+00 0.96206739E+03</pdfrwt>
<pdfrwt beam="2">  1       -1 0.20422996E-01 0.96206739E+03</pdfrwt>
<totfact> 0.88600135E+01</totfact>
</mgrwt>
</event>
<event>
 6    1  0.1603085E-006  0.1599991E+04  0.7818608E-02  0.8820554E-01
          1   -1    0    0  501    0  0.00000000000E+00  0.00000000000E+00  0.14557952148E+04  0.14557952148E+04  0.00000000000E+00 0. -1.
         -1   -1    0    0    0  501 -0.00000000000E+00 -0.00000000000E+00 -0.43961733641E+03  0.43961733641E+03  0.00000000000E+00 0.  1.
         23    2    1    2    0    0 -0.50231439688E+03 -0.52330404240E+03  0.11731352825E+03  0.74036969744E+03  0.90652914324E+02 0.  0.
         13    1    3    3    0    0 -0.12935391349E+03 -0.19497014569E+03  0.30683051707E+02  0.23598144483E+03  0.00000000000E+00 0. -1.
        -13    1    3    3    0    0 -0.37296048339E+03 -0.32833389671E+03  0.86630476539E+02  0.50438825261E+03  0.00000000000E+00 0.  1.
         22    1    1    2    0    0  0.50231439688E+03  0.52330404240E+03  0.89886435016E+03  0.11550428538E+04  0.00000000000E+00 0. -1.
<mgrwt>
<rscale>  0 0.15999910E+04</rscale>
<asrwt>0</asrwt>
<pdfrwt beam="1">  1        1 0.22396849E+00 0.15999910E+04</pdfrwt>
<pdfrwt beam="2">  1       -1 0.67633437E-01 0.15999910E+04</pdfrwt>
<totfact> 0.14915319E+01</totfact>
</mgrwt>
</event>
<event>
 6    1  0.1603085E-006  0.1830760E+04  0.7818608E-02  0.8690111E-01
          1   -1    0    0  501    0  0.00000000000E+00  0.00000000000E+00  0.18169101143E+04  0.18169101143E+04  0.00000000000E+00 0. -1.
         -1   -1    0    0    0  501 -0.00000000000E+00 -0.00000000000E+00 -0.46117871098E+03  0.46117871098E+03  0.00000000000E+00 0.  1.
         23    2    1    2    0    0  0.61735363421E+03 -0.62619818656E+03  0.37340641355E+03  0.95967611902E+03  0.91083616645E+02 0.  0.
         11    1    3    3    0    0  0.30976526142E+03 -0.34731039621E+03  0.23968083177E+03  0.52347486054E+03  0.00000000000E+00 0. -1.
        -11    1    3    3    0    0  0.30758837279E+03 -0.27888779035E+03  0.13372558178E+03  0.43620125849E+03  0.00000000000E+00 0.  1.
         22    1    1    2    0    0 -0.61735363421E+03  0.62619818656E+03  0.98232498980E+03  0.13184127063E+04  0.00000000000E+00 0.  1.
<mgrwt>
<rscale>  0 0.18307597E+04</rscale>
<asrwt>0</asrwt>
<pdfrwt beam="1">  1        1 0.27952463E+00 0.18307597E+04</pdfrwt>
<pdfrwt beam="2">  1       -1 0.70950572E-01 0.18307597E+04</pdfrwt>
<totfact> 0.74925614E+00</totfact>
</mgrwt>
</event>
<event>
 6    1  0.1603085E-006  0.1392599E+04  0.7818608E-02  0.8959193E-01
         -2   -1    0    0    0  501 -0.00000000000E+00  0.00000000000E+00  0.44759665929E+03  0.44759665929E+03  0.00000000000E+00 0.  1.
          2   -1    0    0  501    0  0.00000000000E+00 -0.00000000000E+00 -0.10831919650E+04  0.10831919650E+04  0.00000000000E+00 0. -1.
         23    2    1    2    0    0  0.12295667164E+03 -0.14518724697E+03  0.41316662312E+03  0.46490905175E+03  0.96104568880E+02 0.  0.
         13    1    3    3    0    0 -0.57559660359E+01 -0.56575199320E+02  0.11298810602E+03  0.12649188284E+03  0.00000000000E+00 0. -1.
        -13    1    3    3    0    0  0.12871263768E+03 -0.88612047653E+02  0.30017851710E+03  0.33841716891E+03  0.00000000000E+00 0.  1.
         22    1    1    2    0    0 -0.12295667164E+03  0.14518724697E+03 -0.10487619288E+04  0.10658795725E+04  0.00000000000E+00 0. -1.
<mgrwt>
<rscale>  0 0.13925992E+04</rscale>
<asrwt>0</asrwt>
<pdfrwt beam="1">  1        2 0.16664492E+00 0.13925992E+04</pdfrwt>
<pdfrwt beam="2">  1       -2 0.68861025E-01 0.13925992E+04</pdfrwt>
<totfact> 0.41875818E+01</totfact>
</mgrwt>
</event>
<event>
 6    1  0.1603085E-006  0.8922965E+03  0.7818608E-02  0.9435263E-01
         -2   -1    0    0    0  501 -0.00000000000E+00  0.00000000000E+00  0.38606032928E+03  0.38606032928E+03  0.00000000000E+00 0.  1.
          2   -1    0    0  501    0  0.00000000000E+00 -0.00000000000E+00 -0.51558846199E+03  0.51558846199E+03  0.00000000000E+00 0. -1.
         23    2    1    2    0    0 -0.24508206223E+03 -0.20830052944E+03 -0.37101302666E+03  0.49944326943E+03  0.91315856482E+02 0.  0.
         11    1    3    3    0    0 -0.23353792276E+03 -0.15656112924E+03 -0.31804378347E+03  0.42450347084E+03  0.00000000000E+00 0. -1.
        -11    1    3    3    0    0 -0.11544139471E+02 -0.51739400201E+02 -0.52969243185E+02  0.74939798591E+02  0.00000000000E+00 0.  1.
         22    1    1    2    0    0  0.24508206223E+03  0.20830052944E+03  0.24148489395E+03  0.40220552184E+03  0.00000000000E+00 0. -1.
<mgrwt>
<rscale>  0 0.89229648E+03</rscale>
<asrwt>0</asrwt>
<pdfrwt beam="1">  1        2 0.79321302E-01 0.89229648E+03</pdfrwt>
<pdfrwt beam="2">  1       -2 0.59393897E-01 0.89229648E+03</pdfrwt>
<totfact> 0.15786795E+02</totfact>
</mgrwt>
</event>
<event>
 6    1  0.1603085E-006  0.2143108E+04  0.7818608E-02  0.8542488E-01
          2   -1    0    0  501    0  0.00000000000E+00  0.00000000000E+00  0.12871476813E+04  0.12871476813E+04  0.00000000000E+00 0. -1.
         -2   -1    0    0    0  501 -0.00000000000E+00 -0.00000000000E+00 -0.89207177213E+03  0.89207177213E+03  0.00000000000E+00 0.  1.
         23    2    1    2    0    0 -0.86054499604E+03  0.11998365693E+02  0.84387915933E+03  0.12085979987E+04  0.88856266153E+02 0.  0.
         13    1    3    3    0    0 -0.42807004594E+03  0.45289035030E+01  0.48181110344E+03  0.64452029805E+03  0.00000000000E+00 0.  1.
        -13    1    3    3    0    0 -0.43247495010E+03  0.74694621904E+01  0.36206805589E+03  0.56407770070E+03  0.00000000000E+00 0. -1.
         22    1    1    2    0    0  0.86054499604E+03 -0.11998365693E+02 -0.44880325014E+03  0.97062145470E+03  0.00000000000E+00 0.  1.
<mgrwt>
<rscale>  0 0.21431081E+04</rscale>
<asrwt>0</asrwt>
<pdfrwt beam="1">  1        2 0.19802272E+00 0.21431081E+04</pdfrwt>
<pdfrwt beam="2">  1       -2 0.13724181E+00 0.21431081E+04</pdfrwt>
<totfact> 0.58422985E+00</totfact>
</mgrwt>
</event>
<event>
 6    1  0.1603085E-006  0.2700497E+04  0.7818608E-02  0.8334844E-01
          2   -1    0    0  501    0  0.00000000000E+00  0.00000000000E+00  0.20309781885E+04  0.20309781885E+04  0.00000000000E+00 0. -1.
         -2   -1    0    0    0  501 -0.00000000000E+00 -0.00000000000E+00 -0.89768102784E+03  0.89768102784E+03  0.00000000000E+00 0.  1.
         23    2    1    2    0    0  0.26059527794E+03  0.68907681390E+03  0.17924579603E+04  0.19401099186E+04  0.91565291743E+02 0.  0.
         11    1    3    3    0    0  0.72575835615E+02  0.10569679855E+03  0.26975062670E+03  0.29867116658E+03  0.00000000000E+00 0.  1.
        -11    1    3    3    0    0  0.18801944233E+03  0.58338001535E+03  0.15227073336E+04  0.16414387521E+04  0.00000000000E+00 0. -1.
         22    1    1    2    0    0 -0.26059527794E+03 -0.68907681390E+03 -0.65916079959E+03  0.98854929774E+03  0.00000000000E+00 0.  1.
<mgrwt>
<rscale>  0 0.27004967E+04</rscale>
<asrwt>0</asrwt>
<pdfrwt beam="1">  1        2 0.31245818E+00 0.27004967E+04</pdfrwt>
<pdfrwt beam="2">  1       -2 0.13810477E+00 0.27004967E+04</pdfrwt>
<totfact> 0.20960565E+00</totfact>
</mgrwt>
</event>
<event>
 6    1  0.1603085E-006  0.3541310E+04  0.7818608E-02  0.8104069E-01
          2   -1    0    0  501    0  0.00000000000E+00  0.00000000000E+00  0.17484549804E+04  0.17484549804E+04  0.00000000000E+00 0. -1.
         -2   -1    0    0    0  501 -0.00000000000E+00 -0.00000000000E+00 -0.17931367697E+04  0.17931367697E+04  0.00000000000E+00 0.  1.
         23    2    1    2    0    0  0.17306572303E+04  0.34917603608E+03 -0.14288901160E+03  0.17733318678E+04  0.84795582850E+02 0.  0.
         11    1    3    3    0    0  0.14065895695E+04  0.28490362255E+03 -0.82861913893E+02  0.14375431777E+04  0.00000000000E+00 0. -1.
        -11    1    3    3    0    0  0.32406766080E+03  0.64272413527E+02 -0.60027097703E+02  0.33578869007E+03  0.00000000000E+00 0.  1.
         22    1    1    2    0    0 -0.17306572303E+04 -0.34917603608E+03  0.98207222346E+02  0.17682598823E+04  0.00000000000E+00 0. -1.
<mgrwt>
<rscale>  0 0.35413099E+04</rscale>
<asrwt>0</asrwt>
<pdfrwt beam="1">  1        2 0.26899308E+00 0.35413099E+04</pdfrwt>
<pdfrwt beam="2">  1       -2 0.27586719E+00 0.35413099E+04</pdfrwt>
<totfact> 0.33687215E-01</totfact>
</mgrwt>
</event>
<event>
 6    1  0.1603085E-006  0.1972891E+04  0.7818608E-02  0.8619401E-01
          2   -1    0    0  501    0  0.00000000000E+00  0.00000000000E+00  0.67581581324E+03  0.67581581324E+03  0.00000000000E+00 0. -1.
         -2   -1    0    0    0  501 -0.00000000000E+00 -0.00000000000E+00 -0.14398524636E+04  0.14398524636E+04  0.00000000000E+00 0.  1.
         23    2    1    2    0    0  0.29073983078E+03  0.87040782190E+03 -0.67855173887E+00  0.92199536841E+03  0.89081834868E+02 0.  0.
         11    1    3    3    0    0  0.60880210761E+02  0.26860330603E+03  0.30075559844E+02  0.27705356048E+03  0.00000000000E+00 0.  1.
        -11    1    3    3    0    0  0.22985962002E+03  0.60180451586E+03 -0.30754111583E+02  0.64494180793E+03  0.00000000000E+00 0. -1.
         22    1    1    2    0    0 -0.29073983078E+03 -0.87040782190E+03 -0.76335809868E+03  0.11936729085E+04  0.00000000000E+00 0.  1.
<mgrwt>
<rscale>  0 0.19728913E+04</rscale>
<asrwt>0</asrwt>
<pdfrwt beam="1">  1        2 0.10397167E+00 0.19728913E+04</pdfrwt>
<pdfrwt beam="2">  1       -2 0.22151576E+00 0.19728913E+04</pdfrwt>
<totfact> 0.38532654E+00</totfact>
</mgrwt>
</event>
<event>
 6    1  0.1603085E-006  0.2936413E+04  0.7818608E-02  0.8262125E-01
          1   -1    0    0  501    0  0.00000000000E+00  0.00000000000E+00  0.25305743969E+04  0.25305743969E+04  0.00000000000E+00 0. -1.
         -1   -1    0    0    0  501 -0.00000000000E+00 -0.00000000000E+00 -0.85183451490E+03  0.85183451490E+03  0.00000000000E+00 0.  1.
         23    2    1    2    0    0  0.11794320575E+04 -0.68431281849E+03  0.14633589088E+04  0.20019260341E+04  0.83333896366E+02 0.  0.
         11    1    3    3    0    0  0.42403038112E+03 -0.20086494110E+03  0.49341907647E+03  0.68088976619E+03  0.00000000000E+00 0. -1.
        -11    1    3    3    0    0  0.75540167642E+03 -0.48344787739E+03  0.96993983234E+03  0.13210362680E+04  0.00000000000E+00 0.  1.
         22    1    1    2    0    0 -0.11794320575E+04  0.68431281849E+03  0.21538097319E+03  0.13804828777E+04  0.00000000000E+00 0.  1.
<mgrwt>
<rscale>  0 0.29364132E+04</rscale>
<asrwt>0</asrwt>
<pdfrwt beam="1">  1        1 0.38931913E+00 0.29364132E+04</pdfrwt>
<pdfrwt beam="2">  1       -1 0.13105147E+00 0.29364132E+04</pdfrwt>
<totfact> 0.54827459E-01</totfact>
</mgrwt>
</event>
<event>
 6    1  0.1603085E-006  0.3469243E+04  0.7818608E-02  0.8121118E-01
          1   -1    0    0  501    0  0.00000000000E+00  0.00000000000E+00  0.31062728073E+04  0.31062728073E+04  0.00000000000E+00 0. -1.
         -1   -1    0    0    0  501 -0.00000000000E+00 -0.00000000000E+00 -0.96865645054E+03  0.96865645054E+03  0.00000000000E+00 0.  1.
         23    2    1    2    0    0 -0.13107174993E+04 -0.11156425331E+04  0.13109001215E+04  0.21654533197E+04  0.89946243926E+02 0.  0.
         11    1    3    3    0    0 -0.92969641725E+03 -0.74668451987E+03  0.93703873623E+03  0.15165469969E+04  0.00000000000E+00 0. -1.
        -11    1    3    3    0    0 -0.38102108207E+03 -0.36895801319E+03  0.37386138522E+03  0.64890632285E+03  0.00000000000E+00 0.  1.
         22    1    1    2    0    0  0.13107174993E+04  0.11156425331E+04  0.82671623532E+03  0.19094759381E+04  0.00000000000E+00 0. -1.
<mgrwt>
<rscale>  0 0.34692427E+04</rscale>
<asrwt>0</asrwt>
<pdfrwt beam="1">  1        1 0.47788812E+00 0.34692427E+04</pdfrwt>
<pdfrwt beam="2">  1       -1 0.14902407E+00 0.34692427E+04</pdfrwt>
<totfact> 0.14488439E-01</totfact>
</mgrwt>
</event>
<event>
 6    1  0.1603085E-006  0.4921906E+03  0.7818608E-02  0.1015838E+00
         -2   -1    0    0    0  501 -0.00000000000E+00  0.00000000000E+00  0.42968451062E+03  0.42968451062E+03  0.00000000000E+00 0.  1.
          2   -1    0    0  501    0  0.00000000000E+00 -0.00000000000E+00 -0.14094734296E+03  0.14094734296E+03  0.00000000000E+00 0. -1.
         23    2    1    2    0    0 -0.21913694914E+03 -0.31986880322E+02  0.48330791470E+02  0.24376890263E+03  0.89684165243E+02 0.  0.
         13    1    3    3    0    0 -0.17257919340E+03 -0.98284058431E+01  0.71724236288E+02  0.18714844810E+03  0.00000000000E+00 0. -1.
        -13    1    3    3    0    0 -0.46557755744E+02 -0.22158474479E+02 -0.23393444818E+02  0.56620454534E+02  0.00000000000E+00 0.  1.
         22    1    1    2    0    0  0.21913694914E+03  0.31986880322E+02  0.24040637619E+03  0.32686295095E+03  0.00000000000E+00 0.  1.
<mgrwt>
<rscale>  0 0.49219057E+03</rscale>
<asrwt>0</asrwt>
<pdfrwt beam="1">  1        2 0.21684207E-01 0.49219057E+03</pdfrwt>
<pdfrwt beam="2">  1       -2 0.66105308E-01 0.49219057E+03</pdfrwt>
<totfact> 0.54832576E+02</totfact>
</mgrwt>
</event>
<event>
 6    1  0.1603085E-006  0.1692840E+04  0.7818608E-02  0.8765459E-01
          2   -1    0    0  501    0  0.00000000000E+00  0.00000000000E+00  0.24836619170E+04  0.24836619170E+04  0.00000000000E+00 0. -1.
         -2   -1    0    0    0  501 -0.00000000000E+00 -0.00000000000E+00 -0.28845573793E+03  0.28845573793E+03  0.00000000000E+00 0.  1.
         23    2    1    2    0    0  0.41206171600E+03  0.58301044008E+03  0.36424556933E+03  0.80689176831E+03  0.93292335960E+02 0.  0.
         13    1    3    3    0    0  0.26943281262E+03  0.38240074237E+03  0.18798315577E+03  0.50414485531E+03  0.00000000000E+00 0.  1.
        -13    1    3    3    0    0  0.14262890339E+03  0.20060969771E+03  0.17626241357E+03  0.30274691301E+03  0.00000000000E+00 0. -1.
         22    1    1    2    0    0 -0.41206171600E+03 -0.58301044008E+03  0.18309606097E+04  0.19652258866E+04  0.00000000000E+00 0. -1.
<mgrwt>
<rscale>  0 0.16928397E+04</rscale>
<asrwt>0</asrwt>
<pdfrwt beam="1">  1        2 0.38210182E+00 0.16928397E+04</pdfrwt>
<pdfrwt beam="2">  1       -2 0.44377807E-01 0.16928397E+04</pdfrwt>
<totfact> 0.16337652E+01</totfact>
</mgrwt>
</event>
<event>
 6    1  0.1603085E-006  0.1067023E+04  0.7818608E-02  0.9237943E-01
          1   -1    0    0  501    0  0.00000000000E+00  0.00000000000E+00  0.31308172227E+03  0.31308172227E+03  0.00000000000E+00 0. -1.
         -1   -1    0    0    0  501 -0.00000000000E+00 -0.00000000000E+00 -0.90913872326E+03  0.90913872326E+03  0.00000000000E+00 0.  1.
         23    2    1    2    0    0  0.50974370068E+03 -0.64822946310E+02 -0.44806210434E+03  0.68748392706E+03  0.88509015754E+02 0.  0.
         11    1    3    3    0    0  0.21151659370E+03 -0.40131169562E+01 -0.13558602955E+03  0.25127464243E+03  0.00000000000E+00 0. -1.
        -11    1    3    3    0    0  0.29822710698E+03 -0.60809829354E+02 -0.31247607479E+03  0.43620928463E+03  0.00000000000E+00 0.  1.
         22    1    1    2    0    0 -0.50974370068E+03  0.64822946310E+02 -0.14799489665E+03  0.53473651847E+03  0.00000000000E+00 0. -1.
<mgrwt>
<rscale>  0 0.10670234E+04</rscale>
<asrwt>0</asrwt>
<pdfrwt beam="1">  1        1 0.48166419E-01 0.10670234E+04</pdfrwt>
<pdfrwt beam="2">  1       -1 0.13986749E+00 0.10670234E+04</pdfrwt>
<totfact> 0.34797384E+01</totfact>
</mgrwt>
</event>
<event>
 6    1  0.1603085E-006  0.3039909E+04  0.7818608E-02  0.8232426E-01
         -2   -1    0    0    0  501 -0.00000000000E+00  0.00000000000E+00  0.15203574951E+04  0.15203574951E+04  0.00000000000E+00 0.  1.
          2   -1    0    0  501    0  0.00000000000E+00 -0.00000000000E+00 -0.15195516110E+04  0.15195516110E+04  0.00000000000E+00 0. -1.
         23    2    1    2    0    0 -0.10995750556E+04  0.96433511321E+02  0.10433507987E+04  0.15215993144E+04  0.91207781338E+02 0.  0.
         13    1    3    3    0    0 -0.76034567850E+03  0.38769628044E+02  0.67415102098E+03  0.10169111239E+04  0.00000000000E+00 0.  1.
        -13    1    3    3    0    0 -0.33922937713E+03  0.57663883277E+02  0.36919977768E+03  0.50468819045E+03  0.00000000000E+00 0. -1.
         22    1    1    2    0    0  0.10995750556E+04 -0.96433511321E+02 -0.10425449145E+04  0.15183097918E+04  0.00000000000E+00 0. -1.
<mgrwt>
<rscale>  0 0.30399090E+04</rscale>
<asrwt>0</asrwt>
<pdfrwt beam="1">  1        2 0.23377717E+00 0.30399090E+04</pdfrwt>
<pdfrwt beam="2">  1       -2 0.23390115E+00 0.30399090E+04</pdfrwt>
<totfact> 0.85352322E-01</totfact>
</mgrwt>
</event>
<event>
 6    1  0.1603085E-006  0.3716704E+04  0.7818608E-02  0.8064270E-01
         -1   -1    0    0    0  501 -0.00000000000E+00  0.00000000000E+00  0.14251277016E+04  0.14251277016E+04  0.00000000000E+00 0.  1.
          1   -1    0    0  501    0  0.00000000000E+00 -0.00000000000E+00 -0.24232714619E+04  0.24232714619E+04  0.00000000000E+00 0. -1.
         23    2    1    2    0    0  0.80933507290E+03 -0.74710079505E+03  0.10484807109E+04  0.15242101470E+04  0.10354666917E+03 0.  0.
         13    1    3    3    0    0  0.41630718176E+03 -0.45311916456E+03  0.57025636294E+03  0.83894038307E+03  0.00000000000E+00 0. -1.
        -13    1    3    3    0    0  0.39302789114E+03 -0.29398163049E+03  0.47822434799E+03  0.68526976388E+03  0.00000000000E+00 0.  1.
         22    1    1    2    0    0 -0.80933507290E+03  0.74710079505E+03 -0.20466244713E+04  0.23241890165E+04  0.00000000000E+00 0. -1.
<mgrwt>
<rscale>  0 0.37167035E+04</rscale>
<asrwt>0</asrwt>
<pdfrwt beam="1">  1        1 0.37281099E+00 0.37167035E+04</pdfrwt>
<pdfrwt beam="2">  1       -1 0.21925042E+00 0.37167035E+04</pdfrwt>
<totfact> 0.13656682E-01</totfact>
</mgrwt>
</event>
<event>
 6    1  0.1603085E-006  0.3815666E+04  0.7818608E-02  0.8042801E-01
          2   -1    0    0  501    0  0.00000000000E+00  0.00000000000E+00  0.93478146151E+03  0.93478146151E+03  0.00000000000E+00 0. -1.
         -2   -1    0    0    0  501 -0.00000000000E+00 -0.00000000000E+00 -0.38937726993E+04  0.38937726993E+04  0.00000000000E+00 0.  1.
         23    2    1    2    0    0 -0.17679687074E+04 -0.71239725002E+03 -0.15434758933E+04  0.24543370514E+04  0.90715690072E+02 0.  0.
         11    1    3    3    0    0 -0.13130612553E+04 -0.50734219902E+03 -0.10946698462E+04  0.17832072340E+04  0.00000000000E+00 0.  1.
        -11    1    3    3    0    0 -0.45490745204E+03 -0.20505505100E+03 -0.44880604709E+03  0.67112981737E+03  0.00000000000E+00 0. -1.
         22    1    1    2    0    0  0.17679687074E+04  0.71239725002E+03 -0.14155153445E+04  0.23742171094E+04  0.00000000000E+00 0.  1.
<mgrwt>
<rscale>  0 0.38156659E+04</rscale>
<asrwt>0</asrwt>
<pdfrwt beam="1">  1        2 0.14381253E+00 0.38156659E+04</pdfrwt>
<pdfrwt beam="2">  1       -2 0.59904195E+00 0.38156659E+04</pdfrwt>
<totfact> 0.11356387E-02</totfact>
</mgrwt>
</event>
<event>
 6    1  0.1603085E-006  0.2296947E+04  0.7818608E-02  0.8479126E-01
         -1   -1    0    0    0  501 -0.00000000000E+00  0.00000000000E+00  0.62936562900E+03  0.62936562900E+03  0.00000000000E+00 0.  1.
          1   -1    0    0  501    0  0.00000000000E+00 -0.00000000000E+00 -0.20957479202E+04  0.20957479202E+04  0.00000000000E+00 0. -1.
         23    2    1    2    0    0 -0.22106710309E+03  0.70773223974E+03 -0.17720819820E+04  0.19231111251E+04  0.91248348778E+02 0.  0.
         13    1    3    3    0    0 -0.67059428902E+02  0.34897738598E+03 -0.90057121789E+03  0.96814807825E+03  0.00000000000E+00 0.  1.
        -13    1    3    3    0    0 -0.15400767419E+03  0.35875485377E+03 -0.87151076412E+03  0.95496304682E+03  0.00000000000E+00 0. -1.
         22    1    1    2    0    0  0.22106710309E+03 -0.70773223974E+03  0.30569969086E+03  0.80200242408E+03  0.00000000000E+00 0.  1.
<mgrwt>
<rscale>  0 0.22969473E+04</rscale>
<asrwt>0</asrwt>
<pdfrwt beam="1">  1        1 0.32242276E+00 0.22969473E+04</pdfrwt>
<pdfrwt beam="2">  1       -1 0.96825480E-01 0.22969473E+04</pdfrwt>
<totfact> 0.23787463E+00</totfact>
</mgrwt>
</event>
<event>
 6    1  0.1603085E-006  0.3356241E+04  0.7818608E-02  0.8148731E-01
         -2   -1    0    0    0  501 -0.00000000000E+00  0.00000000000E+00  0.87228709684E+03  0.87228709684E+03  0.00000000000E+00 0. -1.
          2   -1    0    0  501    0  0.00000000000E+00 -0.00000000000E+00 -0.32283954010E+04  0.32283954010E+04  0.00000000000E+00 0.  1.
         23    2    1    2    0    0 -0.15417472024E+04  0.59135674990E+03 -0.15361094701E+04  0.22570216479E+04  0.88471312801E+02 0.  0.
         13    1    3    3    0    0 -0.76870943356E+03  0.34186643114E+03 -0.78887526136E+03  0.11533043952E+04  0.00000000000E+00 0.  1.
        -13    1    3    3    0    0 -0.77303776884E+03  0.24949031875E+03 -0.74723420877E+03  0.11037172527E+04  0.00000000000E+00 0. -1.
         22    1    1    2    0    0  0.15417472024E+04 -0.59135674990E+03 -0.81999883407E+03  0.18436608500E+04  0.00000000000E+00 0. -1.
<mgrwt>
<rscale>  0 0.33562405E+04</rscale>
<asrwt>0</asrwt>
<pdfrwt beam="1">  1        2 0.49667622E+00 0.33562405E+04</pdfrwt>
<pdfrwt beam="2">  1       -2 0.13419801E+00 0.33562405E+04</pdfrwt>
<totfact> 0.41331550E-01</totfact>
</mgrwt>
</event>
<event>
 6    1  0.1603085E-006  0.2541957E+04  0.7818608E-02  0.8388189E-01
          2   -1    0    0  501    0  0.00000000000E+00  0.00000000000E+00  0.71018886480E+03  0.71018886480E+03  0.00000000000E+00 0. -1.
         -2   -1    0    0    0  501 -0.00000000000E+00 -0.00000000000E+00 -0.22745871473E+04  0.22745871473E+04  0.00000000000E+00 0.  1.
         23    2    1    2    0    0  0.36137912969E+03  0.12166318565E+04 -0.75729836300E+03  0.14807154317E+04  0.90716202014E+02 0.  0.
         13    1    3    3    0    0  0.10554388214E+03  0.33746036997E+03 -0.16482499734E+03  0.39011061522E+03  0.00000000000E+00 0. -1.
        -13    1    3    3    0    0  0.25583524755E+03  0.87917148654E+03 -0.59247336566E+03  0.10906048164E+04  0.00000000000E+00 0.  1.
         22    1    1    2    0    0 -0.36137912969E+03 -0.12166318565E+04 -0.80709991954E+03  0.15040605805E+04  0.00000000000E+00 0. -1.
<mgrwt>
<rscale>  0 0.25419571E+04</rscale>
<asrwt>0</asrwt>
<pdfrwt beam="1">  1        2 0.10925983E+00 0.25419571E+04</pdfrwt>
<pdfrwt beam="2">  1       -2 0.34993648E+00 0.25419571E+04</pdfrwt>
<totfact> 0.55700123E-01</totfact>
</mgrwt>
</event>
<event>
 6    1  0.1603085E-006  0.4289824E+04  0.7818608E-02  0.7948502E-01
          2   -1    0    0  501    0  0.00000000000E+00  0.00000000000E+00  0.13562985814E+04  0.13562985814E+04  0.00000000000E+00 0. -1.
         -2   -1    0    0    0  501 -0.00000000000E+00 -0.00000000000E+00 -0.33920604656E+04  0.33920604656E+04  0.00000000000E+00 0.  1.
         23    2    1    2    0    0  0.17146512009E+04 -0.12747597207E+04 -0.12136103469E+04  0.24590416298E+04  0.94839741579E+02 0.  0.
         13    1    3    3    0    0  0.12177012695E+04 -0.85700675698E+03 -0.86801214538E+03  0.17235724666E+04  0.00000000000E+00 0. -1.
        -13    1    3    3    0    0  0.49694993141E+03 -0.41775296373E+03 -0.34559820150E+03  0.73546916313E+03  0.00000000000E+00 0.  1.
         22    1    1    2    0    0 -0.17146512009E+04  0.12747597207E+04 -0.82215153739E+03  0.22893174172E+04  0.00000000000E+00 0. -1.
<mgrwt>
<rscale>  0 0.42898237E+04</rscale>
<asrwt>0</asrwt>
<pdfrwt beam="1">  1        2 0.20866132E+00 0.42898237E+04</pdfrwt>
<pdfrwt beam="2">  1       -2 0.52185545E+00 0.42898237E+04</pdfrwt>
<totfact> 0.14449067E-02</totfact>
</mgrwt>
</event>
<event>
 6    1  0.1603085E-006  0.2702510E+04  0.7818608E-02  0.8334191E-01
         -1   -1    0    0    0  501 -0.00000000000E+00  0.00000000000E+00  0.54207955459E+03  0.54207955459E+03  0.00000000000E+00 0.  1.
          1   -1    0    0  501    0  0.00000000000E+00 -0.00000000000E+00 -0.33683057766E+04  0.33683057766E+04  0.00000000000E+00 0. -1.
         23    2    1    2    0    0  0.14994366570E+02  0.29901696079E+03 -0.33190408286E+04  0.33337552849E+04  0.90864203462E+02 0.  0.
         11    1    3    3    0    0 -0.77505207585E+00  0.23753262906E+03 -0.21698275622E+04  0.21827904160E+04  0.00000000000E+00 0.  1.
        -11    1    3    3    0    0  0.15769418646E+02  0.61484331726E+02 -0.11492132664E+04  0.11509648689E+04  0.00000000000E+00 0. -1.
         22    1    1    2    0    0 -0.14994366570E+02 -0.29901696079E+03  0.49281460660E+03  0.57663004634E+03  0.00000000000E+00 0.  1.
<mgrwt>
<rscale>  0 0.27025097E+04</rscale>
<asrwt>0</asrwt>
<pdfrwt beam="1">  1        1 0.51820089E+00 0.27025097E+04</pdfrwt>
<pdfrwt beam="2">  1       -1 0.83396855E-01 0.27025097E+04</pdfrwt>
<totfact> 0.39419781E-01</totfact>
</mgrwt>
</event>
<event>
 6    1  0.1603085E-006  0.4004077E+04  0.7818608E-02  0.8003725E-01
          4   -1    0    0  501    0  0.00000000000E+00  0.00000000000E+00  0.15627956858E+04  0.15627956858E+04  0.00000000000E+00 0. -1.
         -4   -1    0    0    0  501 -0.00000000000E+00 -0.00000000000E+00 -0.25647357188E+04  0.25647357188E+04  0.00000000000E+00 0.  1.
         23    2    1    2    0    0 -0.16476871454E+04 -0.96506657188E+03 -0.11178571755E+04  0.22145067834E+04  0.90604700230E+02 0.  0.
         11    1    3    3    0    0 -0.12510753111E+04 -0.69258726135E+03 -0.81478764872E+03  0.16458266802E+04  0.00000000000E+00 0. -1.
        -11    1    3    3    0    0 -0.39661183429E+03 -0.27247931054E+03 -0.30306952676E+03  0.56868010324E+03  0.00000000000E+00 0.  1.
         22    1    1    2    0    0  0.16476871454E+04  0.96506657188E+03  0.11591714249E+03  0.19130246212E+04  0.00000000000E+00 0.  1.
<mgrwt>
<rscale>  0 0.40040769E+04</rscale>
<asrwt>0</asrwt>
<pdfrwt beam="1">  1        4 0.24043011E+00 0.40040769E+04</pdfrwt>
<pdfrwt beam="2">  1       -4 0.39457472E+00 0.40040769E+04</pdfrwt>
<totfact> 0.83096215E-04</totfact>
</mgrwt>
</event>
<event>
 6    1  0.1603085E-006  0.1245764E+04  0.7818608E-02  0.9073716E-01
         -2   -1    0    0    0  501 -0.00000000000E+00  0.00000000000E+00  0.38199540348E+03  0.38199540348E+03  0.00000000000E+00 0.  1.
          2   -1    0    0  501    0  0.00000000000E+00 -0.00000000000E+00 -0.10156722787E+04  0.10156722787E+04  0.00000000000E+00 0. -1.
         23    2    1    2    0    0  0.60872125064E+03  0.74247988329E+02 -0.41727641981E+03  0.74737276304E+03  0.91608469351E+02 0.  0.
         11    1    3    3    0    0  0.41130186702E+03  0.87221304815E+02 -0.25719163317E+03  0.49287353145E+03  0.00000000000E+00 0.  1.
        -11    1    3    3    0    0  0.19741938362E+03 -0.12973316485E+02 -0.16008478664E+03  0.25449923159E+03  0.00000000000E+00 0. -1.
         22    1    1    2    0    0 -0.60872125064E+03 -0.74247988329E+02 -0.21640045542E+03  0.65029491914E+03  0.00000000000E+00 0. -1.
<mgrwt>
<rscale>  0 0.12457643E+04</rscale>
<asrwt>0</asrwt>
<pdfrwt beam="1">  1        2 0.15625727E+00 0.12457643E+04</pdfrwt>
<pdfrwt beam="2">  1       -2 0.58768525E-01 0.12457643E+04</pdfrwt>
<totfact> 0.65524167E+01</totfact>
</mgrwt>
</event>
<event>
 6    1  0.1603085E-006  0.1603283E+04  0.7818608E-02  0.8818534E-01
          2   -1    0    0  501    0  0.00000000000E+00  0.00000000000E+00  0.18091655582E+04  0.18091655582E+04  0.00000000000E+00 0. -1.
         -2   -1    0    0    0  501 -0.00000000000E+00 -0.00000000000E+00 -0.35520750705E+03  0.35520750705E+03  0.00000000000E+00 0.  1.
         23    2    1    2    0    0 -0.42274194512E+03  0.19586349931E+03 -0.14722532202E+03  0.49678155142E+03  0.89684735953E+02 0.  0.
         13    1    3    3    0    0 -0.10019758477E+03  0.61300254601E+02  0.22355836626E+00  0.11746202445E+03  0.00000000000E+00 0. -1.
        -13    1    3    3    0    0 -0.32254436035E+03  0.13456324471E+03 -0.14744888038E+03  0.37931952697E+03  0.00000000000E+00 0.  1.
         22    1    1    2    0    0  0.42274194512E+03 -0.19586349931E+03  0.16011833732E+04  0.16675915139E+04  0.00000000000E+00 0. -1.
<mgrwt>
<rscale>  0 0.16032831E+04</rscale>
<asrwt>0</asrwt>
<pdfrwt beam="1">  1        2 0.27833316E+00 0.16032831E+04</pdfrwt>
<pdfrwt beam="2">  1       -2 0.54647310E-01 0.16032831E+04</pdfrwt>
<totfact> 0.25760083E+01</totfact>
</mgrwt>
</event>
<event>
 6    1  0.1603085E-006  0.3304651E+04  0.7818608E-02  0.8161713E-01
         -1   -1    0    0    0  501 -0.00000000000E+00  0.00000000000E+00  0.95818369076E+03  0.95818369076E+03  0.00000000000E+00 0.  1.
          1   -1    0    0  501    0  0.00000000000E+00 -0.00000000000E+00 -0.28493282381E+04  0.28493282381E+04  0.00000000000E+00 0. -1.
         23    2    1    2    0    0  0.64845722277E+03  0.13754576565E+03  0.79581012668E+03  0.10399966123E+04  0.94146632317E+02 0.  0.
         13    1    3    3    0    0  0.75767168297E+02  0.47894843323E+02  0.11619148824E+03  0.14674822571E+03  0.00000000000E+00 0. -1.
        -13    1    3    3    0    0  0.57269005447E+03  0.89650922332E+02  0.67961863843E+03  0.89324838655E+03  0.00000000000E+00 0.  1.
         22    1    1    2    0    0 -0.64845722277E+03 -0.13754576565E+03 -0.26869546740E+04  0.27675153166E+04  0.00000000000E+00 0. -1.
<mgrwt>
<rscale>  0 0.33046512E+04</rscale>
<asrwt>0</asrwt>
<pdfrwt beam="1">  1        1 0.43835820E+00 0.33046512E+04</pdfrwt>
<pdfrwt beam="2">  1       -1 0.14741287E+00 0.33046512E+04</pdfrwt>
<totfact> 0.23281278E-01</totfact>
</mgrwt>
</event>
<event>
 6    1  0.1603085E-006  0.4746288E+04  0.7818608E-02  0.7868883E-01
          2   -1    0    0  501    0  0.00000000000E+00  0.00000000000E+00  0.37174775987E+04  0.37174775987E+04  0.00000000000E+00 0. -1.
         -2   -1    0    0    0  501 -0.00000000000E+00 -0.00000000000E+00 -0.15149554103E+04  0.15149554103E+04  0.00000000000E+00 0.  1.
         23    2    1    2    0    0  0.20206021332E+04  0.45238989397E+03 -0.17457790004E+03  0.20799586748E+04  0.90890313444E+02 0.  0.
         11    1    3    3    0    0  0.10571350334E+04  0.19500992589E+03 -0.11085186044E+03  0.10806717748E+04  0.00000000000E+00 0. -1.
        -11    1    3    3    0    0  0.96346709979E+03  0.25737996808E+03 -0.63726039595E+02  0.99928689998E+03  0.00000000000E+00 0.  1.
         22    1    1    2    0    0 -0.20206021332E+04 -0.45238989397E+03  0.23771000885E+04  0.31524743342E+04  0.00000000000E+00 0. -1.
<mgrwt>
<rscale>  0 0.47462881E+04</rscale>
<asrwt>0</asrwt>
<pdfrwt beam="1">  1        2 0.57191963E+00 0.47462881E+04</pdfrwt>
<pdfrwt beam="2">  1       -2 0.23307006E+00 0.47462881E+04</pdfrwt>
<totfact> 0.34326837E-02</totfact>
</mgrwt>
</event>
<event>
 6    1  0.1603085E-006  0.2548156E+04  0.7818608E-02  0.8386028E-01
          2   -1    0    0  501    0  0.00000000000E+00  0.00000000000E+00  0.88180014359E+03  0.88180014359E+03  0.00000000000E+00 0. -1.
         -2   -1    0    0    0  501 -0.00000000000E+00 -0.00000000000E+00 -0.18408645411E+04  0.18408645411E+04  0.00000000000E+00 0.  1.
         23    2    1    2    0    0  0.56540110261E+03 -0.46137826031E+03  0.63237368255E+03  0.97188672373E+03  0.11008643636E+03 0.  0.
         13    1    3    3    0    0  0.31383960857E+03 -0.32457282047E+03  0.37670218381E+03  0.58800284947E+03  0.00000000000E+00 0. -1.
        -13    1    3    3    0    0  0.25156149403E+03 -0.13680543984E+03  0.25567149874E+03  0.38388387426E+03  0.00000000000E+00 0.  1.
         22    1    1    2    0    0 -0.56540110261E+03  0.46137826031E+03 -0.15914380800E+04  0.17507779609E+04  0.00000000000E+00 0.  1.
<mgrwt>
<rscale>  0 0.25481559E+04</rscale>
<asrwt>0</asrwt>
<pdfrwt beam="1">  1        2 0.13566156E+00 0.25481559E+04</pdfrwt>
<pdfrwt beam="2">  1       -2 0.28320993E+00 0.25481559E+04</pdfrwt>
<totfact> 0.10789842E+00</totfact>
</mgrwt>
</event>
<event>
 6    1  0.1603085E-006  0.2439725E+04  0.7818608E-02  0.8424779E-01
         -1   -1    0    0    0  501 -0.00000000000E+00  0.00000000000E+00  0.12261006614E+04  0.12261006614E+04  0.00000000000E+00 0.  1.
          1   -1    0    0  501    0  0.00000000000E+00 -0.00000000000E+00 -0.12136562734E+04  0.12136562734E+04  0.00000000000E+00 0. -1.
         23    2    1    2    0    0 -0.10030334949E+04 -0.67855186238E+03 -0.12561216477E+03  0.12209179653E+04  0.91397156180E+02 0.  0.
         13    1    3    3    0    0 -0.23983945405E+03 -0.20145815608E+03 -0.55943152422E+02  0.31817917700E+03  0.00000000000E+00 0.  1.
        -13    1    3    3    0    0 -0.76319404086E+03 -0.47709370629E+03 -0.69669012348E+02  0.90273878828E+03  0.00000000000E+00 0. -1.
         22    1    1    2    0    0  0.10030334949E+04  0.67855186238E+03  0.13805655282E+03  0.12188389695E+04  0.00000000000E+00 0. -1.
<mgrwt>
<rscale>  0 0.24397252E+04</rscale>
<asrwt>0</asrwt>
<pdfrwt beam="1">  1        1 0.18671635E+00 0.24397252E+04</pdfrwt>
<pdfrwt beam="2">  1       -1 0.18863087E+00 0.24397252E+04</pdfrwt>
<totfact> 0.16849203E+00</totfact>
</mgrwt>
</event>
<event>
 6    1  0.1603085E-006  0.2552603E+04  0.7818608E-02  0.8384482E-01
         -2   -1    0    0    0  501 -0.00000000000E+00  0.00000000000E+00  0.44985720566E+03  0.44985720566E+03  0.00000000000E+00 0.  1.
          2   -1    0    0  501    0  0.00000000000E+00 -0.00000000000E+00 -0.36210276180E+04  0.36210276180E+04  0.00000000000E+00 0. -1.
         23    2    1    2    0    0  0.94113576377E+03  0.84543093662E+03 -0.13505279001E+04  0.18538532155E+04  0.11115818032E+03 0.  0.
         11    1    3    3    0    0  0.55037902575E+03  0.56229812279E+03 -0.80927906084E+03  0.11287288643E+04  0.00000000000E+00 0. -1.
        -11    1    3    3    0    0  0.39075673802E+03  0.28313281383E+03 -0.54124883930E+03  0.72512435114E+03  0.00000000000E+00 0.  1.
         22    1    1    2    0    0 -0.94113576377E+03 -0.84543093662E+03 -0.18206425122E+04  0.22170316082E+04  0.00000000000E+00 0.  1.
<mgrwt>
<rscale>  0 0.25526029E+04</rscale>
<asrwt>0</asrwt>
<pdfrwt beam="1">  1        2 0.55708120E+00 0.25526029E+04</pdfrwt>
<pdfrwt beam="2">  1       -2 0.69208797E-01 0.25526029E+04</pdfrwt>
<totfact> 0.11297677E+00</totfact>
</mgrwt>
</event>
<event>
 6    1  0.1603085E-006  0.8440444E+03  0.7818608E-02  0.9498365E-01
         -1   -1    0    0    0  501 -0.00000000000E+00  0.00000000000E+00  0.77054268811E+03  0.77054268811E+03  0.00000000000E+00 0.  1.
          1   -1    0    0  501    0  0.00000000000E+00 -0.00000000000E+00 -0.23113936627E+03  0.23113936627E+03  0.00000000000E+00 0. -1.
         23    2    1    2    0    0  0.32636076115E+03 -0.25006612634E+03  0.18988633757E+03  0.46204649564E+03  0.91573626008E+02 0.  0.
         13    1    3    3    0    0  0.12037083376E+03 -0.13906163504E+03  0.11243346950E+03  0.21556567682E+03  0.00000000000E+00 0.  1.
        -13    1    3    3    0    0  0.20598992739E+03 -0.11100449130E+03  0.77452868072E+02  0.24648081882E+03  0.00000000000E+00 0. -1.
         22    1    1    2    0    0 -0.32636076115E+03  0.25006612634E+03  0.34951698427E+03  0.53963555874E+03  0.00000000000E+00 0. -1.
<mgrwt>
<rscale>  0 0.84404443E+03</rscale>
<asrwt>0</asrwt>
<pdfrwt beam="1">  1        1 0.35559903E-01 0.84404443E+03</pdfrwt>
<pdfrwt beam="2">  1       -1 0.11854503E+00 0.84404443E+03</pdfrwt>
<totfact> 0.79442677E+01</totfact>
</mgrwt>
</event>
<event>
 6    1  0.1603085E-006  0.3198444E+04  0.7818608E-02  0.8189228E-01
          1   -1    0    0  501    0  0.00000000000E+00  0.00000000000E+00  0.30285053399E+04  0.30285053399E+04  0.00000000000E+00 0. -1.
         -1   -1    0    0    0  501 -0.00000000000E+00 -0.00000000000E+00 -0.84447972299E+03  0.84447972299E+03  0.00000000000E+00 0.  1.
         23    2    1    2    0    0  0.11403416153E+04 -0.13920759012E+03 -0.25196237632E+03  0.11796979902E+04  0.91894266211E+02 0.  0.
         11    1    3    3    0    0  0.64621913143E+03 -0.93492554003E+02 -0.18723210937E+03  0.67926127982E+03  0.00000000000E+00 0. -1.
        -11    1    3    3    0    0  0.49412248390E+03 -0.45715036121E+02 -0.64730266949E+02  0.50043671037E+03  0.00000000000E+00 0.  1.
         22    1    1    2    0    0 -0.11403416153E+04  0.13920759012E+03  0.24359879932E+04  0.26932870727E+04  0.00000000000E+00 0. -1.
<mgrwt>
<rscale>  0 0.31984442E+04</rscale>
<asrwt>0</asrwt>
<pdfrwt beam="1">  1        1 0.46592389E+00 0.31984442E+04</pdfrwt>
<pdfrwt beam="2">  1       -1 0.12991996E+00 0.31984442E+04</pdfrwt>
<totfact> 0.24193176E-01</totfact>
</mgrwt>
</event>
<event>
 6    1  0.1603085E-006  0.4132739E+04  0.7818608E-02  0.7978291E-01
          2   -1    0    0  501    0  0.00000000000E+00  0.00000000000E+00  0.24267408987E+04  0.24267408987E+04  0.00000000000E+00 0. -1.
         -2   -1    0    0    0  501 -0.00000000000E+00 -0.00000000000E+00 -0.17595132910E+04  0.17595132910E+04  0.00000000000E+00 0.  1.
         23    2    1    2    0    0 -0.11454954246E+04  0.42280823948E+02 -0.14064471832E+04  0.18168503461E+04  0.94361353274E+02 0.  0.
         11    1    3    3    0    0 -0.52098918508E+03  0.52179007226E+02 -0.58860818374E+03  0.78778929526E+03  0.00000000000E+00 0.  1.
        -11    1    3    3    0    0 -0.62450623956E+03 -0.98981832783E+01 -0.81783899943E+03  0.10290610508E+04  0.00000000000E+00 0. -1.
         22    1    1    2    0    0  0.11454954246E+04 -0.42280823948E+02  0.20736747909E+04  0.23694038436E+04  0.00000000000E+00 0. -1.
<mgrwt>
<rscale>  0 0.41327390E+04</rscale>
<asrwt>0</asrwt>
<pdfrwt beam="1">  1        2 0.37334475E+00 0.41327390E+04</pdfrwt>
<pdfrwt beam="2">  1       -2 0.27069435E+00 0.41327390E+04</pdfrwt>
<totfact> 0.14375376E-01</totfact>
</mgrwt>
</event>
<event>
 6    1  0.1603085E-006  0.1418215E+04  0.7818608E-02  0.8940738E-01
          2   -1    0    0  501    0  0.00000000000E+00  0.00000000000E+00  0.11463758807E+04  0.11463758807E+04  0.00000000000E+00 0. -1.
         -2   -1    0    0    0  501 -0.00000000000E+00 -0.00000000000E+00 -0.43862867807E+03  0.43862867807E+03  0.00000000000E+00 0.  1.
         23    2    1    2    0    0 -0.94842158343E+01  0.48290844132E+03 -0.22039755189E+03  0.53870479370E+03  0.91308602200E+02 0.  0.
         11    1    3    3    0    0 -0.67406187741E+01  0.13353675880E+03 -0.10741191934E+03  0.17150749928E+03  0.00000000000E+00 0. -1.
        -11    1    3    3    0    0 -0.27435970601E+01  0.34937168252E+03 -0.11298563254E+03  0.36719729443E+03  0.00000000000E+00 0.  1.
         22    1    1    2    0    0  0.94842158343E+01 -0.48290844132E+03  0.92814475447E+03  0.10462997650E+04  0.00000000000E+00 0. -1.
<mgrwt>
<rscale>  0 0.14182148E+04</rscale>
<asrwt>0</asrwt>
<pdfrwt beam="1">  1        2 0.17636552E+00 0.14182148E+04</pdfrwt>
<pdfrwt beam="2">  1       -2 0.67481336E-01 0.14182148E+04</pdfrwt>
<totfact> 0.39939152E+01</totfact>
</mgrwt>
</event>
<event>
 6    1  0.1603085E-006  0.1827822E+04  0.7818608E-02  0.8691642E-01
         -2   -1    0    0    0  501 -0.00000000000E+00  0.00000000000E+00  0.96759371371E+03  0.96759371371E+03  0.00000000000E+00 0.  1.
          2   -1    0    0  501    0  0.00000000000E+00 -0.00000000000E+00 -0.86320690320E+03  0.86320690320E+03  0.00000000000E+00 0. -1.
         23    2    1    2    0    0  0.20063351749E+02  0.60138789732E+03 -0.63333982203E+03  0.87879718967E+03  0.95368911478E+02 0.  0.
         13    1    3    3    0    0  0.17299256758E+02  0.55869269006E+03 -0.61815439785E+03  0.83339765167E+03  0.00000000000E+00 0. -1.
        -13    1    3    3    0    0  0.27640949906E+01  0.42695207252E+02 -0.15185424177E+02  0.45399538003E+02  0.00000000000E+00 0.  1.
         22    1    1    2    0    0 -0.20063351749E+02 -0.60138789732E+03  0.73772663254E+03  0.95200342724E+03  0.00000000000E+00 0.  1.
<mgrwt>
<rscale>  0 0.18278223E+04</rscale>
<asrwt>0</asrwt>
<pdfrwt beam="1">  1        2 0.13280106E+00 0.18278223E+04</pdfrwt>
<pdfrwt beam="2">  1       -2 0.14886057E+00 0.18278223E+04</pdfrwt>
<totfact> 0.89466820E+00</totfact>
</mgrwt>
</event>
<event>
 6    1  0.1603085E-006  0.1147664E+04  0.7818608E-02  0.9159941E-01
          1   -1    0    0  501    0  0.00000000000E+00  0.00000000000E+00  0.63168262436E+03  0.63168262436E+03  0.00000000000E+00 0. -1.
         -1   -1    0    0    0  501 -0.00000000000E+00 -0.00000000000E+00 -0.52127985722E+03  0.52127985722E+03  0.00000000000E+00 0.  1.
         23    2    1    2    0    0  0.24796768818E+03 -0.14035187521E+03 -0.44067114760E+03  0.53258430438E+03  0.90930510217E+02 0.  0.
         13    1    3    3    0    0  0.16226996859E+03 -0.13458862788E+03 -0.28119122902E+03  0.35144579773E+03  0.00000000000E+00 0. -1.
        -13    1    3    3    0    0  0.85697719587E+02 -0.57632473264E+01 -0.15947991858E+03  0.18113850665E+03  0.00000000000E+00 0.  1.
         22    1    1    2    0    0 -0.24796768818E+03  0.14035187521E+03  0.55107391473E+03  0.62037817720E+03  0.00000000000E+00 0. -1.
<mgrwt>
<rscale>  0 0.11476645E+04</rscale>
<asrwt>0</asrwt>
<pdfrwt beam="1">  1        1 0.97181942E-01 0.11476645E+04</pdfrwt>
<pdfrwt beam="2">  1       -1 0.80196902E-01 0.11476645E+04</pdfrwt>
<totfact> 0.48996450E+01</totfact>
</mgrwt>
</event>
<event>
 6    1  0.1603085E-006  0.7161319E+03  0.7818608E-02  0.9690035E-01
         -1   -1    0    0    0  501 -0.00000000000E+00  0.00000000000E+00  0.13256867176E+03  0.13256867176E+03  0.00000000000E+00 0.  1.
          1   -1    0    0  501    0  0.00000000000E+00 -0.00000000000E+00 -0.96713074616E+03  0.96713074616E+03  0.00000000000E+00 0. -1.
         23    2    1    2    0    0  0.18377334837E+03 -0.28937418022E+03 -0.54866403462E+03  0.65332765705E+03  0.91075489715E+02 0.  0.
         11    1    3    3    0    0  0.94949250419E+02 -0.20897172152E+03 -0.30416880683E+03  0.38105538128E+03  0.00000000000E+00 0.  1.
        -11    1    3    3    0    0  0.88824097951E+02 -0.80402458703E+02 -0.24449522779E+03  0.27227227577E+03  0.00000000000E+00 0. -1.
         22    1    1    2    0    0 -0.18377334837E+03  0.28937418022E+03 -0.28589803978E+03  0.44637176087E+03  0.00000000000E+00 0.  1.
<mgrwt>
<rscale>  0 0.71613194E+03</rscale>
<asrwt>0</asrwt>
<pdfrwt beam="1">  1        1 0.14878935E+00 0.71613194E+03</pdfrwt>
<pdfrwt beam="2">  1       -1 0.20395180E-01 0.71613194E+03</pdfrwt>
<totfact> 0.32165875E+02</totfact>
</mgrwt>
</event>
<event>
 6    1  0.1603085E-006  0.1103541E+04  0.7818608E-02  0.9201748E-01
         -2   -1    0    0    0  501 -0.00000000000E+00  0.00000000000E+00  0.52222283254E+03  0.52222283254E+03  0.00000000000E+00 0.  1.
          2   -1    0    0  501    0  0.00000000000E+00 -0.00000000000E+00 -0.58298954305E+03  0.58298954305E+03  0.00000000000E+00 0. -1.
         23    2    1    2    0    0 -0.64398730909E+01  0.14282806652E+03  0.49914175029E+03  0.52733798351E+03  0.92203760338E+02 0.  0.
         11    1    3    3    0    0  0.17929245800E+02  0.12035739380E+03  0.27448407786E+03  0.30024801264E+03  0.00000000000E+00 0. -1.
        -11    1    3    3    0    0 -0.24369118891E+02  0.22470672723E+02  0.22465767243E+03  0.22708997087E+03  0.00000000000E+00 0.  1.
         22    1    1    2    0    0  0.64398730909E+01 -0.14282806652E+03 -0.55990846080E+03  0.57787439208E+03  0.00000000000E+00 0. -1.
<mgrwt>
<rscale>  0 0.11035406E+04</rscale>
<asrwt>0</asrwt>
<pdfrwt beam="1">  1        2 0.89690699E-01 0.11035406E+04</pdfrwt>
<pdfrwt beam="2">  1       -2 0.80341974E-01 0.11035406E+04</pdfrwt>
<totfact> 0.69828585E+01</totfact>
</mgrwt>
</event>
<event>
 6    1  0.1603085E-006  0.3839327E+04  0.7818608E-02  0.8037768E-01
         -2   -1    0    0    0  501 -0.00000000000E+00  0.00000000000E+00  0.21013230367E+04  0.21013230367E+04  0.00000000000E+00 0.  1.
          2   -1    0    0  501    0  0.00000000000E+00 -0.00000000000E+00 -0.17537087654E+04  0.17537087654E+04  0.00000000000E+00 0. -1.
         23    2    1    2    0    0 -0.18680700140E+04  0.40775654653E+03  0.33351887014E+03  0.19429257226E+04  0.88173399377E+02 0.  0.
         13    1    3    3    0    0 -0.15110960775E+04  0.29512660053E+03  0.25968202951E+03  0.15613922704E+04  0.00000000000E+00 0. -1.
        -13    1    3    3    0    0 -0.35697393657E+03  0.11262994599E+03  0.73836840626E+02  0.38153345222E+03  0.00000000000E+00 0.  1.
         22    1    1    2    0    0  0.18680700140E+04 -0.40775654653E+03  0.14095401143E+02  0.19121060794E+04  0.00000000000E+00 0. -1.
<mgrwt>
<rscale>  0 0.38393274E+04</rscale>
<asrwt>0</asrwt>
<pdfrwt beam="1">  1        2 0.26980135E+00 0.38393274E+04</pdfrwt>
<pdfrwt beam="2">  1       -2 0.32328047E+00 0.38393274E+04</pdfrwt>
<totfact> 0.16717754E-01</totfact>
</mgrwt>
</event>
<event>
 6    1  0.1603085E-006  0.2640897E+04  0.7818608E-02  0.8354441E-01
          2   -1    0    0  501    0  0.00000000000E+00  0.00000000000E+00  0.17889455206E+04  0.17889455206E+04  0.00000000000E+00 0. -1.
         -2   -1    0    0    0  501 -0.00000000000E+00 -0.00000000000E+00 -0.97464370666E+03  0.97464370666E+03  0.00000000000E+00 0.  1.
         23    2    1    2    0    0  0.99604215959E+03 -0.82479054098E+03  0.67840501670E+03  0.14632633606E+04  0.92341082685E+02 0.  0.
         11    1    3    3    0    0  0.61950715600E+03 -0.45439354749E+03  0.40720305340E+03  0.86952684779E+03  0.00000000000E+00 0. -1.
        -11    1    3    3    0    0  0.37653500360E+03 -0.37039699348E+03  0.27120196330E+03  0.59373651278E+03  0.00000000000E+00 0.  1.
         22    1    1    2    0    0 -0.99604215959E+03  0.82479054098E+03  0.13589679729E+03  0.13003258667E+04  0.00000000000E+00 0.  1.
<mgrwt>
<rscale>  0 0.26408972E+04</rscale>
<asrwt>0</asrwt>
<pdfrwt beam="1">  1        2 0.27522239E+00 0.26408972E+04</pdfrwt>
<pdfrwt beam="2">  1       -2 0.14994519E+00 0.26408972E+04</pdfrwt>
<totfact> 0.23141975E+00</totfact>
</mgrwt>
</event>
<event>
 6    1  0.1603085E-006  0.2831866E+04  0.7818608E-02  0.8293443E-01
          2   -1    0    0  501    0  0.00000000000E+00  0.00000000000E+00  0.23957753604E+04  0.23957753604E+04  0.00000000000E+00 0. -1.
         -2   -1    0    0    0  501 -0.00000000000E+00 -0.00000000000E+00 -0.83683423867E+03  0.83683423867E+03  0.00000000000E+00 0.  1.
         23    2    1    2    0    0  0.31996900767E+03  0.13737878247E+04  0.89984059124E+03  0.16756617314E+04  0.91956485982E+02 0.  0.
         13    1    3    3    0    0  0.15920371152E+03  0.87830989753E+03  0.57285932450E+03  0.10606327845E+04  0.00000000000E+00 0.  1.
        -13    1    3    3    0    0  0.16076529615E+03  0.49547792720E+03  0.32698126675E+03  0.61502894695E+03  0.00000000000E+00 0. -1.
         22    1    1    2    0    0 -0.31996900767E+03 -0.13737878247E+04  0.65910053050E+03  0.15569478676E+04  0.00000000000E+00 0.  1.
<mgrwt>
<rscale>  0 0.28318664E+04</rscale>
<asrwt>0</asrwt>
<pdfrwt beam="1">  1        2 0.36858082E+00 0.28318664E+04</pdfrwt>
<pdfrwt beam="2">  1       -2 0.12874373E+00 0.28318664E+04</pdfrwt>
<totfact> 0.15440980E+00</totfact>
</mgrwt>
</event>
<event>
 6    1  0.1603085E-006  0.3085291E+04  0.7818608E-02  0.8219786E-01
         -2   -1    0    0    0  501 -0.00000000000E+00  0.00000000000E+00  0.86520318253E+03  0.86520318253E+03  0.00000000000E+00 0.  1.
          2   -1    0    0  501    0  0.00000000000E+00 -0.00000000000E+00 -0.27505152411E+04  0.27505152411E+04  0.00000000000E+00 0. -1.
         23    2    1    2    0    0  0.12271501192E+03  0.11752590380E+04  0.21622801037E+03  0.12047510987E+04  0.91530741510E+02 0.  0.
         11    1    3    3    0    0  0.16805769103E+02  0.57901348150E+03  0.91036620092E+02  0.58636738640E+03  0.00000000000E+00 0. -1.
        -11    1    3    3    0    0  0.10590924281E+03  0.59624555654E+03  0.12519139028E+03  0.61838371228E+03  0.00000000000E+00 0.  1.
         22    1    1    2    0    0 -0.12271501192E+03 -0.11752590380E+04 -0.21015400690E+04  0.24109673250E+04  0.00000000000E+00 0. -1.
<mgrwt>
<rscale>  0 0.30852906E+04</rscale>
<asrwt>0</asrwt>
<pdfrwt beam="1">  1        2 0.42315619E+00 0.30852906E+04</pdfrwt>
<pdfrwt beam="2">  1       -2 0.13310818E+00 0.30852906E+04</pdfrwt>
<totfact> 0.86076385E-01</totfact>
</mgrwt>
</event>
<event>
 6    1  0.1603085E-006  0.2596601E+04  0.7818608E-02  0.8369357E-01
         -2   -1    0    0    0  501 -0.00000000000E+00  0.00000000000E+00  0.75607409627E+03  0.75607409627E+03  0.00000000000E+00 0.  1.
          2   -1    0    0  501    0  0.00000000000E+00 -0.00000000000E+00 -0.22293896387E+04  0.22293896387E+04  0.00000000000E+00 0. -1.
         23    2    1    2    0    0  0.47113605076E+03  0.65111409097E+03  0.43186266904E+03  0.91770582960E+03  0.98792140300E+02 0.  0.
         11    1    3    3    0    0  0.43694692290E+03  0.54738151523E+03  0.37908826230E+03  0.79640256608E+03  0.00000000000E+00 0.  1.
        -11    1    3    3    0    0  0.34189127861E+02  0.10373257574E+03  0.52774406743E+02  0.12130326352E+03  0.00000000000E+00 0. -1.
         22    1    1    2    0    0 -0.47113605076E+03 -0.65111409097E+03 -0.19051782114E+04  0.20677579053E+04  0.00000000000E+00 0. -1.
<mgrwt>
<rscale>  0 0.25966007E+04</rscale>
<asrwt>0</asrwt>
<pdfrwt beam="1">  1        2 0.34298301E+00 0.25966007E+04</pdfrwt>
<pdfrwt beam="2">  1       -2 0.11631909E+00 0.25966007E+04</pdfrwt>
<totfact> 0.25216348E+00</totfact>
</mgrwt>
</event>
<event>
 6    1  0.1603085E-006  0.2737240E+03  0.7818608E-02  0.1099167E+00
         -2   -1    0    0    0  501 -0.00000000000E+00  0.00000000000E+00  0.67052687629E+03  0.67052687629E+03  0.00000000000E+00 0.  1.
          2   -1    0    0  501    0  0.00000000000E+00 -0.00000000000E+00 -0.27935048737E+02  0.27935048737E+02  0.00000000000E+00 0. -1.
         23    2    1    2    0    0  0.34009591038E+02 -0.23971224112E+02  0.64862034543E+03  0.65641891258E+03  0.91903016359E+02 0.  0.
         11    1    3    3    0    0  0.28932189218E+02 -0.49690647259E+02  0.23364580031E+03  0.24061710663E+03  0.00000000000E+00 0. -1.
        -11    1    3    3    0    0  0.50774018206E+01  0.25719423147E+02  0.41497454511E+03  0.41580180595E+03  0.00000000000E+00 0.  1.
         22    1    1    2    0    0 -0.34009591038E+02  0.23971224112E+02 -0.60285178777E+01  0.42043012449E+02  0.00000000000E+00 0. -1.
<mgrwt>
<rscale>  0 0.27372396E+03</rscale>
<asrwt>0</asrwt>
<pdfrwt beam="1">  1        2 0.42977003E-02 0.27372396E+03</pdfrwt>
<pdfrwt beam="2">  1       -2 0.10315797E+00 0.27372396E+03</pdfrwt>
<totfact> 0.15329244E+03</totfact>
</mgrwt>
</event>
<event>
 6    1  0.1603085E-006  0.2175133E+04  0.7818608E-02  0.8528850E-01
          1   -1    0    0  501    0  0.00000000000E+00  0.00000000000E+00  0.14438828289E+04  0.14438828289E+04  0.00000000000E+00 0. -1.
         -1   -1    0    0    0  501 -0.00000000000E+00 -0.00000000000E+00 -0.81918070652E+03  0.81918070652E+03  0.00000000000E+00 0.  1.
         23    2    1    2    0    0 -0.10213184712E+04  0.18568244253E+03  0.64380930983E+03  0.12248273034E+04  0.90233622944E+02 0.  0.
         13    1    3    3    0    0 -0.37286673468E+03  0.60215490917E+02  0.18457561786E+03  0.42038513994E+03  0.00000000000E+00 0.  1.
        -13    1    3    3    0    0 -0.64845173648E+03  0.12546695161E+03  0.45923369196E+03  0.80444216344E+03  0.00000000000E+00 0. -1.
         22    1    1    2    0    0  0.10213184712E+04 -0.18568244253E+03 -0.19107187402E+02  0.10382362321E+04  0.00000000000E+00 0.  1.
<mgrwt>
<rscale>  0 0.21751331E+04</rscale>
<asrwt>0</asrwt>
<pdfrwt beam="1">  1        1 0.22213582E+00 0.21751331E+04</pdfrwt>
<pdfrwt beam="2">  1       -1 0.12602780E+00 0.21751331E+04</pdfrwt>
<totfact> 0.35859033E+00</totfact>
</mgrwt>
</event>
<event>
 6    1  0.1603085E-006  0.2571092E+04  0.7818608E-02  0.8378087E-01
         -2   -1    0    0    0  501 -0.00000000000E+00  0.00000000000E+00  0.68071176400E+03  0.68071176400E+03  0.00000000000E+00 0.  1.
          2   -1    0    0  501    0  0.00000000000E+00 -0.00000000000E+00 -0.24277944537E+04  0.24277944537E+04  0.00000000000E+00 0. -1.
         23    2    1    2    0    0  0.80943733649E+03  0.71374399184E+03 -0.33060508881E+02  0.10830454494E+04  0.85294552231E+02 0.  0.
         11    1    3    3    0    0  0.42353606564E+03  0.32968187324E+03  0.10808102291E+02  0.53683307602E+03  0.00000000000E+00 0. -1.
        -11    1    3    3    0    0  0.38590127085E+03  0.38406211860E+03 -0.43868611172E+02  0.54621237338E+03  0.00000000000E+00 0.  1.
         22    1    1    2    0    0 -0.80943733649E+03 -0.71374399184E+03 -0.17140221808E+04  0.20254607683E+04  0.00000000000E+00 0. -1.
<mgrwt>
<rscale>  0 0.25710918E+04</rscale>
<asrwt>0</asrwt>
<pdfrwt beam="1">  1        2 0.37350684E+00 0.25710918E+04</pdfrwt>
<pdfrwt beam="2">  1       -2 0.10472489E+00 0.25710918E+04</pdfrwt>
<totfact> 0.25129220E+00</totfact>
</mgrwt>
</event>
<event>
 6    1  0.1603085E-006  0.1890139E+04  0.7818608E-02  0.8659780E-01
          1   -1    0    0  501    0  0.00000000000E+00  0.00000000000E+00  0.18149822044E+04  0.18149822044E+04  0.00000000000E+00 0. -1.
         -1   -1    0    0    0  501 -0.00000000000E+00 -0.00000000000E+00 -0.49210218919E+03  0.49210218919E+03  0.00000000000E+00 0.  1.
         23    2    1    2    0    0  0.34786814171E+03  0.87357636044E+03  0.74866199000E+03  0.12053247819E+04  0.90361235975E+02 0.  0.
         13    1    3    3    0    0  0.19344176494E+03  0.41251618859E+03  0.40832144736E+03  0.61181347374E+03  0.00000000000E+00 0.  1.
        -13    1    3    3    0    0  0.15442637677E+03  0.46106017185E+03  0.34034054263E+03  0.59351130812E+03  0.00000000000E+00 0. -1.
         22    1    1    2    0    0 -0.34786814171E+03 -0.87357636044E+03  0.57421802519E+03  0.11017596117E+04  0.00000000000E+00 0. -1.
<mgrwt>
<rscale>  0 0.18901394E+04</rscale>
<asrwt>0</asrwt>
<pdfrwt beam="1">  1        1 0.27922803E+00 0.18901394E+04</pdfrwt>
<pdfrwt beam="2">  1       -1 0.75708030E-01 0.18901394E+04</pdfrwt>
<totfact> 0.65320383E+00</totfact>
</mgrwt>
</event>
<event>
 6    1  0.1603085E-006  0.5634185E+04  0.7818608E-02  0.7737490E-01
         -2   -1    0    0    0  501 -0.00000000000E+00  0.00000000000E+00  0.39728171199E+04  0.39728171199E+04  0.00000000000E+00 0.  1.
          2   -1    0    0  501    0  0.00000000000E+00 -0.00000000000E+00 -0.19975775391E+04  0.19975775391E+04  0.00000000000E+00 0. -1.
         23    2    1    2    0    0  0.61583971216E+03  0.18710208404E+04 -0.11452771287E+04  0.22801911321E+04  0.87374830783E+02 0.  0.
         13    1    3    3    0    0  0.35802871954E+03  0.10779784275E+04 -0.71005878706E+03  0.13395542301E+04  0.00000000000E+00 0. -1.
        -13    1    3    3    0    0  0.25781099262E+03  0.79304241290E+03 -0.43521834162E+03  0.94063690203E+03  0.00000000000E+00 0.  1.
         22    1    1    2    0    0 -0.61583971216E+03 -0.18710208404E+04  0.31205167094E+04  0.36902035269E+04  0.00000000000E+00 0.  1.
<mgrwt>
<rscale>  0 0.56341850E+04</rscale>
<asrwt>0</asrwt>
<pdfrwt beam="1">  1        2 0.30731962E+00 0.56341850E+04</pdfrwt>
<pdfrwt beam="2">  1       -2 0.61120263E+00 0.56341850E+04</pdfrwt>
<totfact> 0.21714820E-03</totfact>
</mgrwt>
</event>
<event>
 6    1  0.1603085E-006  0.2102392E+04  0.7818608E-02  0.8560190E-01
          1   -1    0    0  501    0  0.00000000000E+00  0.00000000000E+00  0.68228614757E+03  0.68228614757E+03  0.00000000000E+00 0. -1.
         -1   -1    0    0    0  501 -0.00000000000E+00 -0.00000000000E+00 -0.16195739386E+04  0.16195739386E+04  0.00000000000E+00 0.  1.
         23    2    1    2    0    0  0.20355927599E+03  0.45775302986E+03  0.53998631988E+03  0.74195207159E+03  0.89069835992E+02 0.  0.
         11    1    3    3    0    0  0.76171207781E+02  0.27475114990E+03  0.28305088997E+03  0.40175621162E+03  0.00000000000E+00 0. -1.
        -11    1    3    3    0    0  0.12738806821E+03  0.18300187996E+03  0.25693542992E+03  0.34019585996E+03  0.00000000000E+00 0.  1.
         22    1    1    2    0    0 -0.20355927599E+03 -0.45775302986E+03 -0.14772741109E+04  0.15599080146E+04  0.00000000000E+00 0.  1.
<mgrwt>
<rscale>  0 0.21023918E+04</rscale>
<asrwt>0</asrwt>
<pdfrwt beam="1">  1        1 0.10496710E+00 0.21023918E+04</pdfrwt>
<pdfrwt beam="2">  1       -1 0.24916522E+00 0.21023918E+04</pdfrwt>
<totfact> 0.18386321E+00</totfact>
</mgrwt>
</event>
<event>
 6    1  0.1603085E-006  0.3138515E+04  0.7818608E-02  0.8205247E-01
         -1   -1    0    0    0  501 -0.00000000000E+00  0.00000000000E+00  0.19694387961E+04  0.19694387961E+04  0.00000000000E+00 0.  1.
          1   -1    0    0  501    0  0.00000000000E+00 -0.00000000000E+00 -0.12503913108E+04  0.12503913108E+04  0.00000000000E+00 0. -1.
         23    2    1    2    0    0  0.13194254264E+04 -0.28635307997E+03 -0.45808094432E+03  0.14285978824E+04  0.90400307802E+02 0.  0.
         13    1    3    3    0    0  0.29284116838E+03 -0.38659300406E+02 -0.13039569087E+03  0.32288314853E+03  0.00000000000E+00 0. -1.
        -13    1    3    3    0    0  0.10265842581E+04 -0.24769377957E+03 -0.32768525345E+03  0.11057147338E+04  0.00000000000E+00 0.  1.
         22    1    1    2    0    0 -0.13194254264E+04  0.28635307997E+03  0.11771284296E+04  0.17912322245E+04  0.00000000000E+00 0.  1.
<mgrwt>
<rscale>  0 0.31385150E+04</rscale>
<asrwt>0</asrwt>
<pdfrwt beam="1">  1        1 0.19236789E+00 0.31385150E+04</pdfrwt>
<pdfrwt beam="2">  1       -1 0.30299058E+00 0.31385150E+04</pdfrwt>
<totfact> 0.26081200E-01</totfact>
</mgrwt>
</event>
<event>
 6    1  0.1603085E-006  0.2919884E+04  0.7818608E-02  0.8266986E-01
         -1   -1    0    0    0  501 -0.00000000000E+00  0.00000000000E+00  0.14924622570E+04  0.14924622570E+04  0.00000000000E+00 0.  1.
          1   -1    0    0  501    0  0.00000000000E+00 -0.00000000000E+00 -0.14281304433E+04  0.14281304433E+04  0.00000000000E+00 0. -1.
         23    2    1    2    0    0  0.14569968672E+03 -0.80071604731E+03  0.12426818478E+04  0.14885021340E+04  0.94899109460E+02 0.  0.
         13    1    3    3    0    0  0.80697171814E+02 -0.28277846575E+03  0.51338657762E+03  0.59164302777E+03  0.00000000000E+00 0.  1.
        -13    1    3    3    0    0  0.65002514906E+02 -0.51793758156E+03  0.72929527014E+03  0.89685910621E+03  0.00000000000E+00 0. -1.
         22    1    1    2    0    0 -0.14569968672E+03  0.80071604731E+03 -0.11783500341E+04  0.14320905663E+04  0.00000000000E+00 0. -1.
<mgrwt>
<rscale>  0 0.29198841E+04</rscale>
<asrwt>0</asrwt>
<pdfrwt beam="1">  1        1 0.21971238E+00 0.29198841E+04</pdfrwt>
<pdfrwt beam="2">  1       -1 0.22960958E+00 0.29198841E+04</pdfrwt>
<totfact> 0.59738054E-01</totfact>
</mgrwt>
</event>
<event>
 6    1  0.1603085E-006  0.2349270E+04  0.7818608E-02  0.8458744E-01
         -2   -1    0    0    0  501 -0.00000000000E+00  0.00000000000E+00  0.16944619531E+04  0.16944619531E+04  0.00000000000E+00 0.  1.
          2   -1    0    0  501    0  0.00000000000E+00 -0.00000000000E+00 -0.81428048729E+03  0.81428048729E+03  0.00000000000E+00 0. -1.
         23    2    1    2    0    0 -0.74361476028E+03 -0.11383215410E+02 -0.52773203508E+03  0.91647584360E+03  0.91292835116E+02 0.  0.
         11    1    3    3    0    0 -0.52696107414E+03 -0.49091655954E+02 -0.36498694096E+03  0.64289457255E+03  0.00000000000E+00 0. -1.
        -11    1    3    3    0    0 -0.21665368614E+03  0.37708440544E+02 -0.16274509412E+03  0.27358127104E+03  0.00000000000E+00 0.  1.
         22    1    1    2    0    0  0.74361476028E+03  0.11383215410E+02  0.14079135009E+04  0.15922665968E+04  0.00000000000E+00 0.  1.
<mgrwt>
<rscale>  0 0.23492699E+04</rscale>
<asrwt>0</asrwt>
<pdfrwt beam="1">  1        2 0.12527392E+00 0.23492699E+04</pdfrwt>
<pdfrwt beam="2">  1       -2 0.26068645E+00 0.23492699E+04</pdfrwt>
<totfact> 0.16783040E+00</totfact>
</mgrwt>
</event>
<event>
 6    1  0.1603085E-006  0.6242718E+04  0.7818608E-02  0.7661015E-01
         -2   -1    0    0    0  501 -0.00000000000E+00  0.00000000000E+00  0.37222604720E+04  0.37222604720E+04  0.00000000000E+00 0.  1.
          2   -1    0    0  501    0  0.00000000000E+00 -0.00000000000E+00 -0.26174637672E+04  0.26174637672E+04  0.00000000000E+00 0. -1.
         23    2    1    2    0    0 -0.15789567000E+04 -0.26195838993E+04 -0.76526847229E+02  0.30608754472E+04  0.88193419026E+02 0.  0.
         13    1    3    3    0    0 -0.72164456960E+03 -0.11406022492E+04 -0.11606103685E+01  0.13497206091E+04  0.00000000000E+00 0. -1.
        -13    1    3    3    0    0 -0.85731213035E+03 -0.14789816502E+04 -0.75366236860E+02  0.17111548381E+04  0.00000000000E+00 0.  1.
         22    1    1    2    0    0  0.15789567000E+04  0.26195838993E+04  0.11813235520E+04  0.32788487920E+04  0.00000000000E+00 0. -1.
<mgrwt>
<rscale>  0 0.62427180E+04</rscale>
<asrwt>0</asrwt>
<pdfrwt beam="1">  1        2 0.40268674E+00 0.62427180E+04</pdfrwt>
<pdfrwt beam="2">  1       -2 0.57265545E+00 0.62427180E+04</pdfrwt>
<totfact> 0.13302216E-03</totfact>
</mgrwt>
</event>
<event>
 6    1  0.1603085E-006  0.2933225E+04  0.7818608E-02  0.8263060E-01
          1   -1    0    0  501    0  0.00000000000E+00  0.00000000000E+00  0.39898204367E+04  0.39898204367E+04  0.00000000000E+00 0. -1.
         -1   -1    0    0    0  501 -0.00000000000E+00 -0.00000000000E+00 -0.53911004315E+03  0.53911004315E+03  0.00000000000E+00 0.  1.
         23    2    1    2    0    0 -0.12445790588E+04  0.25605605048E+03  0.28531559140E+04  0.31247890729E+04  0.96261861206E+02 0.  0.
         11    1    3    3    0    0 -0.44776085891E+03  0.13412003953E+03  0.11002448000E+04  0.11954148200E+04  0.00000000000E+00 0.  1.
        -11    1    3    3    0    0 -0.79681819991E+03  0.12193601095E+03  0.17529111140E+04  0.19293742530E+04  0.00000000000E+00 0. -1.
         22    1    1    2    0    0  0.12445790588E+04 -0.25605605048E+03  0.59755447951E+03  0.14041414069E+04  0.00000000000E+00 0.  1.
<mgrwt>
<rscale>  0 0.29332250E+04</rscale>
<asrwt>0</asrwt>
<pdfrwt beam="1">  1        1 0.61381851E+00 0.29332250E+04</pdfrwt>
<pdfrwt beam="2">  1       -1 0.82940009E-01 0.29332250E+04</pdfrwt>
<totfact> 0.12099391E-01</totfact>
</mgrwt>
</event>
<event>
 6    1  0.1603085E-006  0.3363346E+04  0.7818608E-02  0.8146962E-01
          2   -1    0    0  501    0  0.00000000000E+00  0.00000000000E+00  0.23068934114E+04  0.23068934114E+04  0.00000000000E+00 0. -1.
         -2   -1    0    0    0  501 -0.00000000000E+00 -0.00000000000E+00 -0.12259012899E+04  0.12259012899E+04  0.00000000000E+00 0.  1.
         23    2    1    2    0    0  0.13589931512E+04 -0.94262192865E+03  0.85327459847E+03  0.18632876616E+04  0.91459738982E+02 0.  0.
         11    1    3    3    0    0  0.23361878344E+03 -0.20326279010E+03  0.17206286614E+03  0.35425856054E+03  0.00000000000E+00 0.  1.
        -11    1    3    3    0    0  0.11253743678E+04 -0.73935913855E+03  0.68121173234E+03  0.15090291010E+04  0.00000000000E+00 0. -1.
         22    1    1    2    0    0 -0.13589931512E+04  0.94262192865E+03  0.22771752298E+03  0.16695070397E+04  0.00000000000E+00 0. -1.
<mgrwt>
<rscale>  0 0.33633457E+04</rscale>
<asrwt>0</asrwt>
<pdfrwt beam="1">  1        2 0.35490668E+00 0.33633457E+04</pdfrwt>
<pdfrwt beam="2">  1       -2 0.18860020E+00 0.33633457E+04</pdfrwt>
<totfact> 0.59132392E-01</totfact>
</mgrwt>
</event>
<event>
 6    1  0.1603085E-006  0.3137887E+04  0.7818608E-02  0.8205416E-01
         -2   -1    0    0    0  501 -0.00000000000E+00  0.00000000000E+00  0.81382554611E+03  0.81382554611E+03  0.00000000000E+00 0. -1.
          2   -1    0    0  501    0  0.00000000000E+00 -0.00000000000E+00 -0.30247076550E+04  0.30247076550E+04  0.00000000000E+00 0.  1.
         23    2    1    2    0    0  0.90729085441E+03 -0.12349116715E+04 -0.70201934060E+03  0.16879866695E+04  0.91018190630E+02 0.  0.
         13    1    3    3    0    0  0.74061729330E+03 -0.99692919588E+03 -0.52958460162E+03  0.13501265300E+04  0.00000000000E+00 0. -1.
        -13    1    3    3    0    0  0.16667356110E+03 -0.23798247563E+03 -0.17243473899E+03  0.33786013954E+03  0.00000000000E+00 0.  1.
         22    1    1    2    0    0 -0.90729085441E+03  0.12349116715E+04 -0.15088627683E+04  0.21505465315E+04  0.00000000000E+00 0.  1.
<mgrwt>
<rscale>  0 0.31378874E+04</rscale>
<asrwt>0</asrwt>
<pdfrwt beam="1">  1        2 0.46533963E+00 0.31378874E+04</pdfrwt>
<pdfrwt beam="2">  1       -2 0.12520393E+00 0.31378874E+04</pdfrwt>
<totfact> 0.67849683E-01</totfact>
</mgrwt>
</event>
<event>
 6    1  0.1603085E-006  0.3089104E+04  0.7818608E-02  0.8218734E-01
         -2   -1    0    0    0  501 -0.00000000000E+00  0.00000000000E+00  0.84617076888E+03  0.84617076888E+03  0.00000000000E+00 0.  1.
          2   -1    0    0  501    0  0.00000000000E+00 -0.00000000000E+00 -0.28193381813E+04  0.28193381813E+04  0.00000000000E+00 0. -1.
         23    2    1    2    0    0  0.94480666836E+03 -0.36441070002E+03 -0.23692210248E+04  0.25781666569E+04  0.90995865201E+02 0.  0.
         13    1    3    3    0    0  0.10861811827E+03 -0.58700435181E+02 -0.22937103021E+03  0.26048935911E+03  0.00000000000E+00 0. -1.
        -13    1    3    3    0    0  0.83618855009E+03 -0.30571026484E+03 -0.21398499946E+04  0.23176772978E+04  0.00000000000E+00 0.  1.
         22    1    1    2    0    0 -0.94480666836E+03  0.36441070002E+03  0.39605361238E+03  0.10873422933E+04  0.00000000000E+00 0.  1.
<mgrwt>
<rscale>  0 0.30891044E+04</rscale>
<asrwt>0</asrwt>
<pdfrwt beam="1">  1        2 0.43374433E+00 0.30891044E+04</pdfrwt>
<pdfrwt beam="2">  1       -2 0.13018012E+00 0.30891044E+04</pdfrwt>
<totfact> 0.82736085E-01</totfact>
</mgrwt>
</event>
<event>
 6    1  0.1603085E-006  0.1835549E+04  0.7818608E-02  0.8687620E-01
         -1   -1    0    0    0  501 -0.00000000000E+00  0.00000000000E+00  0.33945616262E+03  0.33945616262E+03  0.00000000000E+00 0.  1.
          1   -1    0    0  501    0  0.00000000000E+00 -0.00000000000E+00 -0.24813523828E+04  0.24813523828E+04  0.00000000000E+00 0. -1.
         23    2    1    2    0    0 -0.62449504210E+03 -0.59003431204E+03 -0.58640583325E+03  0.10438209566E+04  0.86924341807E+02 0.  0.
         11    1    3    3    0    0 -0.19153244043E+03 -0.19205029278E+03 -0.23403283930E+03  0.35824483327E+03  0.00000000000E+00 0.  1.
        -11    1    3    3    0    0 -0.43296260166E+03 -0.39798401926E+03 -0.35237299396E+03  0.68557612334E+03  0.00000000000E+00 0. -1.
         22    1    1    2    0    0  0.62449504210E+03  0.59003431204E+03 -0.15554903870E+04  0.17769875888E+04  0.00000000000E+00 0. -1.
<mgrwt>
<rscale>  0 0.18355494E+04</rscale>
<asrwt>0</asrwt>
<pdfrwt beam="1">  1        1 0.38174652E+00 0.18355494E+04</pdfrwt>
<pdfrwt beam="2">  1       -1 0.52224026E-01 0.18355494E+04</pdfrwt>
<totfact> 0.48532404E+00</totfact>
</mgrwt>
</event>
<event>
 6    1  0.1603085E-006  0.1091229E+04  0.7818608E-02  0.9213783E-01
         -2   -1    0    0    0  501 -0.00000000000E+00  0.00000000000E+00  0.35188548457E+03  0.35188548457E+03  0.00000000000E+00 0.  1.
          2   -1    0    0  501    0  0.00000000000E+00 -0.00000000000E+00 -0.84600086207E+03  0.84600086207E+03  0.00000000000E+00 0. -1.
         23    2    1    2    0    0  0.23689598133E+03  0.47278381953E+03 -0.11411400112E+03  0.54669874539E+03  0.78824279135E+02 0.  0.
         13    1    3    3    0    0  0.65230442375E+02  0.21150333033E+03 -0.33606926906E+02  0.22387071021E+03  0.00000000000E+00 0.  1.
        -13    1    3    3    0    0  0.17166553895E+03  0.26128048919E+03 -0.80507074217E+02  0.32282803517E+03  0.00000000000E+00 0. -1.
         22    1    1    2    0    0 -0.23689598133E+03 -0.47278381953E+03 -0.38000137638E+03  0.65118760125E+03  0.00000000000E+00 0.  1.
<mgrwt>
<rscale>  0 0.10912294E+04</rscale>
<asrwt>0</asrwt>
<pdfrwt beam="1">  1        2 0.13015398E+00 0.10912294E+04</pdfrwt>
<pdfrwt beam="2">  1       -2 0.54136229E-01 0.10912294E+04</pdfrwt>
<totfact> 0.10196687E+02</totfact>
</mgrwt>
</event>
<event>
 6    1  0.1603085E-006  0.2026137E+04  0.7818608E-02  0.8594497E-01
          2   -1    0    0  501    0  0.00000000000E+00  0.00000000000E+00  0.13872698631E+04  0.13872698631E+04  0.00000000000E+00 0. -1.
         -2   -1    0    0    0  501 -0.00000000000E+00 -0.00000000000E+00 -0.73980422783E+03  0.73980422783E+03  0.00000000000E+00 0.  1.
         23    2    1    2    0    0 -0.84227348956E+03  0.25021480615E+03 -0.20045369580E+03  0.90600928004E+03  0.92946494965E+02 0.  0.
         13    1    3    3    0    0 -0.46451080543E+03  0.91240128299E+02 -0.11956186938E+03  0.48825207627E+03  0.00000000000E+00 0. -1.
        -13    1    3    3    0    0 -0.37776268413E+03  0.15897467786E+03 -0.80891826421E+02  0.41775720377E+03  0.00000000000E+00 0.  1.
         22    1    1    2    0    0  0.84227348956E+03 -0.25021480615E+03  0.84791933109E+03  0.12210648109E+04  0.00000000000E+00 0. -1.
<mgrwt>
<rscale>  0 0.20261373E+04</rscale>
<asrwt>0</asrwt>
<pdfrwt beam="1">  1        2 0.21342613E+00 0.20261373E+04</pdfrwt>
<pdfrwt beam="2">  1       -2 0.11381604E+00 0.20261373E+04</pdfrwt>
<totfact> 0.82519655E+00</totfact>
</mgrwt>
</event>
<event>
 6    1  0.1603085E-006  0.1314960E+04  0.7818608E-02  0.9017785E-01
         -2   -1    0    0    0  501 -0.00000000000E+00  0.00000000000E+00  0.40046312670E+03  0.40046312670E+03  0.00000000000E+00 0.  1.
          2   -1    0    0  501    0  0.00000000000E+00 -0.00000000000E+00 -0.10794504143E+04  0.10794504143E+04  0.00000000000E+00 0. -1.
         23    2    1    2    0    0  0.23273902586E+03  0.30430880877E+03  0.25527868505E+03  0.47014910665E+03  0.95402673932E+02 0.  0.
         13    1    3    3    0    0  0.97724568954E+02  0.19883806682E+03  0.12079998007E+03  0.25234758445E+03  0.00000000000E+00 0.  1.
        -13    1    3    3    0    0  0.13501445690E+03  0.10547074195E+03  0.13447870497E+03  0.21780152220E+03  0.00000000000E+00 0. -1.
         22    1    1    2    0    0 -0.23273902586E+03 -0.30430880877E+03 -0.93426597264E+03  0.10097644344E+04  0.00000000000E+00 0. -1.
<mgrwt>
<rscale>  0 0.13149602E+04</rscale>
<asrwt>0</asrwt>
<pdfrwt beam="1">  1        2 0.16606929E+00 0.13149602E+04</pdfrwt>
<pdfrwt beam="2">  1       -2 0.61609713E-01 0.13149602E+04</pdfrwt>
<totfact> 0.53790217E+01</totfact>
</mgrwt>
</event>
<event>
 6    1  0.1603085E-006  0.1364107E+04  0.7818608E-02  0.8980217E-01
          1   -1    0    0  501    0  0.00000000000E+00  0.00000000000E+00  0.13261306956E+04  0.13261306956E+04  0.00000000000E+00 0. -1.
         -1   -1    0    0    0  501 -0.00000000000E+00 -0.00000000000E+00 -0.35079296017E+03  0.35079296017E+03  0.00000000000E+00 0.  1.
         23    2    1    2    0    0  0.51107444320E+03 -0.23187768867E+03  0.96019389804E+03  0.11155025261E+04  0.86076796472E+02 0.  0.
         11    1    3    3    0    0  0.61408863279E+02 -0.25832192708E+02  0.17779220442E+03  0.18986421101E+03  0.00000000000E+00 0.  1.
        -11    1    3    3    0    0  0.44966557992E+03 -0.20604549597E+03  0.78240169361E+03  0.92563831508E+03  0.00000000000E+00 0. -1.
         22    1    1    2    0    0 -0.51107444320E+03  0.23187768867E+03  0.15143837361E+02  0.56142112964E+03  0.00000000000E+00 0.  1.
<mgrwt>
<rscale>  0 0.13641075E+04</rscale>
<asrwt>0</asrwt>
<pdfrwt beam="1">  1        1 0.20402010E+00 0.13641075E+04</pdfrwt>
<pdfrwt beam="2">  1       -1 0.53968148E-01 0.13641075E+04</pdfrwt>
<totfact> 0.29363642E+01</totfact>
</mgrwt>
</event>
<event>
 6    1  0.1603085E-006  0.4662393E+03  0.7818608E-02  0.1022987E+00
         -2   -1    0    0    0  501 -0.00000000000E+00  0.00000000000E+00  0.30359719469E+02  0.30359719469E+02  0.00000000000E+00 0.  1.
          2   -1    0    0  501    0  0.00000000000E+00 -0.00000000000E+00 -0.17900286446E+04  0.17900286446E+04  0.00000000000E+00 0. -1.
         23    2    1    2    0    0 -0.10364863931E+03 -0.54752964484E+02 -0.16592634446E+04  0.16660439827E+04  0.93842666513E+02 0.  0.
         13    1    3    3    0    0 -0.93392450813E+02 -0.60864318516E+02 -0.92633411629E+03  0.93301742221E+03  0.00000000000E+00 0.  1.
        -13    1    3    3    0    0 -0.10256188499E+02  0.61113540320E+01 -0.73292932829E+03  0.73302656045E+03  0.00000000000E+00 0. -1.
         22    1    1    2    0    0  0.10364863931E+03  0.54752964484E+02 -0.10040548055E+03  0.15434438142E+03  0.00000000000E+00 0.  1.
<mgrwt>
<rscale>  0 0.46623928E+03</rscale>
<asrwt>0</asrwt>
<pdfrwt beam="1">  1        2 0.27538901E+00 0.46623928E+03</pdfrwt>
<pdfrwt beam="2">  1       -2 0.46707263E-02 0.46623928E+03</pdfrwt>
<totfact> 0.20636778E+03</totfact>
</mgrwt>
</event>
<event>
 6    1  0.1603085E-006  0.2046389E+04  0.7818608E-02  0.8585234E-01
          1   -1    0    0  501    0  0.00000000000E+00  0.00000000000E+00  0.86941673075E+03  0.86941673075E+03  0.00000000000E+00 0. -1.
         -1   -1    0    0    0  501 -0.00000000000E+00 -0.00000000000E+00 -0.12041717093E+04  0.12041717093E+04  0.00000000000E+00 0.  1.
         23    2    1    2    0    0 -0.88980753805E+03 -0.42240531936E+03 -0.44074227767E+03  0.10829235037E+04  0.91026649612E+02 0.  0.
         13    1    3    3    0    0 -0.71272052275E+03 -0.35378507726E+03 -0.39113339446E+03  0.88663394741E+03  0.00000000000E+00 0.  1.
        -13    1    3    3    0    0 -0.17708701530E+03 -0.68620242098E+02 -0.49608883217E+02  0.19628955629E+03  0.00000000000E+00 0. -1.
         22    1    1    2    0    0  0.88980753805E+03  0.42240531936E+03  0.10598729911E+03  0.99066493637E+03  0.00000000000E+00 0.  1.
<mgrwt>
<rscale>  0 0.20463890E+04</rscale>
<asrwt>0</asrwt>
<pdfrwt beam="1">  1        1 0.13375642E+00 0.20463890E+04</pdfrwt>
<pdfrwt beam="2">  1       -1 0.18525719E+00 0.20463890E+04</pdfrwt>
<totfact> 0.34015729E+00</totfact>
</mgrwt>
</event>
<event>
 6    1  0.1603085E-006  0.8003237E+03  0.7818608E-02  0.9559549E-01
         -2   -1    0    0    0  501 -0.00000000000E+00  0.00000000000E+00  0.14328665476E+03  0.14328665476E+03  0.00000000000E+00 0.  1.
          2   -1    0    0  501    0  0.00000000000E+00 -0.00000000000E+00 -0.11175466515E+04  0.11175466515E+04  0.00000000000E+00 0. -1.
         23    2    1    2    0    0  0.25810745999E+03  0.62838593309E+02 -0.95389056560E+03  0.99440683715E+03  0.91485501109E+02 0.  0.
         11    1    3    3    0    0  0.14365126254E+03  0.78135420456E+02 -0.50020725663E+03  0.52625861393E+03  0.00000000000E+00 0.  1.
        -11    1    3    3    0    0  0.11445619745E+03 -0.15296827148E+02 -0.45368330897E+03  0.46814822321E+03  0.00000000000E+00 0. -1.
         22    1    1    2    0    0 -0.25810745999E+03 -0.62838593309E+02 -0.20369431114E+02  0.26642646910E+03  0.00000000000E+00 0.  1.
<mgrwt>
<rscale>  0 0.80032374E+03</rscale>
<asrwt>0</asrwt>
<pdfrwt beam="1">  1        2 0.17193026E+00 0.80032374E+03</pdfrwt>
<pdfrwt beam="2">  1       -2 0.22044100E-01 0.80032374E+03</pdfrwt>
<totfact> 0.38384513E+02</totfact>
</mgrwt>
</event>
<event>
 6    1  0.1603085E-006  0.3082079E+04  0.7818608E-02  0.8220674E-01
         -1   -1    0    0    0  501 -0.00000000000E+00  0.00000000000E+00  0.19438684094E+04  0.19438684094E+04  0.00000000000E+00 0.  1.
          1   -1    0    0  501    0  0.00000000000E+00 -0.00000000000E+00 -0.12216886583E+04  0.12216886583E+04  0.00000000000E+00 0. -1.
         23    2    1    2    0    0  0.10356371534E+04 -0.95666739008E+03 -0.27415962790E+03  0.14391593826E+04  0.90881342219E+02 0.  0.
         11    1    3    3    0    0  0.68756226183E+03 -0.68193938332E+03 -0.16309216557E+03  0.98202965377E+03  0.00000000000E+00 0.  1.
        -11    1    3    3    0    0  0.34807489156E+03 -0.27472800676E+03 -0.11106746233E+03  0.45712972887E+03  0.00000000000E+00 0. -1.
         22    1    1    2    0    0 -0.10356371534E+04  0.95666739008E+03  0.99633937906E+03  0.17263976851E+04  0.00000000000E+00 0. -1.
<mgrwt>
<rscale>  0 0.30820785E+04</rscale>
<asrwt>0</asrwt>
<pdfrwt beam="1">  1        1 0.18795210E+00 0.30820785E+04</pdfrwt>
<pdfrwt beam="2">  1       -1 0.29905668E+00 0.30820785E+04</pdfrwt>
<totfact> 0.29159585E-01</totfact>
</mgrwt>
</event>
<event>
 6    1  0.1603085E-006  0.2555203E+04  0.7818608E-02  0.8383579E-01
          2   -1    0    0  501    0  0.00000000000E+00  0.00000000000E+00  0.31802510562E+04  0.31802510562E+04  0.00000000000E+00 0. -1.
         -2   -1    0    0    0  501 -0.00000000000E+00 -0.00000000000E+00 -0.51325050273E+03  0.51325050273E+03  0.00000000000E+00 0.  1.
         23    2    1    2    0    0  0.24822928165E+03  0.36692973544E+03  0.30648405772E+04  0.30980757520E+04  0.92576423144E+02 0.  0.
         11    1    3    3    0    0  0.11125034506E+03  0.13823723323E+03  0.94241266223E+03  0.95897226125E+03  0.00000000000E+00 0.  1.
        -11    1    3    3    0    0  0.13697893659E+03  0.22869250221E+03  0.21224279150E+04  0.21391034907E+04  0.00000000000E+00 0. -1.
         22    1    1    2    0    0 -0.24822928165E+03 -0.36692973544E+03 -0.39784002380E+03  0.59542580693E+03  0.00000000000E+00 0.  1.
<mgrwt>
<rscale>  0 0.25552029E+04</rscale>
<asrwt>0</asrwt>
<pdfrwt beam="1">  1        2 0.48926938E+00 0.25552029E+04</pdfrwt>
<pdfrwt beam="2">  1       -2 0.78961618E-01 0.25552029E+04</pdfrwt>
<totfact> 0.16886435E+00</totfact>
</mgrwt>
</event>
<event>
 6    1  0.1603085E-006  0.7534659E+03  0.7818608E-02  0.9629928E-01
          1   -1    0    0  501    0  0.00000000000E+00  0.00000000000E+00  0.31025891535E+04  0.31025891535E+04  0.00000000000E+00 0. -1.
         -1   -1    0    0    0  501 -0.00000000000E+00 -0.00000000000E+00 -0.45744931409E+02  0.45744931409E+02  0.00000000000E+00 0.  1.
         23    2    1    2    0    0 -0.19340803645E+03  0.29035336731E+03  0.10191541227E+04  0.10809945657E+04  0.90345884333E+02 0.  0.
         11    1    3    3    0    0 -0.95089642583E+02  0.20813746898E+03  0.57960020528E+03  0.62313693846E+03  0.00000000000E+00 0.  1.
        -11    1    3    3    0    0 -0.98318393865E+02  0.82215898330E+02  0.43955391741E+03  0.45785762724E+03  0.00000000000E+00 0. -1.
         22    1    1    2    0    0  0.19340803645E+03 -0.29035336731E+03  0.20376900994E+04  0.20673395192E+04  0.00000000000E+00 0. -1.
<mgrwt>
<rscale>  0 0.75346593E+03</rscale>
<asrwt>0</asrwt>
<pdfrwt beam="1">  1        1 0.47732125E+00 0.75346593E+03</pdfrwt>
<pdfrwt beam="2">  1       -1 0.70376841E-02 0.75346593E+03</pdfrwt>
<totfact> 0.58363970E+01</totfact>
</mgrwt>
</event>
<event>
 6    1  0.1603085E-006  0.4424967E+04  0.7818608E-02  0.7923906E-01
         -2   -1    0    0    0  501 -0.00000000000E+00  0.00000000000E+00  0.97740975202E+03  0.97740975202E+03  0.00000000000E+00 0.  1.
          2   -1    0    0  501    0  0.00000000000E+00 -0.00000000000E+00 -0.50082201540E+04  0.50082201540E+04  0.00000000000E+00 0. -1.
         23    2    1    2    0    0  0.48053922726E+03  0.18338837174E+04 -0.47570118755E+03  0.19566289176E+04  0.89764488056E+02 0.  0.
         13    1    3    3    0    0  0.30613272849E+03  0.10225735239E+04 -0.29325098377E+03  0.11069643169E+04  0.00000000000E+00 0. -1.
        -13    1    3    3    0    0  0.17440649877E+03  0.81131019350E+03 -0.18245020378E+03  0.84966460074E+03  0.00000000000E+00 0.  1.
         22    1    1    2    0    0 -0.48053922726E+03 -0.18338837174E+04 -0.35551092144E+04  0.40290009884E+04  0.00000000000E+00 0. -1.
<mgrwt>
<rscale>  0 0.44249670E+04</rscale>
<asrwt>0</asrwt>
<pdfrwt beam="1">  1        2 0.77049542E+00 0.44249670E+04</pdfrwt>
<pdfrwt beam="2">  1       -2 0.15037073E+00 0.44249670E+04</pdfrwt>
<totfact> 0.74946805E-03</totfact>
</mgrwt>
</event>
<event>
 6    1  0.1603085E-006  0.1203244E+04  0.7818608E-02  0.9110022E-01
          1   -1    0    0  501    0  0.00000000000E+00  0.00000000000E+00  0.26878804215E+04  0.26878804215E+04  0.00000000000E+00 0. -1.
         -1   -1    0    0    0  501 -0.00000000000E+00 -0.00000000000E+00 -0.13465969077E+03  0.13465969077E+03  0.00000000000E+00 0.  1.
         23    2    1    2    0    0 -0.42012469447E+03  0.30516553872E+03  0.58996846957E+03  0.79177912046E+03  0.96024036447E+02 0.  0.
         13    1    3    3    0    0 -0.90490438356E+02  0.85394752176E+02  0.88456633779E+02  0.15266092883E+03  0.00000000000E+00 0.  1.
        -13    1    3    3    0    0 -0.32963425612E+03  0.21977078654E+03  0.50151183579E+03  0.63911819162E+03  0.00000000000E+00 0. -1.
         22    1    1    2    0    0  0.42012469447E+03 -0.30516553872E+03  0.19632522611E+04  0.20307609918E+04  0.00000000000E+00 0. -1.
<mgrwt>
<rscale>  0 0.12032442E+04</rscale>
<asrwt>0</asrwt>
<pdfrwt beam="1">  1        1 0.41352003E+00 0.12032442E+04</pdfrwt>
<pdfrwt beam="2">  1       -1 0.20716877E-01 0.12032442E+04</pdfrwt>
<totfact> 0.19258601E+01</totfact>
</mgrwt>
</event>
<event>
 6    1  0.1603085E-006  0.5343951E+03  0.7818608E-02  0.1005172E+00
          1   -1    0    0  501    0  0.00000000000E+00  0.00000000000E+00  0.11020233772E+03  0.11020233772E+03  0.00000000000E+00 0. -1.
         -1   -1    0    0    0  501 -0.00000000000E+00 -0.00000000000E+00 -0.64784958909E+03  0.64784958909E+03  0.00000000000E+00 0.  1.
         23    2    1    2    0    0 -0.19235727533E+03  0.43435991392E+02 -0.51590916624E+03  0.55965698972E+03  0.90364105731E+02 0.  0.
         13    1    3    3    0    0 -0.12626746560E+03 -0.14158704840E+01 -0.22532996883E+03  0.25830035310E+03  0.00000000000E+00 0. -1.
        -13    1    3    3    0    0 -0.66089809730E+02  0.44851861876E+02 -0.29057919741E+03  0.30135663662E+03  0.00000000000E+00 0.  1.
         22    1    1    2    0    0  0.19235727533E+03 -0.43435991392E+02 -0.21738085126E+02  0.19839493710E+03  0.00000000000E+00 0. -1.
<mgrwt>
<rscale>  0 0.53439513E+03</rscale>
<asrwt>0</asrwt>
<pdfrwt beam="1">  1        1 0.16954206E-01 0.53439513E+03</pdfrwt>
<pdfrwt beam="2">  1       -1 0.99669166E-01 0.53439513E+03</pdfrwt>
<totfact> 0.31960408E+02</totfact>
</mgrwt>
</event>
<event>
 6    1  0.1603085E-006  0.2329737E+04  0.7818608E-02  0.8466288E-01
          1   -1    0    0  501    0  0.00000000000E+00  0.00000000000E+00  0.17808456450E+04  0.17808456450E+04  0.00000000000E+00 0. -1.
         -1   -1    0    0    0  501 -0.00000000000E+00 -0.00000000000E+00 -0.76195189978E+03  0.76195189978E+03  0.00000000000E+00 0.  1.
         23    2    1    2    0    0 -0.25678114182E+03 -0.34400197774E+03  0.16900382090E+04  0.17461114040E+04  0.91662269026E+02 0.  0.
         11    1    3    3    0    0 -0.14087436778E+03 -0.15031535857E+03  0.96523723768E+03  0.98697680800E+03  0.00000000000E+00 0.  1.
        -11    1    3    3    0    0 -0.11590677404E+03 -0.19368661917E+03  0.72480097136E+03  0.75913459597E+03  0.00000000000E+00 0. -1.
         22    1    1    2    0    0  0.25678114182E+03  0.34400197774E+03 -0.67114446387E+03  0.79668614075E+03  0.00000000000E+00 0.  1.
<mgrwt>
<rscale>  0 0.23297371E+04</rscale>
<asrwt>0</asrwt>
<pdfrwt beam="1">  1        1 0.27397625E+00 0.23297371E+04</pdfrwt>
<pdfrwt beam="2">  1       -1 0.11722337E+00 0.23297371E+04</pdfrwt>
<totfact> 0.24805105E+00</totfact>
</mgrwt>
</event>
<event>
 6    1  0.1603085E-006  0.1276457E+04  0.7818608E-02  0.9048446E-01
          4   -1    0    0  501    0  0.00000000000E+00  0.00000000000E+00  0.67774646441E+03  0.67774646441E+03  0.00000000000E+00 0. -1.
         -4   -1    0    0    0  501 -0.00000000000E+00 -0.00000000000E+00 -0.60101508559E+03  0.60101508559E+03  0.00000000000E+00 0.  1.
         23    2    1    2    0    0  0.49316115750E+03  0.40014751632E+03  0.61626066364E+02  0.64350244338E+03  0.83496469986E+02 0.  0.
         13    1    3    3    0    0  0.27603947219E+03  0.17204853855E+03  0.20470225374E+02  0.32591029433E+03  0.00000000000E+00 0.  1.
        -13    1    3    3    0    0  0.21712168531E+03  0.22809897777E+03  0.41155840990E+02  0.31759214906E+03  0.00000000000E+00 0. -1.
         22    1    1    2    0    0 -0.49316115750E+03 -0.40014751632E+03  0.15105312456E+02  0.63525910662E+03  0.00000000000E+00 0.  1.
<mgrwt>
<rscale>  0 0.12764574E+04</rscale>
<asrwt>0</asrwt>
<pdfrwt beam="1">  1        4 0.10426869E+00 0.12764574E+04</pdfrwt>
<pdfrwt beam="2">  1       -4 0.92463859E-01 0.12764574E+04</pdfrwt>
<totfact> 0.14540012E+00</totfact>
</mgrwt>
</event>
<event>
 6    1  0.1603085E-006  0.4576316E+04  0.7818608E-02  0.7897411E-01
          3   -1    0    0  501    0  0.00000000000E+00  0.00000000000E+00  0.28774667232E+04  0.28774667232E+04  0.00000000000E+00 0. -1.
         -3   -1    0    0    0  501 -0.00000000000E+00 -0.00000000000E+00 -0.18195402587E+04  0.18195402587E+04  0.00000000000E+00 0.  1.
         23    2    1    2    0    0  0.73227084313E+03  0.90058325468E+03 -0.14936355913E+04  0.18938409663E+04  0.91736251563E+02 0.  0.
         13    1    3    3    0    0  0.36469051895E+03  0.40012437803E+03 -0.64042796119E+03  0.83859803600E+03  0.00000000000E+00 0.  1.
        -13    1    3    3    0    0  0.36758032417E+03  0.50045887664E+03 -0.85320763008E+03  0.10552429303E+04  0.00000000000E+00 0. -1.
         22    1    1    2    0    0 -0.73227084313E+03 -0.90058325468E+03  0.25515620558E+04  0.28031660156E+04  0.00000000000E+00 0. -1.
<mgrwt>
<rscale>  0 0.45763158E+04</rscale>
<asrwt>0</asrwt>
<pdfrwt beam="1">  1        3 0.44268719E+00 0.45763158E+04</pdfrwt>
<pdfrwt beam="2">  1       -3 0.27992927E+00 0.45763158E+04</pdfrwt>
<totfact> 0.63455208E-04</totfact>
</mgrwt>
</event>
<event>
 6    1  0.2055362E-006  0.3351584E+04  0.7818608E-02  0.8149893E-01
          2   -1    0    0  501    0  0.00000000000E+00  0.00000000000E+00  0.30189246489E+04  0.30189246489E+04  0.00000000000E+00 0. -1.
         -2   -1    0    0    0  501 -0.00000000000E+00 -0.00000000000E+00 -0.93022474986E+03  0.93022474986E+03  0.00000000000E+00 0.  1.
         23    2    1    2    0    0 -0.42706531455E+03  0.10269986777E+04 -0.43022817470E+03  0.11955863057E+04  0.84966259622E+02 0.  0.
         11    1    3    3    0    0 -0.27756886286E+03  0.55761175547E+03 -0.23998561879E+03  0.66750913155E+03  0.00000000000E+00 0. -1.
        -11    1    3    3    0    0 -0.14949645169E+03  0.46938692218E+03 -0.19024255591E+03  0.52807717415E+03  0.00000000000E+00 0.  1.
         22    1    1    2    0    0  0.42706531455E+03 -0.10269986777E+04  0.25189280737E+04  0.27535630930E+04  0.00000000000E+00 0. -1.
<mgrwt>
<rscale>  0 0.33515838E+04</rscale>
<asrwt>0</asrwt>
<pdfrwt beam="1">  1        2 0.46444994E+00 0.33515838E+04</pdfrwt>
<pdfrwt beam="2">  1       -2 0.14311150E+00 0.33515838E+04</pdfrwt>
<totfact> 0.47749128E-01</totfact>
</mgrwt>
</event>
<event>
 6    1  0.1603085E-006  0.2103950E+04  0.7818608E-02  0.8559506E-01
         -1   -1    0    0    0  501 -0.00000000000E+00  0.00000000000E+00  0.19819488128E+04  0.19819488128E+04  0.00000000000E+00 0.  1.
          1   -1    0    0  501    0  0.00000000000E+00 -0.00000000000E+00 -0.55836508982E+03  0.55836508982E+03  0.00000000000E+00 0. -1.
         23    2    1    2    0    0  0.99140326337E+03  0.34457715129E+03  0.67303100424E+03  0.12499871117E+04  0.88787402423E+02 0.  0.
         11    1    3    3    0    0  0.49064971839E+03  0.13557524769E+03  0.29063050344E+03  0.58616028821E+03  0.00000000000E+00 0. -1.
        -11    1    3    3    0    0  0.50075354499E+03  0.20900190360E+03  0.38240050080E+03  0.66382682346E+03  0.00000000000E+00 0.  1.
         22    1    1    2    0    0 -0.99140326337E+03 -0.34457715129E+03  0.75055271869E+03  0.12903267909E+04  0.00000000000E+00 0.  1.
<mgrwt>
<rscale>  0 0.21039496E+04</rscale>
<asrwt>0</asrwt>
<pdfrwt beam="1">  1        1 0.85902323E-01 0.21039496E+04</pdfrwt>
<pdfrwt beam="2">  1       -1 0.30491520E+00 0.21039496E+04</pdfrwt>
<totfact> 0.10717940E+00</totfact>
</mgrwt>
</event>
<event>
 6    1  0.1603085E-006  0.1812470E+04  0.7818608E-02  0.8699696E-01
          1   -1    0    0  501    0  0.00000000000E+00  0.00000000000E+00  0.15880039461E+04  0.15880039461E+04  0.00000000000E+00 0.  1.
         -1   -1    0    0    0  501 -0.00000000000E+00 -0.00000000000E+00 -0.51716640822E+03  0.51716640822E+03  0.00000000000E+00 0. -1.
         23    2    1    2    0    0 -0.66712654945E+03 -0.65257260204E+01 -0.17063693637E+03  0.69578776315E+03  0.99514969833E+02 0.  0.
         13    1    3    3    0    0 -0.33237643687E+03 -0.29595450002E+02 -0.41544469633E+02  0.33626764549E+03  0.00000000000E+00 0.  1.
        -13    1    3    3    0    0 -0.33475011259E+03  0.23069723981E+02 -0.12909246673E+03  0.35952011767E+03  0.00000000000E+00 0. -1.
         22    1    1    2    0    0  0.66712654945E+03  0.65257260204E+01  0.12414744742E+04  0.14093825911E+04  0.00000000000E+00 0. -1.
<mgrwt>
<rscale>  0 0.18124705E+04</rscale>
<asrwt>0</asrwt>
<pdfrwt beam="1">  1        1 0.24430830E+00 0.18124705E+04</pdfrwt>
<pdfrwt beam="2">  1       -1 0.79564064E-01 0.18124705E+04</pdfrwt>
<totfact> 0.84595535E+00</totfact>
</mgrwt>
</event>
<event>
 6    1  0.1603085E-006  0.1179697E+04  0.7818608E-02  0.9130816E-01
          1   -1    0    0  501    0  0.00000000000E+00  0.00000000000E+00  0.17608377479E+04  0.17608377479E+04  0.00000000000E+00 0. -1.
         -1   -1    0    0    0  501 -0.00000000000E+00 -0.00000000000E+00 -0.19758845227E+03  0.19758845227E+03  0.00000000000E+00 0.  1.
         23    2    1    2    0    0  0.30925177248E+03 -0.92926551394E+02  0.15985384417E+04  0.16335918939E+04  0.95001702657E+02 0.  0.
         13    1    3    3    0    0  0.19997950512E+03 -0.28360407931E+02  0.11426964025E+04  0.11604099205E+04  0.00000000000E+00 0. -1.
        -13    1    3    3    0    0  0.10927226736E+03 -0.64566143463E+02  0.45584203916E+03  0.47318197341E+03  0.00000000000E+00 0.  1.
         22    1    1    2    0    0 -0.30925177248E+03  0.92926551394E+02 -0.35289146016E+02  0.32483430632E+03  0.00000000000E+00 0.  1.
<mgrwt>
<rscale>  0 0.11796969E+04</rscale>
<asrwt>0</asrwt>
<pdfrwt beam="1">  1        1 0.27089810E+00 0.11796969E+04</pdfrwt>
<pdfrwt beam="2">  1       -1 0.30398225E-01 0.11796969E+04</pdfrwt>
<totfact> 0.42833111E+01</totfact>
</mgrwt>
</event>
<event>
 6    1  0.1603085E-006  0.4633157E+04  0.7818608E-02  0.7887731E-01
         -1   -1    0    0    0  501 -0.00000000000E+00  0.00000000000E+00  0.13332995250E+04  0.13332995250E+04  0.00000000000E+00 0.  1.
          1   -1    0    0  501    0  0.00000000000E+00 -0.00000000000E+00 -0.40250031663E+04  0.40250031663E+04  0.00000000000E+00 0. -1.
         23    2    1    2    0    0  0.45818317324E+03  0.10336212638E+04  0.99055880831E+03  0.15063731118E+04  0.98226585489E+02 0.  0.
         13    1    3    3    0    0  0.27258878891E+03  0.72727382342E+03  0.68193172043E+03  0.10335679626E+04  0.00000000000E+00 0. -1.
        -13    1    3    3    0    0  0.18559438433E+03  0.30634744035E+03  0.30862708787E+03  0.47280514916E+03  0.00000000000E+00 0.  1.
         22    1    1    2    0    0 -0.45818317324E+03 -0.10336212638E+04 -0.36822624496E+04  0.38519295795E+04  0.00000000000E+00 0. -1.
<mgrwt>
<rscale>  0 0.46331565E+04</rscale>
<asrwt>0</asrwt>
<pdfrwt beam="1">  1        1 0.61923125E+00 0.46331565E+04</pdfrwt>
<pdfrwt beam="2">  1       -1 0.20512300E+00 0.46331565E+04</pdfrwt>
<totfact> 0.93738780E-03</totfact>
</mgrwt>
</event>
<event>
 6    1  0.1603085E-006  0.2079600E+04  0.7818608E-02  0.8570283E-01
          2   -1    0    0  501    0  0.00000000000E+00  0.00000000000E+00  0.14261390812E+04  0.14261390812E+04  0.00000000000E+00 0. -1.
         -2   -1    0    0    0  501 -0.00000000000E+00 -0.00000000000E+00 -0.75811955387E+03  0.75811955387E+03  0.00000000000E+00 0.  1.
         23    2    1    2    0    0 -0.98595053211E+02 -0.94962222109E+03  0.76205231581E+03  0.12249122364E+04  0.90459424569E+02 0.  0.
         13    1    3    3    0    0 -0.15348530301E+02 -0.57139866797E+03  0.44468502460E+03  0.72420769551E+03  0.00000000000E+00 0. -1.
        -13    1    3    3    0    0 -0.83246522910E+02 -0.37822355313E+03  0.31736729121E+03  0.50070454087E+03  0.00000000000E+00 0.  1.
         22    1    1    2    0    0  0.98595053211E+02  0.94962222109E+03 -0.94032788510E+02  0.95934639866E+03  0.00000000000E+00 0.  1.
<mgrwt>
<rscale>  0 0.20795999E+04</rscale>
<asrwt>0</asrwt>
<pdfrwt beam="1">  1        2 0.21940601E+00 0.20795999E+04</pdfrwt>
<pdfrwt beam="2">  1       -2 0.11663378E+00 0.20795999E+04</pdfrwt>
<totfact> 0.73528173E+00</totfact>
</mgrwt>
</event>
<event>
 6    1  0.1603085E-006  0.3681864E+04  0.7818608E-02  0.8071993E-01
          2   -1    0    0  501    0  0.00000000000E+00  0.00000000000E+00  0.26214184364E+04  0.26214184364E+04  0.00000000000E+00 0. -1.
         -2   -1    0    0    0  501 -0.00000000000E+00 -0.00000000000E+00 -0.12928233592E+04  0.12928233592E+04  0.00000000000E+00 0.  1.
         23    2    1    2    0    0 -0.13231056878E+04  0.65989481122E+03  0.18288113082E+04  0.23533811034E+04  0.88215608867E+02 0.  0.
         13    1    3    3    0    0 -0.12010113493E+04  0.60142766323E+03  0.16183239774E+04  0.21031205365E+04  0.00000000000E+00 0. -1.
        -13    1    3    3    0    0 -0.12209433849E+03  0.58467147997E+02  0.21048733088E+03  0.25026056690E+03  0.00000000000E+00 0.  1.
         22    1    1    2    0    0  0.13231056878E+04 -0.65989481122E+03 -0.50021623106E+03  0.15608606923E+04  0.00000000000E+00 0.  1.
<mgrwt>
<rscale>  0 0.36818642E+04</rscale>
<asrwt>0</asrwt>
<pdfrwt beam="1">  1        2 0.40329514E+00 0.36818642E+04</pdfrwt>
<pdfrwt beam="2">  1       -2 0.19889590E+00 0.36818642E+04</pdfrwt>
<totfact> 0.32362608E-01</totfact>
</mgrwt>
</event>
<event>
 6    1  0.1603085E-006  0.6898652E+03  0.7818608E-02  0.9734723E-01
         -1   -1    0    0    0  501 -0.00000000000E+00  0.00000000000E+00  0.64660008721E+02  0.64660008721E+02  0.00000000000E+00 0.  1.
          1   -1    0    0  501    0  0.00000000000E+00 -0.00000000000E+00 -0.18400629370E+04  0.18400629370E+04  0.00000000000E+00 0. -1.
         23    2    1    2    0    0  0.12345581687E+03  0.20060073414E+03 -0.15763878413E+04  0.15963579054E+04  0.88757774559E+02 0.  0.
         13    1    3    3    0    0  0.11073044204E+02  0.43152361946E+02 -0.55696532452E+03  0.55874422715E+03  0.00000000000E+00 0. -1.
        -13    1    3    3    0    0  0.11238277267E+03  0.15744837220E+03 -0.10194225168E+04  0.10376136783E+04  0.00000000000E+00 0.  1.
         22    1    1    2    0    0 -0.12345581687E+03 -0.20060073414E+03 -0.19901508691E+03  0.30836504029E+03  0.00000000000E+00 0.  1.
<mgrwt>
<rscale>  0 0.68986516E+03</rscale>
<asrwt>0</asrwt>
<pdfrwt beam="1">  1        1 0.28308661E+00 0.68986516E+03</pdfrwt>
<pdfrwt beam="2">  1       -1 0.99476934E-02 0.68986516E+03</pdfrwt>
<totfact> 0.25081846E+02</totfact>
</mgrwt>
</event>
<event>
 6    1  0.1603085E-006  0.1288807E+04  0.7818608E-02  0.9038489E-01
          2   -1    0    0  501    0  0.00000000000E+00  0.00000000000E+00  0.14035165865E+04  0.14035165865E+04  0.00000000000E+00 0. -1.
         -2   -1    0    0    0  501 -0.00000000000E+00 -0.00000000000E+00 -0.29586794385E+03  0.29586794385E+03  0.00000000000E+00 0.  1.
         23    2    1    2    0    0 -0.50494373781E+02  0.42909100770E+03 -0.66426271779E+02  0.44833669779E+03  0.99622137722E+02 0.  0.
         13    1    3    3    0    0 -0.27659549097E+02  0.30066981487E+03  0.47347415195E-01  0.30193938211E+03  0.00000000000E+00 0. -1.
        -13    1    3    3    0    0 -0.22834824685E+02  0.12842119284E+03 -0.66473619195E+02  0.14639731567E+03  0.00000000000E+00 0.  1.
         22    1    1    2    0    0  0.50494373781E+02 -0.42909100770E+03  0.11740749144E+04  0.12510478325E+04  0.00000000000E+00 0. -1.
<mgrwt>
<rscale>  0 0.12888065E+04</rscale>
<asrwt>0</asrwt>
<pdfrwt beam="1">  1        2 0.21592562E+00 0.12888065E+04</pdfrwt>
<pdfrwt beam="2">  1       -2 0.45518146E-01 0.12888065E+04</pdfrwt>
<totfact> 0.64641918E+01</totfact>
</mgrwt>
</event>
<event>
 6    1  0.1603085E-006  0.7019119E+03  0.7818608E-02  0.9713968E-01
         -2   -1    0    0    0  501 -0.00000000000E+00  0.00000000000E+00  0.98089851530E+02  0.98089851530E+02  0.00000000000E+00 0.  1.
          2   -1    0    0  501    0  0.00000000000E+00 -0.00000000000E+00 -0.12556862587E+04  0.12556862587E+04  0.00000000000E+00 0. -1.
         23    2    1    2    0    0 -0.10691579665E+03  0.24389966187E+03 -0.10113868530E+04  0.10499747502E+04  0.92873984527E+02 0.  0.
         13    1    3    3    0    0 -0.25231633318E+02  0.15939213189E+03 -0.50644066853E+03  0.53153046739E+03  0.00000000000E+00 0.  1.
        -13    1    3    3    0    0 -0.81684163331E+02  0.84507529981E+02 -0.50494618442E+03  0.51844428276E+03  0.00000000000E+00 0. -1.
         22    1    1    2    0    0  0.10691579665E+03 -0.24389966187E+03 -0.14620955419E+03  0.30380136005E+03  0.00000000000E+00 0.  1.
<mgrwt>
<rscale>  0 0.70191190E+03</rscale>
<asrwt>0</asrwt>
<pdfrwt beam="1">  1        2 0.19318251E+00 0.70191190E+03</pdfrwt>
<pdfrwt beam="2">  1       -2 0.15090746E-01 0.70191190E+03</pdfrwt>
<totfact> 0.61492119E+02</totfact>
</mgrwt>
</event>
<event>
 6    1  0.1603085E-006  0.1422117E+04  0.7818608E-02  0.8937963E-01
          1   -1    0    0  501    0  0.00000000000E+00  0.00000000000E+00  0.12658925664E+04  0.12658925664E+04  0.00000000000E+00 0. -1.
         -1   -1    0    0    0  501 -0.00000000000E+00 -0.00000000000E+00 -0.39940552782E+03  0.39940552782E+03  0.00000000000E+00 0.  1.
         23    2    1    2    0    0 -0.30368604921E+03 -0.51559239531E+02 -0.30843609066E+03  0.45066731440E+03  0.11438808758E+03 0.  0.
         11    1    3    3    0    0 -0.16029170534E+03 -0.21187784613E+02 -0.23880726517E+03  0.28839428377E+03  0.00000000000E+00 0.  1.
        -11    1    3    3    0    0 -0.14339434388E+03 -0.30371454918E+02 -0.69628825494E+02  0.16227303063E+03  0.00000000000E+00 0. -1.
         22    1    1    2    0    0  0.30368604921E+03  0.51559239531E+02  0.11749231292E+04  0.12146307798E+04  0.00000000000E+00 0. -1.
<mgrwt>
<rscale>  0 0.14221174E+04</rscale>
<asrwt>0</asrwt>
<pdfrwt beam="1">  1        1 0.19475270E+00 0.14221174E+04</pdfrwt>
<pdfrwt beam="2">  1       -1 0.61447005E-01 0.14221174E+04</pdfrwt>
<totfact> 0.25023003E+01</totfact>
</mgrwt>
</event>
<event>
 6    1  0.1603085E-006  0.2736690E+04  0.7818608E-02  0.8323198E-01
          1   -1    0    0  501    0  0.00000000000E+00  0.00000000000E+00  0.27575523381E+04  0.27575523381E+04  0.00000000000E+00 0. -1.
         -1   -1    0    0    0  501 -0.00000000000E+00 -0.00000000000E+00 -0.67899644758E+03  0.67899644758E+03  0.00000000000E+00 0.  1.
         23    2    1    2    0    0  0.88944893523E+03 -0.12651252910E+03 -0.25297774673E+03  0.93791437263E+03  0.92524600126E+02 0.  0.
         11    1    3    3    0    0  0.28035622455E+03 -0.21566225053E+02 -0.11990871094E+03  0.30568417307E+03  0.00000000000E+00 0.  1.
        -11    1    3    3    0    0  0.60909271069E+03 -0.10494630405E+03 -0.13306903579E+03  0.63223019956E+03  0.00000000000E+00 0. -1.
         22    1    1    2    0    0 -0.88944893523E+03  0.12651252910E+03  0.23315336373E+04  0.24986344131E+04  0.00000000000E+00 0. -1.
<mgrwt>
<rscale>  0 0.27366901E+04</rscale>
<asrwt>0</asrwt>
<pdfrwt beam="1">  1        1 0.42423881E+00 0.27366901E+04</pdfrwt>
<pdfrwt beam="2">  1       -1 0.10446099E+00 0.27366901E+04</pdfrwt>
<totfact> 0.66972271E-01</totfact>
</mgrwt>
</event>
<event>
 6    1  0.1603085E-006  0.2125154E+04  0.7818608E-02  0.8550243E-01
          2   -1    0    0  501    0  0.00000000000E+00  0.00000000000E+00  0.83143804296E+03  0.83143804296E+03  0.00000000000E+00 0. -1.
         -2   -1    0    0    0  501 -0.00000000000E+00 -0.00000000000E+00 -0.13579718000E+04  0.13579718000E+04  0.00000000000E+00 0.  1.
         23    2    1    2    0    0 -0.64691388172E+03 -0.80935851807E+03 -0.30254373801E+02  0.10405617210E+04  0.91074622959E+02 0.  0.
         11    1    3    3    0    0 -0.21765242854E+03 -0.22131745294E+03 -0.35987399727E+02  0.31248853990E+03  0.00000000000E+00 0. -1.
        -11    1    3    3    0    0 -0.42926145318E+03 -0.58804106512E+03  0.57330259255E+01  0.72807318110E+03  0.00000000000E+00 0.  1.
         22    1    1    2    0    0  0.64691388172E+03  0.80935851807E+03 -0.49627938324E+03  0.11488481220E+04  0.00000000000E+00 0. -1.
<mgrwt>
<rscale>  0 0.21251536E+04</rscale>
<asrwt>0</asrwt>
<pdfrwt beam="1">  1        2 0.12791355E+00 0.21251536E+04</pdfrwt>
<pdfrwt beam="2">  1       -2 0.20891874E+00 0.21251536E+04</pdfrwt>
<totfact> 0.34985727E+00</totfact>
</mgrwt>
</event>
<event>
 6    1  0.1603085E-006  0.4741749E+04  0.7818608E-02  0.7869628E-01
         -2   -1    0    0    0  501 -0.00000000000E+00  0.00000000000E+00  0.21476594095E+04  0.21476594095E+04  0.00000000000E+00 0.  1.
          2   -1    0    0  501    0  0.00000000000E+00 -0.00000000000E+00 -0.26172896465E+04  0.26172896465E+04  0.00000000000E+00 0. -1.
         23    2    1    2    0    0  0.84927017455E+02 -0.23385504238E+04 -0.61237113196E+03  0.24205076202E+04  0.88476285088E+02 0.  0.
         13    1    3    3    0    0  0.18853166304E+01 -0.43390025496E+03 -0.81228577639E+02  0.44144203187E+03  0.00000000000E+00 0.  1.
        -13    1    3    3    0    0  0.83041700825E+02 -0.19046501688E+04 -0.53114255432E+03  0.19790655883E+04  0.00000000000E+00 0. -1.
         22    1    1    2    0    0 -0.84927017455E+02  0.23385504238E+04  0.14274089498E+03  0.23444414358E+04  0.00000000000E+00 0.  1.
<mgrwt>
<rscale>  0 0.47417494E+04</rscale>
<asrwt>0</asrwt>
<pdfrwt beam="1">  1        2 0.40265994E+00 0.47417494E+04</pdfrwt>
<pdfrwt beam="2">  1       -2 0.33040914E+00 0.47417494E+04</pdfrwt>
<totfact> 0.45587430E-02</totfact>
</mgrwt>
</event>
<event>
 6    1  0.1603085E-006  0.2656564E+03  0.7818608E-02  0.1103792E+00
          1   -1    0    0  501    0  0.00000000000E+00  0.00000000000E+00  0.18798801191E+04  0.18798801191E+04  0.00000000000E+00 0. -1.
         -1   -1    0    0    0  501 -0.00000000000E+00 -0.00000000000E+00 -0.93853518821E+01  0.93853518821E+01  0.00000000000E+00 0.  1.
         23    2    1    2    0    0 -0.41866327409E+02 -0.84502784378E+02  0.15323083861E+04  0.15381763964E+04  0.95520292581E+02 0.  0.
         11    1    3    3    0    0 -0.64235819292E+02 -0.39395644388E+02  0.11648256145E+04  0.11672604548E+04  0.00000000000E+00 0.  1.
        -11    1    3    3    0    0  0.22369491883E+02 -0.45107139990E+02  0.36748277166E+03  0.37091594158E+03  0.00000000000E+00 0. -1.
         22    1    1    2    0    0  0.41866327409E+02  0.84502784378E+02  0.33818638107E+03  0.35108907457E+03  0.00000000000E+00 0.  1.
<mgrwt>
<rscale>  0 0.26565644E+03</rscale>
<asrwt>0</asrwt>
<pdfrwt beam="1">  1        1 0.28921203E+00 0.26565644E+03</pdfrwt>
<pdfrwt beam="2">  1       -1 0.14439018E-02 0.26565644E+03</pdfrwt>
<totfact> 0.44540065E+03</totfact>
</mgrwt>
</event>
<event>
 6    1  0.1603085E-006  0.2584599E+04  0.7818608E-02  0.8373451E-01
         -1   -1    0    0    0  501 -0.00000000000E+00  0.00000000000E+00  0.75638181051E+03  0.75638181051E+03  0.00000000000E+00 0.  1.
          1   -1    0    0  501    0  0.00000000000E+00 -0.00000000000E+00 -0.22079300622E+04  0.22079300622E+04  0.00000000000E+00 0. -1.
         23    2    1    2    0    0 -0.71224991174E+03  0.92902495899E+03 -0.13501191129E+04  0.17892905191E+04  0.91387261280E+02 0.  0.
         11    1    3    3    0    0 -0.16616033804E+03  0.21474822664E+03 -0.25652436071E+03  0.37353822619E+03  0.00000000000E+00 0. -1.
        -11    1    3    3    0    0 -0.54608957370E+03  0.71427673235E+03 -0.10935947522E+04  0.14157522929E+04  0.00000000000E+00 0.  1.
         22    1    1    2    0    0  0.71224991174E+03 -0.92902495899E+03 -0.10142913875E+03  0.11750213536E+04  0.00000000000E+00 0.  1.
<mgrwt>
<rscale>  0 0.25845991E+04</rscale>
<asrwt>0</asrwt>
<pdfrwt beam="1">  1        1 0.33968154E+00 0.25845991E+04</pdfrwt>
<pdfrwt beam="2">  1       -1 0.11636643E+00 0.25845991E+04</pdfrwt>
<totfact> 0.12655824E+00</totfact>
</mgrwt>
</event>
<event>
 6    1  0.1603085E-006  0.4565565E+04  0.7818608E-02  0.7899258E-01
          2   -1    0    0  501    0  0.00000000000E+00  0.00000000000E+00  0.21370369650E+04  0.21370369650E+04  0.00000000000E+00 0. -1.
         -2   -1    0    0    0  501 -0.00000000000E+00 -0.00000000000E+00 -0.24384679189E+04  0.24384679189E+04  0.00000000000E+00 0.  1.
         23    2    1    2    0    0  0.18864623664E+04 -0.77678556522E+03  0.87359742980E+03  0.22211837978E+04  0.91372426914E+02 0.  0.
         11    1    3    3    0    0  0.39508397634E+03 -0.19760412513E+03  0.16816367006E+03  0.47267087763E+03  0.00000000000E+00 0.  1.
        -11    1    3    3    0    0  0.14913783900E+04 -0.57918144008E+03  0.70543375974E+03  0.17485129202E+04  0.00000000000E+00 0. -1.
         22    1    1    2    0    0 -0.18864623664E+04  0.77678556522E+03 -0.11750283837E+04  0.23543210861E+04  0.00000000000E+00 0.  1.
<mgrwt>
<rscale>  0 0.45655651E+04</rscale>
<asrwt>0</asrwt>
<pdfrwt beam="1">  1        2 0.32877492E+00 0.45655651E+04</pdfrwt>
<pdfrwt beam="2">  1       -2 0.37514891E+00 0.45655651E+04</pdfrwt>
<totfact> 0.45430415E-02</totfact>
</mgrwt>
</event>
<event>
 6    1  0.1603085E-006  0.1947361E+04  0.7818608E-02  0.8631634E-01
          1   -1    0    0  501    0  0.00000000000E+00  0.00000000000E+00  0.23897351762E+04  0.23897351762E+04  0.00000000000E+00 0. -1.
         -1   -1    0    0    0  501 -0.00000000000E+00 -0.00000000000E+00 -0.39671934153E+03  0.39671934153E+03  0.00000000000E+00 0.  1.
         23    2    1    2    0    0 -0.93589550408E+02 -0.72933945235E+03  0.90633584605E+02  0.74690719882E+03  0.94661905183E+02 0.  0.
         11    1    3    3    0    0 -0.67024459094E+02 -0.26480231145E+03  0.15351711957E+01  0.27315727890E+03  0.00000000000E+00 0.  1.
        -11    1    3    3    0    0 -0.26565091314E+02 -0.46453714091E+03  0.89098413409E+02  0.47374991993E+03  0.00000000000E+00 0. -1.
         22    1    1    2    0    0  0.93589550408E+02  0.72933945235E+03  0.19023822500E+04  0.20395473189E+04  0.00000000000E+00 0. -1.
<mgrwt>
<rscale>  0 0.19473615E+04</rscale>
<asrwt>0</asrwt>
<pdfrwt beam="1">  1        1 0.36765156E+00 0.19473615E+04</pdfrwt>
<pdfrwt beam="2">  1       -1 0.61033746E-01 0.19473615E+04</pdfrwt>
<totfact> 0.40984007E+00</totfact>
</mgrwt>
</event>
<event>
 6    1  0.1603085E-006  0.1707519E+04  0.7818608E-02  0.8757088E-01
         -1   -1    0    0    0  501 -0.00000000000E+00  0.00000000000E+00  0.66649264590E+03  0.66649264590E+03  0.00000000000E+00 0.  1.
          1   -1    0    0  501    0  0.00000000000E+00 -0.00000000000E+00 -0.10936432688E+04  0.10936432688E+04  0.00000000000E+00 0. -1.
         23    2    1    2    0    0  0.70582720711E+02 -0.50626231740E+03 -0.91583508653E+03  0.10529612831E+04  0.93220725044E+02 0.  0.
         13    1    3    3    0    0  0.86664202914E+02 -0.37032454432E+03 -0.62707467109E+03  0.73339866056E+03  0.00000000000E+00 0.  1.
        -13    1    3    3    0    0 -0.16081482203E+02 -0.13593777308E+03 -0.28876041544E+03  0.31956262257E+03  0.00000000000E+00 0. -1.
         22    1    1    2    0    0 -0.70582720711E+02  0.50626231740E+03  0.48868446365E+03  0.70717463154E+03  0.00000000000E+00 0.  1.
<mgrwt>
<rscale>  0 0.17075189E+04</rscale>
<asrwt>0</asrwt>
<pdfrwt beam="1">  1        1 0.16825281E+00 0.17075189E+04</pdfrwt>
<pdfrwt beam="2">  1       -1 0.10253733E+00 0.17075189E+04</pdfrwt>
<totfact> 0.10969856E+01</totfact>
</mgrwt>
</event>
<event>
 6    1  0.1603085E-006  0.3482432E+04  0.7818608E-02  0.8117966E-01
         -1   -1    0    0    0  501 -0.00000000000E+00  0.00000000000E+00  0.20954018843E+04  0.20954018843E+04  0.00000000000E+00 0.  1.
          1   -1    0    0  501    0  0.00000000000E+00 -0.00000000000E+00 -0.14468979647E+04  0.14468979647E+04  0.00000000000E+00 0. -1.
         23    2    1    2    0    0  0.57203113241E+03 -0.62979453225E+03 -0.12194138058E+04  0.14897459769E+04  0.92262000414E+02 0.  0.
         11    1    3    3    0    0  0.19984412198E+03 -0.15858166810E+03 -0.37838948663E+03  0.45635996991E+03  0.00000000000E+00 0. -1.
        -11    1    3    3    0    0  0.37218701043E+03 -0.47121286415E+03 -0.84102431912E+03  0.10333860070E+04  0.00000000000E+00 0.  1.
         22    1    1    2    0    0 -0.57203113241E+03  0.62979453225E+03  0.18679177254E+04  0.20525538721E+04  0.00000000000E+00 0.  1.
<mgrwt>
<rscale>  0 0.34824317E+04</rscale>
<asrwt>0</asrwt>
<pdfrwt beam="1">  1        1 0.22259969E+00 0.34824317E+04</pdfrwt>
<pdfrwt beam="2">  1       -1 0.32236952E+00 0.34824317E+04</pdfrwt>
<totfact> 0.13741548E-01</totfact>
</mgrwt>
</event>
<event>
 6    1  0.1603085E-006  0.7065489E+03  0.7818608E-02  0.9706098E-01
          2   -1    0    0  501    0  0.00000000000E+00  0.00000000000E+00  0.54292110475E+03  0.54292110475E+03  0.00000000000E+00 0. -1.
         -2   -1    0    0    0  501 -0.00000000000E+00 -0.00000000000E+00 -0.22987286621E+03  0.22987286621E+03  0.00000000000E+00 0.  1.
         23    2    1    2    0    0  0.73495277357E+02 -0.16369146254E+03  0.48454106200E+03  0.52458792913E+03  0.90642175180E+02 0.  0.
         11    1    3    3    0    0  0.75765412748E+02 -0.60617424177E+02  0.21021978051E+03  0.23153234331E+03  0.00000000000E+00 0. -1.
        -11    1    3    3    0    0 -0.22701353904E+01 -0.10307403836E+03  0.27432128149E+03  0.29305558582E+03  0.00000000000E+00 0.  1.
         22    1    1    2    0    0 -0.73495277357E+02  0.16369146254E+03 -0.17149282346E+03  0.24820604183E+03  0.00000000000E+00 0.  1.
<mgrwt>
<rscale>  0 0.70654888E+03</rscale>
<asrwt>0</asrwt>
<pdfrwt beam="1">  1        2 0.83526323E-01 0.70654888E+03</pdfrwt>
<pdfrwt beam="2">  1       -2 0.35365056E-01 0.70654888E+03</pdfrwt>
<totfact> 0.42279381E+02</totfact>
</mgrwt>
</event>
<event>
 6    1  0.1603085E-006  0.3023250E+04  0.7818608E-02  0.8237123E-01
         -1   -1    0    0    0  501 -0.00000000000E+00  0.00000000000E+00  0.12210731389E+04  0.12210731389E+04  0.00000000000E+00 0.  1.
          1   -1    0    0  501    0  0.00000000000E+00 -0.00000000000E+00 -0.18713126592E+04  0.18713126592E+04  0.00000000000E+00 0. -1.
         23    2    1    2    0    0  0.93027982620E+03  0.70460408457E+03 -0.13059208926E+04  0.17538023928E+04  0.92227893282E+02 0.  0.
         13    1    3    3    0    0  0.27024542585E+03  0.24427276939E+03 -0.36451979905E+03  0.51534111029E+03  0.00000000000E+00 0. -1.
        -13    1    3    3    0    0  0.66003440036E+03  0.46033131518E+03 -0.94140109351E+03  0.12384612825E+04  0.00000000000E+00 0.  1.
         22    1    1    2    0    0 -0.93027982620E+03 -0.70460408457E+03  0.65568137220E+03  0.13385834053E+04  0.00000000000E+00 0.  1.
<mgrwt>
<rscale>  0 0.30232497E+04</rscale>
<asrwt>0</asrwt>
<pdfrwt beam="1">  1        1 0.28789425E+00 0.30232497E+04</pdfrwt>
<pdfrwt beam="2">  1       -1 0.18785741E+00 0.30232497E+04</pdfrwt>
<totfact> 0.56624389E-01</totfact>
</mgrwt>
</event>
<event>
 6    1  0.1603085E-006  0.7232241E+03  0.7818608E-02  0.9678320E-01
          1   -1    0    0  501    0  0.00000000000E+00  0.00000000000E+00  0.27705714456E+04  0.27705714456E+04  0.00000000000E+00 0. -1.
         -1   -1    0    0    0  501 -0.00000000000E+00 -0.00000000000E+00 -0.47197228011E+02  0.47197228011E+02  0.00000000000E+00 0.  1.
         23    2    1    2    0    0 -0.19474969007E+03 -0.27372638346E+03  0.92599231630E+03  0.98926237779E+03  0.91239834915E+02 0.  0.
         13    1    3    3    0    0 -0.99007636598E+02 -0.80883590200E+02  0.42885480987E+03  0.44750543596E+03  0.00000000000E+00 0. -1.
        -13    1    3    3    0    0 -0.95742053472E+02 -0.19284279326E+03  0.49713750643E+03  0.54175694182E+03  0.00000000000E+00 0.  1.
         22    1    1    2    0    0  0.19474969007E+03  0.27372638346E+03  0.17973819013E+04  0.18285062958E+04  0.00000000000E+00 0. -1.
<mgrwt>
<rscale>  0 0.72322415E+03</rscale>
<asrwt>0</asrwt>
<pdfrwt beam="1">  1        1 0.42624163E+00 0.72322415E+03</pdfrwt>
<pdfrwt beam="2">  1       -1 0.72611142E-02 0.72322415E+03</pdfrwt>
<totfact> 0.96130616E+01</totfact>
</mgrwt>
</event>
<event>
 6    1  0.1603085E-006  0.3765525E+04  0.7818608E-02  0.8053594E-01
         -1   -1    0    0    0  501 -0.00000000000E+00  0.00000000000E+00  0.17145485569E+04  0.17145485569E+04  0.00000000000E+00 0.  1.
          1   -1    0    0  501    0  0.00000000000E+00 -0.00000000000E+00 -0.20674794467E+04  0.20674794467E+04  0.00000000000E+00 0. -1.
         23    2    1    2    0    0 -0.97139240799E+03  0.88868088726E+03  0.11737486062E+04  0.17660649054E+04  0.89120873155E+02 0.  0.
         11    1    3    3    0    0 -0.10126535713E+03  0.11370082942E+03  0.16911879665E+03  0.22756036242E+03  0.00000000000E+00 0.  1.
        -11    1    3    3    0    0 -0.87012705086E+03  0.77498005785E+03  0.10046298095E+04  0.15385045430E+04  0.00000000000E+00 0. -1.
         22    1    1    2    0    0  0.97139240799E+03 -0.88868088726E+03 -0.15266794959E+04  0.20159630981E+04  0.00000000000E+00 0. -1.
<mgrwt>
<rscale>  0 0.37655246E+04</rscale>
<asrwt>0</asrwt>
<pdfrwt beam="1">  1        1 0.31807376E+00 0.37655246E+04</pdfrwt>
<pdfrwt beam="2">  1       -1 0.26377670E+00 0.37655246E+04</pdfrwt>
<totfact> 0.12134466E-01</totfact>
</mgrwt>
</event>
<event>
 6    1  0.1927517E-006  0.4021849E+04  0.7818608E-02  0.8000153E-01
         -2   -1    0    0    0  501 -0.00000000000E+00  0.00000000000E+00  0.11325054752E+04  0.11325054752E+04  0.00000000000E+00 0.  1.
          2   -1    0    0  501    0  0.00000000000E+00 -0.00000000000E+00 -0.35706820490E+04  0.35706820490E+04  0.00000000000E+00 0. -1.
         23    2    1    2    0    0  0.11226332315E+04  0.14850947536E+04 -0.21056299479E+04  0.28120505492E+04  0.90216486111E+02 0.  0.
         11    1    3    3    0    0  0.52470389824E+03  0.68636126996E+03 -0.90981307166E+03  0.12546576422E+04  0.00000000000E+00 0.  1.
        -11    1    3    3    0    0  0.59792933328E+03  0.79873348366E+03 -0.11958168762E+04  0.15573929070E+04  0.00000000000E+00 0. -1.
         22    1    1    2    0    0 -0.11226332315E+04 -0.14850947536E+04 -0.33254662595E+03  0.18911369750E+04  0.00000000000E+00 0.  1.
<mgrwt>
<rscale>  0 0.40218488E+04</rscale>
<asrwt>0</asrwt>
<pdfrwt beam="1">  1        2 0.54933568E+00 0.40218488E+04</pdfrwt>
<pdfrwt beam="2">  1       -2 0.17423162E+00 0.40218488E+04</pdfrwt>
<totfact> 0.11328705E-01</totfact>
</mgrwt>
</event>
<event>
 6    1  0.1603085E-006  0.1743022E+04  0.7818608E-02  0.8737201E-01
         -1   -1    0    0    0  501 -0.00000000000E+00  0.00000000000E+00  0.75178656030E+03  0.75178656030E+03  0.00000000000E+00 0.  1.
          1   -1    0    0  501    0  0.00000000000E+00 -0.00000000000E+00 -0.10103019794E+04  0.10103019794E+04  0.00000000000E+00 0. -1.
         23    2    1    2    0    0  0.39614176508E+03  0.46879402595E+03 -0.75162402953E+03  0.97478158652E+03  0.92543626683E+02 0.  0.
         13    1    3    3    0    0  0.39083057475E+02  0.87027133636E+02 -0.15030535530E+03  0.17802501848E+03  0.00000000000E+00 0.  1.
        -13    1    3    3    0    0  0.35705870761E+03  0.38176689232E+03 -0.60131867422E+03  0.79675656804E+03  0.00000000000E+00 0. -1.
         22    1    1    2    0    0 -0.39614176508E+03 -0.46879402595E+03  0.49310861045E+03  0.78730695317E+03  0.00000000000E+00 0.  1.
<mgrwt>
<rscale>  0 0.17430220E+04</rscale>
<asrwt>0</asrwt>
<pdfrwt beam="1">  1        1 0.15543107E+00 0.17430220E+04</pdfrwt>
<pdfrwt beam="2">  1       -1 0.11565947E+00 0.17430220E+04</pdfrwt>
<totfact> 0.95366828E+00</totfact>
</mgrwt>
</event>
<event>
 6    1  0.1603085E-006  0.3976901E+04  0.7818608E-02  0.8009223E-01
          2   -1    0    0  501    0  0.00000000000E+00  0.00000000000E+00  0.48301673136E+04  0.48301673136E+04  0.00000000000E+00 0. -1.
         -2   -1    0    0    0  501 -0.00000000000E+00 -0.00000000000E+00 -0.81859176854E+03  0.81859176854E+03  0.00000000000E+00 0.  1.
         23    2    1    2    0    0 -0.14747587738E+04  0.12762842448E+04  0.14639870798E+04  0.24403292633E+04  0.90187742169E+02 0.  0.
         13    1    3    3    0    0 -0.11560220157E+04  0.10395900736E+04  0.11921353772E+04  0.19591633877E+04  0.00000000000E+00 0.  1.
        -13    1    3    3    0    0 -0.31873675808E+03  0.23669417120E+03  0.27185170260E+03  0.48116587560E+03  0.00000000000E+00 0. -1.
         22    1    1    2    0    0  0.14747587738E+04 -0.12762842448E+04  0.25475884652E+04  0.32084298188E+04  0.00000000000E+00 0. -1.
<mgrwt>
<rscale>  0 0.39769009E+04</rscale>
<asrwt>0</asrwt>
<pdfrwt beam="1">  1        2 0.74310265E+00 0.39769009E+04</pdfrwt>
<pdfrwt beam="2">  1       -2 0.12593720E+00 0.39769009E+04</pdfrwt>
<totfact> 0.20248517E-02</totfact>
</mgrwt>
</event>
<event>
 6    1  0.1603085E-006  0.2915588E+04  0.7818608E-02  0.8268255E-01
          2   -1    0    0  501    0  0.00000000000E+00  0.00000000000E+00  0.28169874275E+04  0.28169874275E+04  0.00000000000E+00 0. -1.
         -2   -1    0    0    0  501 -0.00000000000E+00 -0.00000000000E+00 -0.75440995343E+03  0.75440995343E+03  0.00000000000E+00 0.  1.
         23    2    1    2    0    0  0.15374738473E+03  0.42857109607E+03  0.27267268371E+04  0.27661608820E+04  0.96412332373E+02 0.  0.
         13    1    3    3    0    0  0.77548145837E+02  0.21449687505E+03  0.16523016164E+04  0.16679698006E+04  0.00000000000E+00 0. -1.
        -13    1    3    3    0    0  0.76199238894E+02  0.21407422102E+03  0.10744252208E+04  0.10981910813E+04  0.00000000000E+00 0.  1.
         22    1    1    2    0    0 -0.15374738473E+03 -0.42857109607E+03 -0.66414936310E+03  0.80523649893E+03  0.00000000000E+00 0.  1.
<mgrwt>
<rscale>  0 0.29155880E+04</rscale>
<asrwt>0</asrwt>
<pdfrwt beam="1">  1        2 0.43338267E+00 0.29155880E+04</pdfrwt>
<pdfrwt beam="2">  1       -2 0.11606307E+00 0.29155880E+04</pdfrwt>
<totfact> 0.11217132E+00</totfact>
</mgrwt>
</event>
<event>
 6    1  0.1603085E-006  0.2143804E+04  0.7818608E-02  0.8542189E-01
          1   -1    0    0  501    0  0.00000000000E+00  0.00000000000E+00  0.86329839904E+03  0.86329839904E+03  0.00000000000E+00 0. -1.
         -1   -1    0    0    0  501 -0.00000000000E+00 -0.00000000000E+00 -0.13309121157E+04  0.13309121157E+04  0.00000000000E+00 0.  1.
         23    2    1    2    0    0  0.53578791511E+03 -0.60438008229E+03 -0.95232431895E+03  0.12522506739E+04  0.94160331069E+02 0.  0.
         13    1    3    3    0    0  0.14857648148E+03 -0.23450447688E+03 -0.31816439411E+03  0.42225099432E+03  0.00000000000E+00 0.  1.
        -13    1    3    3    0    0  0.38721143363E+03 -0.36987560541E+03 -0.63415992484E+03  0.82999967957E+03  0.00000000000E+00 0. -1.
         22    1    1    2    0    0 -0.53578791511E+03  0.60438008229E+03  0.48471060227E+03  0.94195984087E+03  0.00000000000E+00 0. -1.
<mgrwt>
<rscale>  0 0.21438044E+04</rscale>
<asrwt>0</asrwt>
<pdfrwt beam="1">  1        1 0.13281514E+00 0.21438044E+04</pdfrwt>
<pdfrwt beam="2">  1       -1 0.20475571E+00 0.21438044E+04</pdfrwt>
<totfact> 0.24959911E+00</totfact>
</mgrwt>
</event>
<event>
 6    1  0.1603085E-006  0.1429035E+04  0.7818608E-02  0.8933066E-01
         -2   -1    0    0    0  501 -0.00000000000E+00  0.00000000000E+00  0.46533207250E+03  0.46533207250E+03  0.00000000000E+00 0.  1.
          2   -1    0    0  501    0  0.00000000000E+00 -0.00000000000E+00 -0.10971412347E+04  0.10971412347E+04  0.00000000000E+00 0. -1.
         23    2    1    2    0    0  0.31590728350E+03 -0.39928200844E+03 -0.86079680218E+03  0.10042091464E+04  0.90781832119E+02 0.  0.
         11    1    3    3    0    0  0.93229791965E+02 -0.61419971194E+02 -0.21115324754E+03  0.23885121084E+03  0.00000000000E+00 0. -1.
        -11    1    3    3    0    0  0.22267749154E+03 -0.33786203725E+03 -0.64964355463E+03  0.76535793556E+03  0.00000000000E+00 0.  1.
         22    1    1    2    0    0 -0.31590728350E+03  0.39928200844E+03  0.22898763993E+03  0.55826416084E+03  0.00000000000E+00 0.  1.
<mgrwt>
<rscale>  0 0.14290346E+04</rscale>
<asrwt>0</asrwt>
<pdfrwt beam="1">  1        2 0.16879096E+00 0.14290346E+04</pdfrwt>
<pdfrwt beam="2">  1       -2 0.71589551E-01 0.14290346E+04</pdfrwt>
<totfact> 0.37604966E+01</totfact>
</mgrwt>
</event>
<event>
 6    1  0.1603085E-006  0.2270738E+04  0.7818608E-02  0.8489549E-01
          1   -1    0    0  501    0  0.00000000000E+00  0.00000000000E+00  0.39962161989E+04  0.39962161989E+04  0.00000000000E+00 0. -1.
         -1   -1    0    0    0  501 -0.00000000000E+00 -0.00000000000E+00 -0.32257087316E+03  0.32257087316E+03  0.00000000000E+00 0.  1.
         23    2    1    2    0    0  0.93775530479E+03 -0.48025434521E+03  0.10445550431E+04  0.14864479395E+04  0.91667829319E+02 0.  0.
         11    1    3    3    0    0  0.31454881540E+03 -0.11399096634E+03  0.31983001265E+03  0.46284569207E+03  0.00000000000E+00 0. -1.
        -11    1    3    3    0    0  0.62320648939E+03 -0.36626337887E+03  0.72472503049E+03  0.10236022474E+04  0.00000000000E+00 0.  1.
         22    1    1    2    0    0 -0.93775530479E+03  0.48025434521E+03  0.26290902826E+04  0.28323391326E+04  0.00000000000E+00 0. -1.
<mgrwt>
<rscale>  0 0.22707382E+04</rscale>
<asrwt>0</asrwt>
<pdfrwt beam="1">  1        1 0.61480246E+00 0.22707382E+04</pdfrwt>
<pdfrwt beam="2">  1       -1 0.49626291E-01 0.22707382E+04</pdfrwt>
<totfact> 0.35845401E-01</totfact>
</mgrwt>
</event>
<event>
 6    1  0.1603085E-006  0.9497623E+03  0.7818608E-02  0.9365428E-01
         -2   -1    0    0    0  501 -0.00000000000E+00  0.00000000000E+00  0.14559920836E+03  0.14559920836E+03  0.00000000000E+00 0.  1.
          2   -1    0    0  501    0  0.00000000000E+00 -0.00000000000E+00 -0.15488552606E+04  0.15488552606E+04  0.00000000000E+00 0. -1.
         23    2    1    2    0    0  0.17908962655E+03  0.33475640453E+03 -0.12042063604E+04  0.12657870868E+04  0.89269512955E+02 0.  0.
         13    1    3    3    0    0  0.55174358974E+02  0.40126099470E+02 -0.26690925926E+03  0.27549022928E+03  0.00000000000E+00 0. -1.
        -13    1    3    3    0    0  0.12391526757E+03  0.29463030506E+03 -0.93729710111E+03  0.99029685749E+03  0.00000000000E+00 0.  1.
         22    1    1    2    0    0 -0.17908962655E+03 -0.33475640453E+03 -0.19904969184E+03  0.42866738216E+03  0.00000000000E+00 0.  1.
<mgrwt>
<rscale>  0 0.94976229E+03</rscale>
<asrwt>0</asrwt>
<pdfrwt beam="1">  1        2 0.23828543E+00 0.94976229E+03</pdfrwt>
<pdfrwt beam="2">  1       -2 0.22399878E-01 0.94976229E+03</pdfrwt>
<totfact> 0.20840038E+02</totfact>
</mgrwt>
</event>
<event>
 6    1  0.1603085E-006  0.2250195E+04  0.7818608E-02  0.8497822E-01
          1   -1    0    0  501    0  0.00000000000E+00  0.00000000000E+00  0.12179415800E+04  0.12179415800E+04  0.00000000000E+00 0. -1.
         -1   -1    0    0    0  501 -0.00000000000E+00 -0.00000000000E+00 -0.10393308444E+04  0.10393308444E+04  0.00000000000E+00 0.  1.
         23    2    1    2    0    0  0.25328410538E+03 -0.34582547613E+03  0.11317656011E+04  0.12121636762E+04  0.68551470803E+02 0.  0.
         11    1    3    3    0    0  0.16423997914E+03 -0.27199678066E+03  0.85927384295E+03  0.91613784804E+03  0.00000000000E+00 0.  1.
        -11    1    3    3    0    0  0.89044126234E+02 -0.73828695470E+02  0.27249175817E+03  0.29602582820E+03  0.00000000000E+00 0. -1.
         22    1    1    2    0    0 -0.25328410538E+03  0.34582547613E+03 -0.95315486544E+03  0.10451087482E+04  0.00000000000E+00 0.  1.
<mgrwt>
<rscale>  0 0.22501949E+04</rscale>
<asrwt>0</asrwt>
<pdfrwt beam="1">  1        1 0.18737563E+00 0.22501949E+04</pdfrwt>
<pdfrwt beam="2">  1       -1 0.15989705E+00 0.22501949E+04</pdfrwt>
<totfact> 0.27556415E+00</totfact>
</mgrwt>
</event>
<event>
 6    1  0.1603085E-006  0.2065725E+04  0.7818608E-02  0.8576494E-01
         -2   -1    0    0    0  501 -0.00000000000E+00  0.00000000000E+00  0.14409358631E+04  0.14409358631E+04  0.00000000000E+00 0.  1.
          2   -1    0    0  501    0  0.00000000000E+00 -0.00000000000E+00 -0.74035554769E+03  0.74035554769E+03  0.00000000000E+00 0. -1.
         23    2    1    2    0    0  0.78103484188E+02 -0.38423707028E+03  0.13576761069E+04  0.14161030944E+04  0.91242985183E+02 0.  0.
         11    1    3    3    0    0  0.69308274132E+02 -0.28912775290E+03  0.11448340401E+04  0.11828116814E+04  0.00000000000E+00 0. -1.
        -11    1    3    3    0    0  0.87952100558E+01 -0.95109317379E+02  0.21284206682E+03  0.23329141300E+03  0.00000000000E+00 0.  1.
         22    1    1    2    0    0 -0.78103484188E+02  0.38423707028E+03 -0.65709579145E+03  0.76518831641E+03  0.00000000000E+00 0. -1.
<mgrwt>
<rscale>  0 0.20657249E+04</rscale>
<asrwt>0</asrwt>
<pdfrwt beam="1">  1        2 0.11390085E+00 0.20657249E+04</pdfrwt>
<pdfrwt beam="2">  1       -2 0.22168244E+00 0.20657249E+04</pdfrwt>
<totfact> 0.33970629E+00</totfact>
</mgrwt>
</event>
<event>
 6    1  0.1603085E-006  0.1954363E+04  0.7818608E-02  0.8628260E-01
         -2   -1    0    0    0  501 -0.00000000000E+00  0.00000000000E+00  0.58966941714E+03  0.58966941714E+03  0.00000000000E+00 0.  1.
          2   -1    0    0  501    0  0.00000000000E+00 -0.00000000000E+00 -0.16193548733E+04  0.16193548733E+04  0.00000000000E+00 0. -1.
         23    2    1    2    0    0  0.43145605240E+03 -0.81703672398E+03 -0.16302561251E+03  0.94221624732E+03  0.86549251218E+02 0.  0.
         13    1    3    3    0    0  0.25338133848E+03 -0.39369397142E+03 -0.98508576157E+02  0.47843597837E+03  0.00000000000E+00 0.  1.
        -13    1    3    3    0    0  0.17807471392E+03 -0.42334275256E+03 -0.64517036350E+02  0.46378026895E+03  0.00000000000E+00 0. -1.
         22    1    1    2    0    0 -0.43145605240E+03  0.81703672398E+03 -0.86665984361E+03  0.12668080431E+04  0.00000000000E+00 0. -1.
<mgrwt>
<rscale>  0 0.19543634E+04</rscale>
<asrwt>0</asrwt>
<pdfrwt beam="1">  1        2 0.24913152E+00 0.19543634E+04</pdfrwt>
<pdfrwt beam="2">  1       -2 0.90718372E-01 0.19543634E+04</pdfrwt>
<totfact> 0.10524109E+01</totfact>
</mgrwt>
</event>
<event>
 6    1  0.1603085E-006  0.3367656E+04  0.7818608E-02  0.8145890E-01
          1   -1    0    0  501    0  0.00000000000E+00  0.00000000000E+00  0.14134105447E+04  0.14134105447E+04  0.00000000000E+00 0. -1.
         -1   -1    0    0    0  501 -0.00000000000E+00 -0.00000000000E+00 -0.20059828436E+04  0.20059828436E+04  0.00000000000E+00 0.  1.
         23    2    1    2    0    0 -0.16332143750E+04  0.22888643160E+03 -0.63569641159E+03  0.17696546568E+04  0.88258051067E+02 0.  0.
         13    1    3    3    0    0 -0.38692521239E+03  0.25571122948E+02 -0.12342380666E+03  0.40693788022E+03  0.00000000000E+00 0. -1.
        -13    1    3    3    0    0 -0.12462891626E+04  0.20331530865E+03 -0.51227260494E+03  0.13627167766E+04  0.00000000000E+00 0.  1.
         22    1    1    2    0    0  0.16332143750E+04 -0.22888643160E+03  0.43124112735E+02  0.16497387315E+04  0.00000000000E+00 0. -1.
<mgrwt>
<rscale>  0 0.33676563E+04</rscale>
<asrwt>0</asrwt>
<pdfrwt beam="1">  1        1 0.21744778E+00 0.33676563E+04</pdfrwt>
<pdfrwt beam="2">  1       -1 0.30861274E+00 0.33676563E+04</pdfrwt>
<totfact> 0.18002744E-01</totfact>
</mgrwt>
</event>
<event>
 6    1  0.1603085E-006  0.1810423E+04  0.7818608E-02  0.8700776E-01
          1   -1    0    0  501    0  0.00000000000E+00  0.00000000000E+00  0.11683597965E+04  0.11683597965E+04  0.00000000000E+00 0. -1.
         -1   -1    0    0    0  501 -0.00000000000E+00 -0.00000000000E+00 -0.70133180864E+03  0.70133180864E+03  0.00000000000E+00 0.  1.
         23    2    1    2    0    0  0.18331791874E+03 -0.66931385881E+02 -0.67631511118E+03  0.70981285637E+03  0.91361325042E+02 0.  0.
         11    1    3    3    0    0  0.77106151002E+02 -0.40666419635E+02 -0.16175504777E+03  0.18374931752E+03  0.00000000000E+00 0.  1.
        -11    1    3    3    0    0  0.10621176773E+03 -0.26264966247E+02 -0.51456006341E+03  0.52606353885E+03  0.00000000000E+00 0. -1.
         22    1    1    2    0    0 -0.18331791874E+03  0.66931385881E+02  0.11433430990E+04  0.11598787487E+04  0.00000000000E+00 0. -1.
<mgrwt>
<rscale>  0 0.18104230E+04</rscale>
<asrwt>0</asrwt>
<pdfrwt beam="1">  1        1 0.17974766E+00 0.18104230E+04</pdfrwt>
<pdfrwt beam="2">  1       -1 0.10789720E+00 0.18104230E+04</pdfrwt>
<totfact> 0.84907351E+00</totfact>
</mgrwt>
</event>
<event>
 6    1  0.1603085E-006  0.3137037E+04  0.7818608E-02  0.8205646E-01
          1   -1    0    0  501    0  0.00000000000E+00  0.00000000000E+00  0.18570360295E+04  0.18570360295E+04  0.00000000000E+00 0. -1.
         -1   -1    0    0    0  501 -0.00000000000E+00 -0.00000000000E+00 -0.13248260041E+04  0.13248260041E+04  0.00000000000E+00 0.  1.
         23    2    1    2    0    0 -0.10746282788E+04  0.11052879639E+04  0.55273901242E+03  0.16401393412E+04  0.89717456670E+02 0.  0.
         13    1    3    3    0    0 -0.40713569300E+03  0.48189509791E+03  0.22867612151E+03  0.67102542907E+03  0.00000000000E+00 0.  1.
        -13    1    3    3    0    0 -0.66749258582E+03  0.62339286597E+03  0.32406289091E+03  0.96911391215E+03  0.00000000000E+00 0. -1.
         22    1    1    2    0    0  0.10746282788E+04 -0.11052879639E+04 -0.20528987004E+02  0.15417226923E+04  0.00000000000E+00 0.  1.
<mgrwt>
<rscale>  0 0.31370366E+04</rscale>
<asrwt>0</asrwt>
<pdfrwt beam="1">  1        1 0.28569785E+00 0.31370366E+04</pdfrwt>
<pdfrwt beam="2">  1       -1 0.20381938E+00 0.31370366E+04</pdfrwt>
<totfact> 0.44405271E-01</totfact>
</mgrwt>
</event>
<event>
 6    1  0.1603085E-006  0.1461070E+04  0.7818608E-02  0.8910762E-01
         -3   -1    0    0    0  501 -0.00000000000E+00  0.00000000000E+00  0.48781270221E+03  0.48781270221E+03  0.00000000000E+00 0.  1.
          3   -1    0    0  501    0  0.00000000000E+00 -0.00000000000E+00 -0.10940288309E+04  0.10940288309E+04  0.00000000000E+00 0. -1.
         23    2    1    2    0    0  0.40851764823E+03  0.21278515617E+03  0.30558173298E+03  0.56030370603E+03  0.91628903019E+02 0.  0.
         11    1    3    3    0    0  0.33769102951E+03  0.14204584396E+03  0.21198723574E+03  0.42326214255E+03  0.00000000000E+00 0. -1.
        -11    1    3    3    0    0  0.70826618723E+02  0.70739312203E+02  0.93594497232E+02  0.13704156349E+03  0.00000000000E+00 0.  1.
         22    1    1    2    0    0 -0.40851764823E+03 -0.21278515617E+03 -0.91179786167E+03  0.10215378271E+04  0.00000000000E+00 0. -1.
<mgrwt>
<rscale>  0 0.14610697E+04</rscale>
<asrwt>0</asrwt>
<pdfrwt beam="1">  1        3 0.16831213E+00 0.14610697E+04</pdfrwt>
<pdfrwt beam="2">  1       -3 0.75048109E-01 0.14610697E+04</pdfrwt>
<totfact> 0.10148629E+00</totfact>
</mgrwt>
</event>
<event>
 6    1  0.1603085E-006  0.1727645E+04  0.7818608E-02  0.8745752E-01
          1   -1    0    0  501    0  0.00000000000E+00  0.00000000000E+00  0.70699581143E+03  0.70699581143E+03  0.00000000000E+00 0. -1.
         -1   -1    0    0    0  501 -0.00000000000E+00 -0.00000000000E+00 -0.10554371532E+04  0.10554371532E+04  0.00000000000E+00 0.  1.
         23    2    1    2    0    0 -0.56851592143E+03 -0.26952725824E+03  0.42537436124E+03  0.76511353831E+03  0.92736634888E+02 0.  0.
         13    1    3    3    0    0 -0.34006800441E+03 -0.11548482671E+03  0.26477856733E+03  0.44619578947E+03  0.00000000000E+00 0. -1.
        -13    1    3    3    0    0 -0.22844791702E+03 -0.15404243154E+03  0.16059579392E+03  0.31891774884E+03  0.00000000000E+00 0.  1.
         22    1    1    2    0    0  0.56851592143E+03  0.26952725824E+03 -0.77381570301E+03  0.99731942630E+03  0.00000000000E+00 0.  1.
<mgrwt>
<rscale>  0 0.17276454E+04</rscale>
<asrwt>0</asrwt>
<pdfrwt beam="1">  1        1 0.10876859E+00 0.17276454E+04</pdfrwt>
<pdfrwt beam="2">  1       -1 0.16237495E+00 0.17276454E+04</pdfrwt>
<totfact> 0.71437463E+00</totfact>
</mgrwt>
</event>
<event>
 6    1  0.1603085E-006  0.2034661E+04  0.7818608E-02  0.8590585E-01
          2   -1    0    0  501    0  0.00000000000E+00  0.00000000000E+00  0.37597064857E+04  0.37597064857E+04  0.00000000000E+00 0. -1.
         -2   -1    0    0    0  501 -0.00000000000E+00 -0.00000000000E+00 -0.27527712323E+03  0.27527712323E+03  0.00000000000E+00 0.  1.
         23    2    1    2    0    0  0.45958149961E+03  0.87596458187E+03  0.21999073153E+04  0.24137106544E+04  0.88757104995E+02 0.  0.
         11    1    3    3    0    0  0.13687961689E+02  0.33365770068E+02  0.47501163735E+02  0.59640552174E+02  0.00000000000E+00 0. -1.
        -11    1    3    3    0    0  0.44589353792E+03  0.84259881181E+03  0.21524061516E+04  0.23540701022E+04  0.00000000000E+00 0.  1.
         22    1    1    2    0    0 -0.45958149961E+03 -0.87596458187E+03  0.12845220471E+04  0.16212729545E+04  0.00000000000E+00 0.  1.
<mgrwt>
<rscale>  0 0.20346608E+04</rscale>
<asrwt>0</asrwt>
<pdfrwt beam="1">  1        2 0.57841635E+00 0.20346608E+04</pdfrwt>
<pdfrwt beam="2">  1       -2 0.42350329E-01 0.20346608E+04</pdfrwt>
<totfact> 0.25988367E+00</totfact>
</mgrwt>
</event>
<event>
 6    1  0.1603085E-006  0.1321627E+04  0.7818608E-02  0.9012588E-01
         -1   -1    0    0    0  501 -0.00000000000E+00  0.00000000000E+00  0.57824336341E+03  0.57824336341E+03  0.00000000000E+00 0.  1.
          1   -1    0    0  501    0  0.00000000000E+00 -0.00000000000E+00 -0.75517466881E+03  0.75517466881E+03  0.00000000000E+00 0. -1.
         23    2    1    2    0    0 -0.65380337164E+01  0.49069608831E+03  0.35284690515E+03  0.61127514515E+03  0.91274134564E+02 0.  0.
         11    1    3    3    0    0  0.30807659329E+02  0.38124060155E+03  0.28705402005E+03  0.47821911147E+03  0.00000000000E+00 0.  1.
        -11    1    3    3    0    0 -0.37345693045E+02  0.10945548676E+03  0.65792885097E+02  0.13305603369E+03  0.00000000000E+00 0. -1.
         22    1    1    2    0    0  0.65380337164E+01 -0.49069608831E+03 -0.52977821054E+03  0.72214288706E+03  0.00000000000E+00 0. -1.
<mgrwt>
<rscale>  0 0.13216274E+04</rscale>
<asrwt>0</asrwt>
<pdfrwt beam="1">  1        1 0.11618072E+00 0.13216274E+04</pdfrwt>
<pdfrwt beam="2">  1       -1 0.88960518E-01 0.13216274E+04</pdfrwt>
<totfact> 0.29469806E+01</totfact>
</mgrwt>
</event>
<event>
 6    1  0.1603085E-006  0.1735122E+04  0.7818608E-02  0.8741583E-01
          2   -1    0    0  501    0  0.00000000000E+00  0.00000000000E+00  0.16943902300E+04  0.16943902300E+04  0.00000000000E+00 0.  1.
         -2   -1    0    0    0  501 -0.00000000000E+00 -0.00000000000E+00 -0.44420832851E+03  0.44420832851E+03  0.00000000000E+00 0. -1.
         23    2    1    2    0    0  0.43936634884E+03  0.74299077791E+03  0.55829635516E+03  0.10323509850E+04  0.94739915431E+02 0.  0.
         13    1    3    3    0    0  0.19918038899E+03  0.42280719904E+03  0.32180170690E+03  0.56744611505E+03  0.00000000000E+00 0. -1.
        -13    1    3    3    0    0  0.24018595985E+03  0.32018357888E+03  0.23649464825E+03  0.46490487000E+03  0.00000000000E+00 0.  1.
         22    1    1    2    0    0 -0.43936634884E+03 -0.74299077791E+03  0.69188554630E+03  0.11062475734E+04  0.00000000000E+00 0.  1.
<mgrwt>
<rscale>  0 0.17351222E+04</rscale>
<asrwt>0</asrwt>
<pdfrwt beam="1">  1        2 0.26067542E+00 0.17351222E+04</pdfrwt>
<pdfrwt beam="2">  1       -2 0.68339744E-01 0.17351222E+04</pdfrwt>
<totfact> 0.18358685E+01</totfact>
</mgrwt>
</event>
<event>
 6    1  0.1603085E-006  0.1971794E+04  0.7818608E-02  0.8619923E-01
          1   -1    0    0  501    0  0.00000000000E+00  0.00000000000E+00  0.22898530746E+04  0.22898530746E+04  0.00000000000E+00 0. -1.
         -1   -1    0    0    0  501 -0.00000000000E+00 -0.00000000000E+00 -0.42447833138E+03  0.42447833138E+03  0.00000000000E+00 0.  1.
         23    2    1    2    0    0 -0.59108890004E+03  0.44801163028E+03  0.18244034022E+04  0.19715130167E+04  0.91188225849E+02 0.  0.
         11    1    3    3    0    0 -0.49013246066E+03  0.40664179297E+03  0.15139853435E+04  0.16424795271E+04  0.00000000000E+00 0. -1.
        -11    1    3    3    0    0 -0.10095643939E+03  0.41369837307E+02  0.31041805873E+03  0.32903348960E+03  0.00000000000E+00 0.  1.
         22    1    1    2    0    0  0.59108890004E+03 -0.44801163028E+03  0.40971341008E+02  0.74281838925E+03  0.00000000000E+00 0.  1.
<mgrwt>
<rscale>  0 0.19717941E+04</rscale>
<asrwt>0</asrwt>
<pdfrwt beam="1">  1        1 0.35228508E+00 0.19717941E+04</pdfrwt>
<pdfrwt beam="2">  1       -1 0.65304360E-01 0.19717941E+04</pdfrwt>
<totfact> 0.41813464E+00</totfact>
</mgrwt>
</event>
<event>
 6    1  0.1603085E-006  0.2461690E+04  0.7818608E-02  0.8416762E-01
          1   -1    0    0  501    0  0.00000000000E+00  0.00000000000E+00  0.14382683569E+04  0.14382683569E+04  0.00000000000E+00 0. -1.
         -1   -1    0    0    0  501 -0.00000000000E+00 -0.00000000000E+00 -0.10533359858E+04  0.10533359858E+04  0.00000000000E+00 0.  1.
         23    2    1    2    0    0  0.62544418923E+03  0.41565181155E+03  0.11776173864E+04  0.13996810873E+04  0.91529094486E+02 0.  0.
         13    1    3    3    0    0  0.71562403329E+02  0.32730637804E+02  0.17565980605E+03  0.19248075146E+03  0.00000000000E+00 0.  1.
        -13    1    3    3    0    0  0.55388178590E+03  0.38292117374E+03  0.10019575803E+04  0.12072003358E+04  0.00000000000E+00 0. -1.
         22    1    1    2    0    0 -0.62544418923E+03 -0.41565181155E+03 -0.79268501526E+03  0.10919232554E+04  0.00000000000E+00 0.  1.
<mgrwt>
<rscale>  0 0.24616903E+04</rscale>
<asrwt>0</asrwt>
<pdfrwt beam="1">  1        1 0.22127205E+00 0.24616903E+04</pdfrwt>
<pdfrwt beam="2">  1       -1 0.16205169E+00 0.24616903E+04</pdfrwt>
<totfact> 0.18154837E+00</totfact>
</mgrwt>
</event>
<event>
 6    1  0.1603085E-006  0.3335767E+04  0.7818608E-02  0.8153854E-01
         -1   -1    0    0    0  501 -0.00000000000E+00  0.00000000000E+00  0.98340381797E+03  0.98340381797E+03  0.00000000000E+00 0.  1.
          1   -1    0    0  501    0  0.00000000000E+00 -0.00000000000E+00 -0.28287831937E+04  0.28287831937E+04  0.00000000000E+00 0. -1.
         23    2    1    2    0    0 -0.10181957446E+04  0.11966670604E+04 -0.28974943764E+03  0.16011422062E+04  0.10472344572E+03 0.  0.
         13    1    3    3    0    0 -0.87642732593E+03  0.10488265421E+04 -0.21784622184E+03  0.13840588678E+04  0.00000000000E+00 0.  1.
        -13    1    3    3    0    0 -0.14176841866E+03  0.14784051824E+03 -0.71903215802E+02  0.21708333839E+03  0.00000000000E+00 0. -1.
         22    1    1    2    0    0  0.10181957446E+04 -0.11966670604E+04 -0.15556299381E+04  0.22110448055E+04  0.00000000000E+00 0.  1.
<mgrwt>
<rscale>  0 0.33357675E+04</rscale>
<asrwt>0</asrwt>
<pdfrwt beam="1">  1        1 0.43519741E+00 0.33357675E+04</pdfrwt>
<pdfrwt beam="2">  1       -1 0.15129290E+00 0.33357675E+04</pdfrwt>
<totfact> 0.22398018E-01</totfact>
</mgrwt>
</event>
<event>
 6    1  0.1603085E-006  0.3077563E+04  0.7818608E-02  0.8221923E-01
          2   -1    0    0  501    0  0.00000000000E+00  0.00000000000E+00  0.11103571786E+04  0.11103571786E+04  0.00000000000E+00 0. -1.
         -2   -1    0    0    0  501 -0.00000000000E+00 -0.00000000000E+00 -0.21325111150E+04  0.21325111150E+04  0.00000000000E+00 0.  1.
         23    2    1    2    0    0 -0.10312732774E+04 -0.80454118873E+03 -0.13628806795E+04  0.18912374969E+04  0.92327818886E+02 0.  0.
         13    1    3    3    0    0 -0.11951190724E+03 -0.11740642077E+03 -0.14093334717E+03  0.21892823471E+03  0.00000000000E+00 0.  1.
        -13    1    3    3    0    0 -0.91176137012E+03 -0.68713476796E+03 -0.12219473324E+04  0.16723092622E+04  0.00000000000E+00 0. -1.
         22    1    1    2    0    0  0.10312732774E+04  0.80454118873E+03  0.34072674312E+03  0.13516307966E+04  0.00000000000E+00 0. -1.
<mgrwt>
<rscale>  0 0.30775633E+04</rscale>
<asrwt>0</asrwt>
<pdfrwt beam="1">  1        2 0.17082418E+00 0.30775633E+04</pdfrwt>
<pdfrwt beam="2">  1       -2 0.32807863E+00 0.30775633E+04</pdfrwt>
<totfact> 0.38955021E-01</totfact>
</mgrwt>
</event>
<event>
 6    1  0.1603085E-006  0.2025469E+04  0.7818608E-02  0.8594805E-01
         -2   -1    0    0    0  501 -0.00000000000E+00  0.00000000000E+00  0.36223217090E+03  0.36223217090E+03  0.00000000000E+00 0.  1.
          2   -1    0    0  501    0  0.00000000000E+00 -0.00000000000E+00 -0.28314188146E+04  0.28314188146E+04  0.00000000000E+00 0. -1.
         23    2    1    2    0    0  0.83096948966E+03  0.56925090047E+03 -0.13681646361E+04  0.17014022322E+04  0.91313766110E+02 0.  0.
         11    1    3    3    0    0  0.50876210239E+03  0.33622822578E+03 -0.75391454927E+03  0.96967801060E+03  0.00000000000E+00 0.  1.
        -11    1    3    3    0    0  0.32220738727E+03  0.23302267468E+03 -0.61425008678E+03  0.73172422158E+03  0.00000000000E+00 0. -1.
         22    1    1    2    0    0 -0.83096948966E+03 -0.56925090047E+03 -0.11010220076E+04  0.14922487533E+04  0.00000000000E+00 0. -1.
<mgrwt>
<rscale>  0 0.20254688E+04</rscale>
<asrwt>0</asrwt>
<pdfrwt beam="1">  1        2 0.43560291E+00 0.20254688E+04</pdfrwt>
<pdfrwt beam="2">  1       -2 0.55728025E-01 0.20254688E+04</pdfrwt>
<totfact> 0.62159204E+00</totfact>
</mgrwt>
</event>
<event>
 6    1  0.1603085E-006  0.1483402E+04  0.7818608E-02  0.8895566E-01
         -1   -1    0    0    0  501 -0.00000000000E+00  0.00000000000E+00  0.12238706446E+04  0.12238706446E+04  0.00000000000E+00 0.  1.
          1   -1    0    0  501    0  0.00000000000E+00 -0.00000000000E+00 -0.44949212236E+03  0.44949212236E+03  0.00000000000E+00 0. -1.
         23    2    1    2    0    0  0.49807790323E+03 -0.14045889147E+03  0.98352494917E+03  0.11151938626E+04  0.92334866678E+02 0.  0.
         13    1    3    3    0    0  0.36096381329E+01 -0.13828365073E+02  0.39614450573E+02  0.42113630362E+02  0.00000000000E+00 0.  1.
        -13    1    3    3    0    0  0.49446826510E+03 -0.12663052640E+03  0.94391049860E+03  0.10730802322E+04  0.00000000000E+00 0. -1.
         22    1    1    2    0    0 -0.49807790323E+03  0.14045889147E+03 -0.20914642695E+03  0.55816890436E+03  0.00000000000E+00 0. -1.
<mgrwt>
<rscale>  0 0.14834018E+04</rscale>
<asrwt>0</asrwt>
<pdfrwt beam="1">  1        1 0.69152635E-01 0.14834018E+04</pdfrwt>
<pdfrwt beam="2">  1       -1 0.18828779E+00 0.14834018E+04</pdfrwt>
<totfact> 0.90229632E+00</totfact>
</mgrwt>
</event>
<event>
 6    1  0.1603085E-006  0.2356226E+04  0.7818608E-02  0.8456076E-01
         -2   -1    0    0    0  501 -0.00000000000E+00  0.00000000000E+00  0.34028194027E+03  0.34028194027E+03  0.00000000000E+00 0.  1.
          2   -1    0    0  501    0  0.00000000000E+00 -0.00000000000E+00 -0.40788231371E+04  0.40788231371E+04  0.00000000000E+00 0. -1.
         23    2    1    2    0    0 -0.35320130279E+03  0.81822336417E+03 -0.33118548224E+04  0.34310251737E+04  0.96492196838E+02 0.  0.
         13    1    3    3    0    0 -0.98770792459E+02  0.25320701484E+03 -0.85075694423E+03  0.89311636418E+03  0.00000000000E+00 0. -1.
        -13    1    3    3    0    0 -0.25443051033E+03  0.56501634933E+03 -0.24610978781E+04  0.25379088095E+04  0.00000000000E+00 0.  1.
         22    1    1    2    0    0  0.35320130279E+03 -0.81822336417E+03 -0.42668637450E+03  0.98807990373E+03  0.00000000000E+00 0.  1.
<mgrwt>
<rscale>  0 0.23562257E+04</rscale>
<asrwt>0</asrwt>
<pdfrwt beam="1">  1        2 0.62751124E+00 0.23562257E+04</pdfrwt>
<pdfrwt beam="2">  1       -2 0.52351069E-01 0.23562257E+04</pdfrwt>
<totfact> 0.92121599E-01</totfact>
</mgrwt>
</event>
<event>
 6    1  0.1603085E-006  0.3704908E+04  0.7818608E-02  0.8066875E-01
         -1   -1    0    0    0  501 -0.00000000000E+00  0.00000000000E+00  0.16910985899E+04  0.16910985899E+04  0.00000000000E+00 0.  1.
          1   -1    0    0  501    0  0.00000000000E+00 -0.00000000000E+00 -0.20292050436E+04  0.20292050436E+04  0.00000000000E+00 0. -1.
         23    2    1    2    0    0  0.17246308424E+04 -0.82500101857E+01 -0.84509357233E+03  0.19226786604E+04  0.89947094731E+02 0.  0.
         13    1    3    3    0    0  0.96200391964E+03 -0.48259767274E+02 -0.48190227377E+03  0.10770377654E+04  0.00000000000E+00 0. -1.
        -13    1    3    3    0    0  0.76262692279E+03  0.40009757088E+02 -0.36319129856E+03  0.84564089505E+03  0.00000000000E+00 0.  1.
         22    1    1    2    0    0 -0.17246308424E+04  0.82500101857E+01  0.50698711867E+03  0.17976249731E+04  0.00000000000E+00 0.  1.
<mgrwt>
<rscale>  0 0.37049080E+04</rscale>
<asrwt>0</asrwt>
<pdfrwt beam="1">  1        1 0.31218539E+00 0.37049080E+04</pdfrwt>
<pdfrwt beam="2">  1       -1 0.26016901E+00 0.37049080E+04</pdfrwt>
<totfact> 0.13666375E-01</totfact>
</mgrwt>
</event>
<event>
 6    1  0.1603085E-006  0.3408612E+04  0.7818608E-02  0.8135796E-01
         -1   -1    0    0    0  501 -0.00000000000E+00  0.00000000000E+00  0.15422100403E+04  0.15422100403E+04  0.00000000000E+00 0.  1.
          1   -1    0    0  501    0  0.00000000000E+00 -0.00000000000E+00 -0.18834388051E+04  0.18834388051E+04  0.00000000000E+00 0. -1.
         23    2    1    2    0    0 -0.65261268753E+03 -0.18499882923E+03  0.13993087012E+04  0.15576021229E+04  0.89059784571E+02 0.  0.
         11    1    3    3    0    0 -0.22434960473E+03 -0.45563973185E+02  0.38737888420E+03  0.44996802188E+03  0.00000000000E+00 0. -1.
        -11    1    3    3    0    0 -0.42826308280E+03 -0.13943485605E+03  0.10119298170E+04  0.11076341010E+04  0.00000000000E+00 0.  1.
         22    1    1    2    0    0  0.65261268753E+03  0.18499882923E+03 -0.17405374660E+04  0.18680467225E+04  0.00000000000E+00 0. -1.
<mgrwt>
<rscale>  0 0.34086116E+04</rscale>
<asrwt>0</asrwt>
<pdfrwt beam="1">  1        1 0.28975982E+00 0.34086116E+04</pdfrwt>
<pdfrwt beam="2">  1       -1 0.23726308E+00 0.34086116E+04</pdfrwt>
<totfact> 0.24842164E-01</totfact>
</mgrwt>
</event>
<event>
 6    1  0.1603085E-006  0.2684705E+04  0.7818608E-02  0.8339985E-01
         -1   -1    0    0    0  501 -0.00000000000E+00  0.00000000000E+00  0.68249938000E+03  0.68249938000E+03  0.00000000000E+00 0.  1.
          1   -1    0    0  501    0  0.00000000000E+00 -0.00000000000E+00 -0.26401629338E+04  0.26401629338E+04  0.00000000000E+00 0. -1.
         23    2    1    2    0    0 -0.34604462302E+03 -0.99074145628E+03 -0.20127889406E+04  0.22717796741E+04  0.91367684949E+02 0.  0.
         11    1    3    3    0    0 -0.33461031916E+03 -0.91560423175E+03 -0.19043859899E+04  0.21393880371E+04  0.00000000000E+00 0.  1.
        -11    1    3    3    0    0 -0.11434303859E+02 -0.75137224532E+02 -0.10840295074E+03  0.13239163699E+03  0.00000000000E+00 0. -1.
         22    1    1    2    0    0  0.34604462302E+03  0.99074145628E+03  0.55125386757E+02  0.10508826398E+04  0.00000000000E+00 0.  1.
<mgrwt>
<rscale>  0 0.26847045E+04</rscale>
<asrwt>0</asrwt>
<pdfrwt beam="1">  1        1 0.40617891E+00 0.26847045E+04</pdfrwt>
<pdfrwt beam="2">  1       -1 0.10499990E+00 0.26847045E+04</pdfrwt>
<totfact> 0.80454513E-01</totfact>
</mgrwt>
</event>
<event>
 6    1  0.1603085E-006  0.6328177E+03  0.7818608E-02  0.9839566E-01
         -2   -1    0    0    0  501 -0.00000000000E+00  0.00000000000E+00  0.46277927877E+03  0.46277927877E+03  0.00000000000E+00 0.  1.
          2   -1    0    0  501    0  0.00000000000E+00 -0.00000000000E+00 -0.21633327157E+03  0.21633327157E+03  0.00000000000E+00 0. -1.
         23    2    1    2    0    0 -0.24116718007E+03  0.10259873512E+02 -0.88528868317E+02  0.26622631786E+03  0.69081242372E+02 0.  0.
         13    1    3    3    0    0 -0.51721060709E+02  0.31065479855E+02 -0.17289269266E+02  0.62761859368E+02  0.00000000000E+00 0.  1.
        -13    1    3    3    0    0 -0.18944611936E+03 -0.20805606343E+02 -0.71239599052E+02  0.20346445849E+03  0.00000000000E+00 0. -1.
         22    1    1    2    0    0  0.24116718007E+03 -0.10259873512E+02  0.33497487551E+03  0.41288623248E+03  0.00000000000E+00 0.  1.
<mgrwt>
<rscale>  0 0.63281768E+03</rscale>
<asrwt>0</asrwt>
<pdfrwt beam="1">  1        2 0.33282042E-01 0.63281768E+03</pdfrwt>
<pdfrwt beam="2">  1       -2 0.71196812E-01 0.63281768E+03</pdfrwt>
<totfact> 0.28648120E+02</totfact>
</mgrwt>
</event>
<event>
 6    1  0.1603085E-006  0.1547355E+04  0.7818608E-02  0.8853559E-01
         -2   -1    0    0    0  501 -0.00000000000E+00  0.00000000000E+00  0.15252960667E+04  0.15252960667E+04  0.00000000000E+00 0.  1.
          2   -1    0    0  501    0  0.00000000000E+00 -0.00000000000E+00 -0.39243303887E+03  0.39243303887E+03  0.00000000000E+00 0. -1.
         23    2    1    2    0    0 -0.37764198045E+03  0.36167834115E+03 -0.13390609878E+03  0.54728074537E+03  0.90336499336E+02 0.  0.
         11    1    3    3    0    0 -0.14465558165E+03  0.19689829111E+03 -0.78134412324E+02  0.25651347087E+03  0.00000000000E+00 0. -1.
        -11    1    3    3    0    0 -0.23298639880E+03  0.16478005003E+03 -0.55771686455E+02  0.29076727451E+03  0.00000000000E+00 0.  1.
         22    1    1    2    0    0  0.37764198045E+03 -0.36167834115E+03  0.12667691266E+04  0.13704483602E+04  0.00000000000E+00 0.  1.
<mgrwt>
<rscale>  0 0.15473546E+04</rscale>
<asrwt>0</asrwt>
<pdfrwt beam="1">  1        2 0.60374314E-01 0.15473546E+04</pdfrwt>
<pdfrwt beam="2">  1       -2 0.23466093E+00 0.15473546E+04</pdfrwt>
<totfact> 0.62534863E+00</totfact>
</mgrwt>
</event>
<event>
 6    1  0.1603085E-006  0.2792823E+04  0.7818608E-02  0.8305500E-01
         -2   -1    0    0    0  501 -0.00000000000E+00  0.00000000000E+00  0.66686554547E+03  0.66686554547E+03  0.00000000000E+00 0. -1.
          2   -1    0    0  501    0  0.00000000000E+00 -0.00000000000E+00 -0.29240756714E+04  0.29240756714E+04  0.00000000000E+00 0.  1.
         23    2    1    2    0    0  0.26608302366E+03  0.12592046399E+04 -0.43592651717E+03  0.13608133093E+04  0.73378701303E+02 0.  0.
         11    1    3    3    0    0  0.95870309920E+02  0.39166062626E+03 -0.17005720424E+03  0.43761697316E+03  0.00000000000E+00 0.  1.
        -11    1    3    3    0    0  0.17021271374E+03  0.86754401363E+03 -0.26586931292E+03  0.92319633614E+03  0.00000000000E+00 0. -1.
         22    1    1    2    0    0 -0.26608302366E+03 -0.12592046399E+04 -0.18212836087E+04  0.22301279076E+04  0.00000000000E+00 0.  1.
<mgrwt>
<rscale>  0 0.27928232E+04</rscale>
<asrwt>0</asrwt>
<pdfrwt beam="1">  1        2 0.44985778E+00 0.27928232E+04</pdfrwt>
<pdfrwt beam="2">  1       -2 0.10259470E+00 0.27928232E+04</pdfrwt>
<totfact> 0.13130209E+00</totfact>
</mgrwt>
</event>
<event>
 6    1  0.1603085E-006  0.2256836E+04  0.7818608E-02  0.8495137E-01
          2   -1    0    0  501    0  0.00000000000E+00  0.00000000000E+00  0.11518932784E+04  0.11518932784E+04  0.00000000000E+00 0. -1.
         -2   -1    0    0    0  501 -0.00000000000E+00 -0.00000000000E+00 -0.11054207290E+04  0.11054207290E+04  0.00000000000E+00 0.  1.
         23    2    1    2    0    0 -0.64412792878E+03  0.65277217292E+03 -0.63129262347E+03  0.11169728620E+04  0.89920518240E+02 0.  0.
         13    1    3    3    0    0 -0.40869275809E+03  0.44633047970E+03 -0.37150877267E+03  0.71011226985E+03  0.00000000000E+00 0. -1.
        -13    1    3    3    0    0 -0.23543517069E+03  0.20644169322E+03 -0.25978385080E+03  0.40686059214E+03  0.00000000000E+00 0.  1.
         22    1    1    2    0    0  0.64412792878E+03 -0.65277217292E+03  0.67776517284E+03  0.11403411454E+04  0.00000000000E+00 0. -1.
<mgrwt>
<rscale>  0 0.22568356E+04</rscale>
<asrwt>0</asrwt>
<pdfrwt beam="1">  1        2 0.17721435E+00 0.22568356E+04</pdfrwt>
<pdfrwt beam="2">  1       -2 0.17006473E+00 0.22568356E+04</pdfrwt>
<totfact> 0.39222231E+00</totfact>
</mgrwt>
</event>
<event>
 6    1  0.1603085E-006  0.1415888E+04  0.7818608E-02  0.8942398E-01
         -1   -1    0    0    0  501 -0.00000000000E+00  0.00000000000E+00  0.35182173583E+03  0.35182173583E+03  0.00000000000E+00 0.  1.
          1   -1    0    0  501    0  0.00000000000E+00 -0.00000000000E+00 -0.14245411816E+04  0.14245411816E+04  0.00000000000E+00 0. -1.
         23    2    1    2    0    0  0.22186384899E+03 -0.24915068839E+03 -0.13176477745E+04  0.13624915374E+04  0.94275653326E+02 0.  0.
         11    1    3    3    0    0  0.20649497492E+03 -0.17595331371E+03 -0.99874961027E+03  0.10349398665E+04  0.00000000000E+00 0. -1.
        -11    1    3    3    0    0  0.15368874070E+02 -0.73197374688E+02 -0.31889816426E+03  0.32755167092E+03  0.00000000000E+00 0.  1.
         22    1    1    2    0    0 -0.22186384899E+03  0.24915068839E+03  0.24492832872E+03  0.41387138005E+03  0.00000000000E+00 0.  1.
<mgrwt>
<rscale>  0 0.14158878E+04</rscale>
<asrwt>0</asrwt>
<pdfrwt beam="1">  1        1 0.21916018E+00 0.14158878E+04</pdfrwt>
<pdfrwt beam="2">  1       -1 0.54126421E-01 0.14158878E+04</pdfrwt>
<totfact> 0.24781516E+01</totfact>
</mgrwt>
</event>
<event>
 6    1  0.1603085E-006  0.3611680E+04  0.7818608E-02  0.8087822E-01
          2   -1    0    0  501    0  0.00000000000E+00  0.00000000000E+00  0.24862711029E+04  0.24862711029E+04  0.00000000000E+00 0. -1.
         -2   -1    0    0    0  501 -0.00000000000E+00 -0.00000000000E+00 -0.13116259261E+04  0.13116259261E+04  0.00000000000E+00 0.  1.
         23    2    1    2    0    0 -0.14082689417E+04  0.49949504043E+03  0.16518796574E+04  0.22293086645E+04  0.91618838807E+02 0.  0.
         11    1    3    3    0    0 -0.20686973294E+03  0.10859425512E+03  0.25793128459E+03  0.34801773838E+03  0.00000000000E+00 0. -1.
        -11    1    3    3    0    0 -0.12013992087E+04  0.39090078531E+03  0.13939483728E+04  0.18812909261E+04  0.00000000000E+00 0.  1.
         22    1    1    2    0    0  0.14082689417E+04 -0.49949504043E+03 -0.47723448059E+03  0.15685883644E+04  0.00000000000E+00 0. -1.
<mgrwt>
<rscale>  0 0.36116797E+04</rscale>
<asrwt>0</asrwt>
<pdfrwt beam="1">  1        2 0.38250325E+00 0.36116797E+04</pdfrwt>
<pdfrwt beam="2">  1       -2 0.20178860E+00 0.36116797E+04</pdfrwt>
<totfact> 0.37370076E-01</totfact>
</mgrwt>
</event>
<event>
 6    1  0.1603085E-006  0.2401842E+04  0.7818608E-02  0.8438814E-01
         -2   -1    0    0    0  501 -0.00000000000E+00  0.00000000000E+00  0.10125092836E+04  0.10125092836E+04  0.00000000000E+00 0.  1.
          2   -1    0    0  501    0  0.00000000000E+00 -0.00000000000E+00 -0.14243936421E+04  0.14243936421E+04  0.00000000000E+00 0. -1.
         23    2    1    2    0    0 -0.46337881594E+03  0.19843702206E+03 -0.13102564049E+04  0.14067721027E+04  0.90214873915E+02 0.  0.
         11    1    3    3    0    0 -0.45403151813E+03  0.17836400539E+03 -0.12750890276E+04  0.13652144030E+04  0.00000000000E+00 0. -1.
        -11    1    3    3    0    0 -0.93472978113E+01  0.20073016677E+02 -0.35167377294E+02  0.41557699655E+02  0.00000000000E+00 0.  1.
         22    1    1    2    0    0  0.46337881594E+03 -0.19843702206E+03  0.89837204642E+03  0.10301308230E+04  0.00000000000E+00 0.  1.
<mgrwt>
<rscale>  0 0.24018424E+04</rscale>
<asrwt>0</asrwt>
<pdfrwt beam="1">  1        2 0.21913748E+00 0.24018424E+04</pdfrwt>
<pdfrwt beam="2">  1       -2 0.15577066E+00 0.24018424E+04</pdfrwt>
<totfact> 0.34133632E+00</totfact>
</mgrwt>
</event>
<event>
 6    1  0.1603085E-006  0.1894394E+04  0.7818608E-02  0.8657652E-01
          1   -1    0    0  501    0  0.00000000000E+00  0.00000000000E+00  0.15121803075E+04  0.15121803075E+04  0.00000000000E+00 0. -1.
         -1   -1    0    0    0  501 -0.00000000000E+00 -0.00000000000E+00 -0.59330366589E+03  0.59330366589E+03  0.00000000000E+00 0.  1.
         23    2    1    2    0    0 -0.21261758723E+03  0.79851521618E+03 -0.49384372770E+02  0.83254949713E+03  0.88696448807E+02 0.  0.
         11    1    3    3    0    0 -0.52063261762E+02  0.20931672518E+03 -0.51949056470E+02  0.22186207232E+03  0.00000000000E+00 0.  1.
        -11    1    3    3    0    0 -0.16055432547E+03  0.58919849100E+03  0.25646837003E+01  0.61068742482E+03  0.00000000000E+00 0. -1.
         22    1    1    2    0    0  0.21261758723E+03 -0.79851521618E+03  0.96826101436E+03  0.12729344762E+04  0.00000000000E+00 0. -1.
<mgrwt>
<rscale>  0 0.18943940E+04</rscale>
<asrwt>0</asrwt>
<pdfrwt beam="1">  1        1 0.23264312E+00 0.18943940E+04</pdfrwt>
<pdfrwt beam="2">  1       -1 0.91277488E-01 0.18943940E+04</pdfrwt>
<totfact> 0.70309160E+00</totfact>
</mgrwt>
</event>
<event>
 6    1  0.1603085E-006  0.3673839E+04  0.7818608E-02  0.8073784E-01
          2   -1    0    0  501    0  0.00000000000E+00  0.00000000000E+00  0.16073348567E+04  0.16073348567E+04  0.00000000000E+00 0.  1.
         -2   -1    0    0    0  501 -0.00000000000E+00 -0.00000000000E+00 -0.20992967861E+04  0.20992967861E+04  0.00000000000E+00 0. -1.
         23    2    1    2    0    0  0.10351692916E+04  0.11392720446E+04  0.76304521626E+03  0.17205402074E+04  0.92219029375E+02 0.  0.
         13    1    3    3    0    0  0.60297499345E+03  0.61078344660E+03  0.39266289504E+03  0.94383230000E+03  0.00000000000E+00 0. -1.
        -13    1    3    3    0    0  0.43219429810E+03  0.52848859804E+03  0.37038232122E+03  0.77670790741E+03  0.00000000000E+00 0.  1.
         22    1    1    2    0    0 -0.10351692916E+04 -0.11392720446E+04 -0.12550071457E+04  0.19860914354E+04  0.00000000000E+00 0. -1.
<mgrwt>
<rscale>  0 0.36738388E+04</rscale>
<asrwt>0</asrwt>
<pdfrwt beam="1">  1        2 0.24728229E+00 0.36738388E+04</pdfrwt>
<pdfrwt beam="2">  1       -2 0.32296874E+00 0.36738388E+04</pdfrwt>
<totfact> 0.20537468E-01</totfact>
</mgrwt>
</event>
<event>
 6    1  0.1603085E-006  0.5459607E+03  0.7818608E-02  0.1002433E+00
         -1   -1    0    0    0  501 -0.00000000000E+00  0.00000000000E+00  0.57114144021E+03  0.57114144021E+03  0.00000000000E+00 0.  1.
          1   -1    0    0  501    0  0.00000000000E+00 -0.00000000000E+00 -0.13047253066E+03  0.13047253066E+03  0.00000000000E+00 0. -1.
         23    2    1    2    0    0 -0.51027072351E+02  0.23265714946E+03  0.75767278513E+02  0.26585450552E+03  0.90580496289E+02 0.  0.
         13    1    3    3    0    0 -0.63588166938E+02  0.18371109434E+03  0.88714372690E+02  0.21369010524E+03  0.00000000000E+00 0.  1.
        -13    1    3    3    0    0  0.12561094587E+02  0.48946055119E+02 -0.12947094177E+02  0.52164400280E+02  0.00000000000E+00 0. -1.
         22    1    1    2    0    0  0.51027072351E+02 -0.23265714946E+03  0.36490163103E+03  0.43575946534E+03  0.00000000000E+00 0.  1.
<mgrwt>
<rscale>  0 0.54596069E+03</rscale>
<asrwt>0</asrwt>
<pdfrwt beam="1">  1        1 0.20072697E-01 0.54596069E+03</pdfrwt>
<pdfrwt beam="2">  1       -1 0.87867912E-01 0.54596069E+03</pdfrwt>
<totfact> 0.33774666E+02</totfact>
</mgrwt>
</event>
<event>
 6    1  0.1603085E-006  0.3402516E+04  0.7818608E-02  0.8137289E-01
          1   -1    0    0  501    0  0.00000000000E+00  0.00000000000E+00  0.21213748773E+04  0.21213748773E+04  0.00000000000E+00 0. -1.
         -1   -1    0    0    0  501 -0.00000000000E+00 -0.00000000000E+00 -0.13643406773E+04  0.13643406773E+04  0.00000000000E+00 0.  1.
         23    2    1    2    0    0  0.10629543293E+04  0.12233259165E+04  0.90500542808E+03  0.18583576688E+04  0.89778596409E+02 0.  0.
         11    1    3    3    0    0  0.42776014201E+03  0.52835428208E+03  0.33672947959E+03  0.75863280242E+03  0.00000000000E+00 0.  1.
        -11    1    3    3    0    0  0.63519418724E+03  0.69497163440E+03  0.56827594849E+03  0.10997248664E+04  0.00000000000E+00 0. -1.
         22    1    1    2    0    0 -0.10629543293E+04 -0.12233259165E+04 -0.14797122803E+03  0.16273578858E+04  0.00000000000E+00 0.  1.
<mgrwt>
<rscale>  0 0.34025156E+04</rscale>
<asrwt>0</asrwt>
<pdfrwt beam="1">  1        1 0.32636537E+00 0.34025156E+04</pdfrwt>
<pdfrwt beam="2">  1       -1 0.20989857E+00 0.34025156E+04</pdfrwt>
<totfact> 0.26103499E-01</totfact>
</mgrwt>
</event>
<event>
 6    1  0.1603085E-006  0.1972676E+04  0.7818608E-02  0.8619503E-01
         -3   -1    0    0    0  501 -0.00000000000E+00  0.00000000000E+00  0.78046923750E+03  0.78046923750E+03  0.00000000000E+00 0.  1.
          3   -1    0    0  501    0  0.00000000000E+00 -0.00000000000E+00 -0.12465105377E+04  0.12465105377E+04  0.00000000000E+00 0. -1.
         23    2    1    2    0    0 -0.97039927777E+03 -0.11784664303E+03 -0.11639751197E+03  0.98880186740E+03  0.92834059576E+02 0.  0.
         13    1    3    3    0    0 -0.22487266337E+03 -0.32813856168E+02 -0.66501366537E+02  0.23678449198E+03  0.00000000000E+00 0.  1.
        -13    1    3    3    0    0 -0.74552661439E+03 -0.85032786864E+02 -0.49896145436E+02  0.75201737542E+03  0.00000000000E+00 0. -1.
         22    1    1    2    0    0  0.97039927777E+03  0.11784664303E+03 -0.34964378820E+03  0.10381779078E+04  0.00000000000E+00 0. -1.
<mgrwt>
<rscale>  0 0.19726765E+04</rscale>
<asrwt>0</asrwt>
<pdfrwt beam="1">  1        3 0.19177085E+00 0.19726765E+04</pdfrwt>
<pdfrwt beam="2">  1       -3 0.12007219E+00 0.19726765E+04</pdfrwt>
<totfact> 0.22837937E-01</totfact>
</mgrwt>
</event>
<event>
 6    1  0.1603085E-006  0.3409428E+04  0.7818608E-02  0.8135596E-01
         -2   -1    0    0    0  501 -0.00000000000E+00  0.00000000000E+00  0.11989114684E+04  0.11989114684E+04  0.00000000000E+00 0.  1.
          2   -1    0    0  501    0  0.00000000000E+00 -0.00000000000E+00 -0.24239068047E+04  0.24239068047E+04  0.00000000000E+00 0. -1.
         23    2    1    2    0    0  0.76616827133E+03  0.30085571427E+03  0.97183673917E+03  0.12768431775E+04  0.91290041218E+02 0.  0.
         13    1    3    3    0    0  0.31947014720E+03  0.15462106395E+03  0.47435545232E+03  0.59243729078E+03  0.00000000000E+00 0.  1.
        -13    1    3    3    0    0  0.44669812413E+03  0.14623465032E+03  0.49748128685E+03  0.68440588676E+03  0.00000000000E+00 0. -1.
         22    1    1    2    0    0 -0.76616827133E+03 -0.30085571427E+03 -0.21968320755E+04  0.23459750955E+04  0.00000000000E+00 0. -1.
<mgrwt>
<rscale>  0 0.34094279E+04</rscale>
<asrwt>0</asrwt>
<pdfrwt beam="1">  1        2 0.37290874E+00 0.34094279E+04</pdfrwt>
<pdfrwt beam="2">  1       -2 0.18444792E+00 0.34094279E+04</pdfrwt>
<totfact> 0.53884610E-01</totfact>
</mgrwt>
</event>
<event>
 6    1  0.1603085E-006  0.2218249E+04  0.7818608E-02  0.8510871E-01
          1   -1    0    0  501    0  0.00000000000E+00  0.00000000000E+00  0.10895508583E+04  0.10895508583E+04  0.00000000000E+00 0. -1.
         -1   -1    0    0    0  501 -0.00000000000E+00 -0.00000000000E+00 -0.11290496676E+04  0.11290496676E+04  0.00000000000E+00 0.  1.
         23    2    1    2    0    0  0.36176193712E+03  0.64963450648E+03  0.80077463338E+03  0.10965683741E+04  0.91244147309E+02 0.  0.
         13    1    3    3    0    0  0.10295141458E+03  0.23744987359E+03  0.22777031320E+03  0.34476187697E+03  0.00000000000E+00 0. -1.
        -13    1    3    3    0    0  0.25881052255E+03  0.41218463289E+03  0.57300432017E+03  0.75180649712E+03  0.00000000000E+00 0.  1.
         22    1    1    2    0    0 -0.36176193712E+03 -0.64963450648E+03 -0.84027344275E+03  0.11220321518E+04  0.00000000000E+00 0.  1.
<mgrwt>
<rscale>  0 0.22182489E+04</rscale>
<asrwt>0</asrwt>
<pdfrwt beam="1">  1        1 0.16762321E+00 0.22182489E+04</pdfrwt>
<pdfrwt beam="2">  1       -1 0.17369995E+00 0.22182489E+04</pdfrwt>
<totfact> 0.27171407E+00</totfact>
</mgrwt>
</event>
<event>
 6    1  0.1603085E-006  0.2985422E+04  0.7818608E-02  0.8247906E-01
         -1   -1    0    0    0  501 -0.00000000000E+00  0.00000000000E+00  0.15821520727E+04  0.15821520727E+04  0.00000000000E+00 0.  1.
          1   -1    0    0  501    0  0.00000000000E+00 -0.00000000000E+00 -0.14083259602E+04  0.14083259602E+04  0.00000000000E+00 0. -1.
         23    2    1    2    0    0  0.12230582981E+04 -0.25563567058E+03 -0.72855601389E+03  0.14492075509E+04  0.90484603884E+02 0.  0.
         13    1    3    3    0    0  0.61352772021E+03 -0.13209259098E+03 -0.31376630859E+03  0.70165091923E+03  0.00000000000E+00 0. -1.
        -13    1    3    3    0    0  0.60953057793E+03 -0.12354307960E+03 -0.41478970531E+03  0.74755663169E+03  0.00000000000E+00 0.  1.
         22    1    1    2    0    0 -0.12230582981E+04  0.25563567058E+03  0.90238212635E+03  0.15412704820E+04  0.00000000000E+00 0.  1.
<mgrwt>
<rscale>  0 0.29854218E+04</rscale>
<asrwt>0</asrwt>
<pdfrwt beam="1">  1        1 0.21666553E+00 0.29854218E+04</pdfrwt>
<pdfrwt beam="2">  1       -1 0.24340801E+00 0.29854218E+04</pdfrwt>
<totfact> 0.49736430E-01</totfact>
</mgrwt>
</event>
<event>
 6    1  0.1603085E-006  0.3019111E+04  0.7818608E-02  0.8238295E-01
         -2   -1    0    0    0  501 -0.00000000000E+00  0.00000000000E+00  0.13501457727E+04  0.13501457727E+04  0.00000000000E+00 0. -1.
          2   -1    0    0  501    0  0.00000000000E+00 -0.00000000000E+00 -0.16877860811E+04  0.16877860811E+04  0.00000000000E+00 0.  1.
         23    2    1    2    0    0 -0.45479360568E+03 -0.12825814122E+03 -0.16101387403E+04  0.16805300587E+04  0.91362687154E+02 0.  0.
         11    1    3    3    0    0 -0.23721827447E+03 -0.11023429534E+03 -0.94063452384E+03  0.97632853950E+03  0.00000000000E+00 0. -1.
        -11    1    3    3    0    0 -0.21757533120E+03 -0.18023845879E+02 -0.66950421642E+03  0.70420151915E+03  0.00000000000E+00 0.  1.
         22    1    1    2    0    0  0.45479360568E+03  0.12825814122E+03  0.12724984318E+04  0.13574017952E+04  0.00000000000E+00 0. -1.
<mgrwt>
<rscale>  0 0.30191106E+04</rscale>
<asrwt>0</asrwt>
<pdfrwt beam="1">  1        2 0.25965940E+00 0.30191106E+04</pdfrwt>
<pdfrwt beam="2">  1       -2 0.20771473E+00 0.30191106E+04</pdfrwt>
<totfact> 0.10086936E+00</totfact>
</mgrwt>
</event>
<event>
 6    1  0.1603085E-006  0.2495670E+04  0.7818608E-02  0.8404530E-01
         -1   -1    0    0    0  501 -0.00000000000E+00  0.00000000000E+00  0.75138420693E+03  0.75138420693E+03  0.00000000000E+00 0.  1.
          1   -1    0    0  501    0  0.00000000000E+00 -0.00000000000E+00 -0.20722987172E+04  0.20722987172E+04  0.00000000000E+00 0. -1.
         23    2    1    2    0    0 -0.84320750866E+03  0.32539917840E+03  0.30895146558E+03  0.95999125780E+03  0.96170052534E+02 0.  0.
         11    1    3    3    0    0 -0.77201586282E+03  0.27410875344E+03  0.29713863386E+03  0.87145594776E+03  0.00000000000E+00 0. -1.
        -11    1    3    3    0    0 -0.71191645839E+02  0.51290424961E+02  0.11812831715E+02  0.88535310035E+02  0.00000000000E+00 0.  1.
         22    1    1    2    0    0  0.84320750866E+03 -0.32539917840E+03 -0.16298659758E+04  0.18636916663E+04  0.00000000000E+00 0. -1.
<mgrwt>
<rscale>  0 0.24956703E+04</rscale>
<asrwt>0</asrwt>
<pdfrwt beam="1">  1        1 0.31881518E+00 0.24956703E+04</pdfrwt>
<pdfrwt beam="2">  1       -1 0.11559757E+00 0.24956703E+04</pdfrwt>
<totfact> 0.16030876E+00</totfact>
</mgrwt>
</event>
<event>
 6    1  0.1603085E-006  0.1470916E+04  0.7818608E-02  0.8904027E-01
         -1   -1    0    0    0  501 -0.00000000000E+00  0.00000000000E+00  0.41978006067E+03  0.41978006067E+03  0.00000000000E+00 0.  1.
          1   -1    0    0  501    0  0.00000000000E+00 -0.00000000000E+00 -0.12885284544E+04  0.12885284544E+04  0.00000000000E+00 0. -1.
         23    2    1    2    0    0  0.26839278457E+03 -0.34162047429E+02  0.35450436660E+03  0.45549206884E+03  0.92725112816E+02 0.  0.
         11    1    3    3    0    0  0.13141039040E+03 -0.56864957134E+02  0.14209535868E+03  0.20172606429E+03  0.00000000000E+00 0.  1.
        -11    1    3    3    0    0  0.13698239417E+03  0.22702909705E+02  0.21240900792E+03  0.25376600455E+03  0.00000000000E+00 0. -1.
         22    1    1    2    0    0 -0.26839278457E+03  0.34162047429E+02 -0.12232527603E+04  0.12528164462E+04  0.00000000000E+00 0. -1.
<mgrwt>
<rscale>  0 0.14709161E+04</rscale>
<asrwt>0</asrwt>
<pdfrwt beam="1">  1        1 0.19823515E+00 0.14709161E+04</pdfrwt>
<pdfrwt beam="2">  1       -1 0.64581548E-01 0.14709161E+04</pdfrwt>
<totfact> 0.21730297E+01</totfact>
</mgrwt>
</event>
<event>
 6    1  0.1603085E-006  0.1754561E+04  0.7818608E-02  0.8730844E-01
          3   -1    0    0  501    0  0.00000000000E+00  0.00000000000E+00  0.51281390757E+03  0.51281390757E+03  0.00000000000E+00 0. -1.
         -3   -1    0    0    0  501 -0.00000000000E+00 -0.00000000000E+00 -0.15007808689E+04  0.15007808689E+04  0.00000000000E+00 0.  1.
         23    2    1    2    0    0 -0.20303341902E+03 -0.49622207503E+03  0.29830825884E+03  0.62005150156E+03  0.89538429274E+02 0.  0.
         11    1    3    3    0    0 -0.14299790619E+03 -0.43220436391E+03  0.23945294040E+03  0.51437994131E+03  0.00000000000E+00 0. -1.
        -11    1    3    3    0    0 -0.60035512833E+02 -0.64017711118E+02  0.58855318442E+02  0.10567156026E+03  0.00000000000E+00 0.  1.
         22    1    1    2    0    0  0.20303341902E+03  0.49622207503E+03 -0.12862752202E+04  0.13935432749E+04  0.00000000000E+00 0.  1.
<mgrwt>
<rscale>  0 0.17545613E+04</rscale>
<asrwt>0</asrwt>
<pdfrwt beam="1">  1        3 0.78894448E-01 0.17545613E+04</pdfrwt>
<pdfrwt beam="2">  1       -3 0.23088936E+00 0.17545613E+04</pdfrwt>
<totfact> 0.35243381E-01</totfact>
</mgrwt>
</event>
<event>
 6    1  0.1603085E-006  0.2152463E+04  0.7818608E-02  0.8538479E-01
         -2   -1    0    0    0  501 -0.00000000000E+00  0.00000000000E+00  0.18104406543E+04  0.18104406543E+04  0.00000000000E+00 0.  1.
          2   -1    0    0  501    0  0.00000000000E+00 -0.00000000000E+00 -0.63977477446E+03  0.63977477446E+03  0.00000000000E+00 0. -1.
         23    2    1    2    0    0 -0.71523207582E+03 -0.61589394808E+03  0.42708226067E+01  0.94976226151E+03  0.10558331254E+03 0.  0.
         13    1    3    3    0    0 -0.44578482741E+03 -0.33624549055E+03  0.39862714955E+02  0.55979833718E+03  0.00000000000E+00 0. -1.
        -13    1    3    3    0    0 -0.26944724841E+03 -0.27964845753E+03 -0.35591892348E+02  0.38996392432E+03  0.00000000000E+00 0.  1.
         22    1    1    2    0    0  0.71523207582E+03  0.61589394808E+03  0.11663950572E+04  0.15004531672E+04  0.00000000000E+00 0.  1.
<mgrwt>
<rscale>  0 0.21524630E+04</rscale>
<asrwt>0</asrwt>
<pdfrwt beam="1">  1        2 0.98426889E-01 0.21524630E+04</pdfrwt>
<pdfrwt beam="2">  1       -2 0.27852933E+00 0.21524630E+04</pdfrwt>
<totfact> 0.18092776E+00</totfact>
</mgrwt>
</event>
<event>
 6    1  0.1603085E-006  0.3332827E+04  0.7818608E-02  0.8154592E-01
         -1   -1    0    0    0  501 -0.00000000000E+00  0.00000000000E+00  0.92073707116E+03  0.92073707116E+03  0.00000000000E+00 0.  1.
          1   -1    0    0  501    0  0.00000000000E+00 -0.00000000000E+00 -0.30159908291E+04  0.30159908291E+04  0.00000000000E+00 0. -1.
         23    2    1    2    0    0  0.44683087014E+03 -0.22919656597E+03  0.82689855561E+03  0.97173834954E+03  0.91243116627E+02 0.  0.
         11    1    3    3    0    0  0.37023923730E+03 -0.22442367652E+03  0.68312404705E+03  0.80876544380E+03  0.00000000000E+00 0. -1.
        -11    1    3    3    0    0  0.76591632845E+02 -0.47728894492E+01  0.14377450855E+03  0.16297290574E+03  0.00000000000E+00 0.  1.
         22    1    1    2    0    0 -0.44683087014E+03  0.22919656597E+03 -0.29221523135E+04  0.29649895507E+04  0.00000000000E+00 0. -1.
<mgrwt>
<rscale>  0 0.33328274E+04</rscale>
<asrwt>0</asrwt>
<pdfrwt beam="1">  1        1 0.46399859E+00 0.33328274E+04</pdfrwt>
<pdfrwt beam="2">  1       -1 0.14165186E+00 0.33328274E+04</pdfrwt>
<totfact> 0.19549963E-01</totfact>
</mgrwt>
</event>
<event>
 6    1  0.1603085E-006  0.3847102E+04  0.7818608E-02  0.8036122E-01
          2   -1    0    0  501    0  0.00000000000E+00  0.00000000000E+00  0.24411800891E+04  0.24411800891E+04  0.00000000000E+00 0. -1.
         -2   -1    0    0    0  501 -0.00000000000E+00 -0.00000000000E+00 -0.15156805579E+04  0.15156805579E+04  0.00000000000E+00 0.  1.
         23    2    1    2    0    0 -0.14920309813E+04 -0.12123463161E+04  0.45962949950E+03  0.19787365544E+04  0.90548527076E+02 0.  0.
         13    1    3    3    0    0 -0.43482681038E+03 -0.40457394445E+03  0.15514081559E+03  0.61385918924E+03  0.00000000000E+00 0.  1.
        -13    1    3    3    0    0 -0.10572041709E+04 -0.80777237165E+03  0.30448868391E+03  0.13648773652E+04  0.00000000000E+00 0. -1.
         22    1    1    2    0    0  0.14920309813E+04  0.12123463161E+04  0.46587003173E+03  0.19781240926E+04  0.00000000000E+00 0.  1.
<mgrwt>
<rscale>  0 0.38471024E+04</rscale>
<asrwt>0</asrwt>
<pdfrwt beam="1">  1        2 0.37556617E+00 0.38471024E+04</pdfrwt>
<pdfrwt beam="2">  1       -2 0.23318163E+00 0.38471024E+04</pdfrwt>
<totfact> 0.24557975E-01</totfact>
</mgrwt>
</event>
<event>
 6    1  0.1603085E-006  0.2350142E+04  0.7818608E-02  0.8458409E-01
          2   -1    0    0  501    0  0.00000000000E+00  0.00000000000E+00  0.26076569379E+04  0.26076569379E+04  0.00000000000E+00 0. -1.
         -2   -1    0    0    0  501 -0.00000000000E+00 -0.00000000000E+00 -0.52951417197E+03  0.52951417197E+03  0.00000000000E+00 0.  1.
         23    2    1    2    0    0  0.97630175904E+02  0.15598051418E+01  0.26014422727E+04  0.26048399554E+04  0.90306207960E+02 0.  0.
         13    1    3    3    0    0  0.40398460505E+01  0.40241741686E+01  0.13085184995E+04  0.13085309235E+04  0.00000000000E+00 0.  1.
        -13    1    3    3    0    0  0.93590329853E+02 -0.24643690268E+01  0.12929237732E+04  0.12963090319E+04  0.00000000000E+00 0. -1.
         22    1    1    2    0    0 -0.97630175904E+02 -0.15598051418E+01 -0.52329950673E+03  0.53233115444E+03  0.00000000000E+00 0.  1.
<mgrwt>
<rscale>  0 0.23501415E+04</rscale>
<asrwt>0</asrwt>
<pdfrwt beam="1">  1        2 0.40117798E+00 0.23501415E+04</pdfrwt>
<pdfrwt beam="2">  1       -2 0.81463721E-01 0.23501415E+04</pdfrwt>
<totfact> 0.36084545E+00</totfact>
</mgrwt>
</event>
<event>
 6    1  0.1785352E-006  0.3327984E+04  0.7818608E-02  0.8155811E-01
         -2   -1    0    0    0  501 -0.00000000000E+00  0.00000000000E+00  0.13991439933E+04  0.13991439933E+04  0.00000000000E+00 0.  1.
          2   -1    0    0  501    0  0.00000000000E+00 -0.00000000000E+00 -0.19789735511E+04  0.19789735511E+04  0.00000000000E+00 0. -1.
         23    2    1    2    0    0 -0.44640188505E+03  0.34352702551E+03  0.12978587604E+04  0.14177607196E+04  0.91228481965E+02 0.  0.
         11    1    3    3    0    0 -0.10808220003E+03  0.13477181453E+03  0.41532897901E+03  0.44982592718E+03  0.00000000000E+00 0. -1.
        -11    1    3    3    0    0 -0.33831968502E+03  0.20875521098E+03  0.88252978138E+03  0.96793479244E+03  0.00000000000E+00 0.  1.
         22    1    1    2    0    0  0.44640188505E+03 -0.34352702551E+03 -0.18776883181E+04  0.19603568247E+04  0.00000000000E+00 0. -1.
<mgrwt>
<rscale>  0 0.33279837E+04</rscale>
<asrwt>0</asrwt>
<pdfrwt beam="1">  1        2 0.30445747E+00 0.33279837E+04</pdfrwt>
<pdfrwt beam="2">  1       -2 0.21525292E+00 0.33279837E+04</pdfrwt>
<totfact> 0.60606234E-01</totfact>
</mgrwt>
</event>
<event>
 6    1  0.1603085E-006  0.1966298E+04  0.7818608E-02  0.8622541E-01
          2   -1    0    0  501    0  0.00000000000E+00  0.00000000000E+00  0.26308278426E+04  0.26308278426E+04  0.00000000000E+00 0. -1.
         -2   -1    0    0    0  501 -0.00000000000E+00 -0.00000000000E+00 -0.36740619380E+03  0.36740619380E+03  0.00000000000E+00 0.  1.
         23    2    1    2    0    0  0.15855547398E+03 -0.96788514205E+03  0.10826714361E+04  0.14632706650E+04  0.83917305509E+02 0.  0.
         13    1    3    3    0    0  0.13744231186E+03 -0.60536616938E+03  0.66127897865E+03  0.90699971098E+03  0.00000000000E+00 0.  1.
        -13    1    3    3    0    0  0.21113162119E+02 -0.36251897266E+03  0.42139245740E+03  0.55627095404E+03  0.00000000000E+00 0. -1.
         22    1    1    2    0    0 -0.15855547398E+03  0.96788514205E+03  0.11807502127E+04  0.15349633714E+04  0.00000000000E+00 0. -1.
<mgrwt>
<rscale>  0 0.19662985E+04</rscale>
<asrwt>0</asrwt>
<pdfrwt beam="1">  1        2 0.40474273E+00 0.19662985E+04</pdfrwt>
<pdfrwt beam="2">  1       -2 0.56524032E-01 0.19662985E+04</pdfrwt>
<totfact> 0.79926920E+00</totfact>
</mgrwt>
</event>
<event>
 6    1  0.1603085E-006  0.1893392E+04  0.7818608E-02  0.8658152E-01
          1   -1    0    0  501    0  0.00000000000E+00  0.00000000000E+00  0.88547204213E+03  0.88547204213E+03  0.00000000000E+00 0. -1.
         -1   -1    0    0    0  501 -0.00000000000E+00 -0.00000000000E+00 -0.10121536529E+04  0.10121536529E+04  0.00000000000E+00 0.  1.
         23    2    1    2    0    0  0.48271682192E+03  0.57175815251E+03  0.51409256829E+03  0.91247877010E+03  0.91670180471E+02 0.  0.
         11    1    3    3    0    0  0.16705776326E+03  0.26696143117E+03  0.20568795510E+03  0.37614390447E+03  0.00000000000E+00 0. -1.
        -11    1    3    3    0    0  0.31565905866E+03  0.30479672134E+03  0.30840461319E+03  0.53633486563E+03  0.00000000000E+00 0.  1.
         22    1    1    2    0    0 -0.48271682192E+03 -0.57175815251E+03 -0.64077417901E+03  0.98514692488E+03  0.00000000000E+00 0.  1.
<mgrwt>
<rscale>  0 0.18933925E+04</rscale>
<asrwt>0</asrwt>
<pdfrwt beam="1">  1        1 0.13622647E+00 0.18933925E+04</pdfrwt>
<pdfrwt beam="2">  1       -1 0.15571595E+00 0.18933925E+04</pdfrwt>
<totfact> 0.55181233E+00</totfact>
</mgrwt>
</event>
<event>
 6    1  0.1603085E-006  0.1400728E+04  0.7818608E-02  0.8953292E-01
          1   -1    0    0  501    0  0.00000000000E+00  0.00000000000E+00  0.11981767172E+04  0.11981767172E+04  0.00000000000E+00 0. -1.
         -1   -1    0    0    0  501 -0.00000000000E+00 -0.00000000000E+00 -0.40937993038E+03  0.40937993038E+03  0.00000000000E+00 0.  1.
         23    2    1    2    0    0  0.35910688436E+03 -0.50994311289E+03  0.75421936616E+03  0.98290047749E+03  0.90811692968E+02 0.  0.
         13    1    3    3    0    0  0.11633096798E+03 -0.17940926208E+03  0.32690909585E+03  0.39062787200E+03  0.00000000000E+00 0. -1.
        -13    1    3    3    0    0  0.24277591638E+03 -0.33053385080E+03  0.42731027031E+03  0.59227260549E+03  0.00000000000E+00 0.  1.
         22    1    1    2    0    0 -0.35910688436E+03  0.50994311289E+03  0.34577420623E+02  0.62465617006E+03  0.00000000000E+00 0.  1.
<mgrwt>
<rscale>  0 0.14007277E+04</rscale>
<asrwt>0</asrwt>
<pdfrwt beam="1">  1        1 0.18433488E+00 0.14007277E+04</pdfrwt>
<pdfrwt beam="2">  1       -1 0.62981528E-01 0.14007277E+04</pdfrwt>
<totfact> 0.26721810E+01</totfact>
</mgrwt>
</event>
<event>
 6    1  0.1682821E-006  0.2353272E+04  0.7818608E-02  0.8457208E-01
          1   -1    0    0  501    0  0.00000000000E+00  0.00000000000E+00  0.17457586819E+04  0.17457586819E+04  0.00000000000E+00 0. -1.
         -1   -1    0    0    0  501 -0.00000000000E+00 -0.00000000000E+00 -0.79304893122E+03  0.79304893122E+03  0.00000000000E+00 0.  1.
         23    2    1    2    0    0  0.10805397909E+03 -0.69348620108E+03  0.14935077509E+04  0.16527707907E+04  0.92125518476E+02 0.  0.
         13    1    3    3    0    0  0.78155751058E+02 -0.24555586154E+03  0.49804398624E+03  0.56076181645E+03  0.00000000000E+00 0.  1.
        -13    1    3    3    0    0  0.29898228037E+02 -0.44793033954E+03  0.99546376467E+03  0.10920089743E+04  0.00000000000E+00 0. -1.
         22    1    1    2    0    0 -0.10805397909E+03  0.69348620108E+03 -0.54079800027E+03  0.88603682236E+03  0.00000000000E+00 0.  1.
<mgrwt>
<rscale>  0 0.23532718E+04</rscale>
<asrwt>0</asrwt>
<pdfrwt beam="1">  1        1 0.26857826E+00 0.23532718E+04</pdfrwt>
<pdfrwt beam="2">  1       -1 0.12200753E+00 0.23532718E+04</pdfrwt>
<totfact> 0.23715740E+00</totfact>
</mgrwt>
</event>
<event>
 6    1  0.2205100E-006  0.2812092E+04  0.7818608E-02  0.8299524E-01
          2   -1    0    0  501    0  0.00000000000E+00  0.00000000000E+00  0.96226559424E+03  0.96226559424E+03  0.00000000000E+00 0. -1.
         -2   -1    0    0    0  501 -0.00000000000E+00 -0.00000000000E+00 -0.20544903805E+04  0.20544903805E+04  0.00000000000E+00 0.  1.
         23    2    1    2    0    0  0.94818952480E+03 -0.19656003866E+03  0.54530029692E+03  0.11143397159E+04  0.81861865009E+02 0.  0.
         13    1    3    3    0    0  0.53271077637E+03 -0.11741327838E+03  0.26101833614E+03  0.60472904760E+03  0.00000000000E+00 0. -1.
        -13    1    3    3    0    0  0.41547874842E+03 -0.79146760287E+02  0.28428196078E+03  0.50961066834E+03  0.00000000000E+00 0.  1.
         22    1    1    2    0    0 -0.94818952480E+03  0.19656003866E+03 -0.16375250832E+04  0.19024162588E+04  0.00000000000E+00 0.  1.
<mgrwt>
<rscale>  0 0.28120920E+04</rscale>
<asrwt>0</asrwt>
<pdfrwt beam="1">  1        2 0.14804086E+00 0.28120920E+04</pdfrwt>
<pdfrwt beam="2">  1       -2 0.31607544E+00 0.28120920E+04</pdfrwt>
<totfact> 0.58653065E-01</totfact>
</mgrwt>
</event>
<event>
 6    1  0.1603085E-006  0.1978955E+04  0.7818608E-02  0.8616523E-01
         -1   -1    0    0    0  501 -0.00000000000E+00  0.00000000000E+00  0.29684684203E+03  0.29684684203E+03  0.00000000000E+00 0. -1.
          1   -1    0    0  501    0  0.00000000000E+00 -0.00000000000E+00 -0.32982193261E+04  0.32982193261E+04  0.00000000000E+00 0.  1.
         23    2    1    2    0    0  0.13696677257E+03  0.32898430123E+03 -0.31766197078E+04  0.31979488596E+04  0.94728946666E+02 0.  0.
         13    1    3    3    0    0  0.14047089332E+03  0.26860548953E+03 -0.24187004839E+04  0.24376203584E+04  0.00000000000E+00 0.  1.
        -13    1    3    3    0    0 -0.35041207485E+01  0.60378811695E+02 -0.75791922394E+03  0.76032850123E+03  0.00000000000E+00 0. -1.
         22    1    1    2    0    0 -0.13696677257E+03 -0.32898430123E+03  0.17524722379E+03  0.39711730847E+03  0.00000000000E+00 0. -1.
<mgrwt>
<rscale>  0 0.19789553E+04</rscale>
<asrwt>0</asrwt>
<pdfrwt beam="1">  1        1 0.50741837E+00 0.19789553E+04</pdfrwt>
<pdfrwt beam="2">  1       -1 0.45668744E-01 0.19789553E+04</pdfrwt>
<totfact> 0.15914842E+00</totfact>
</mgrwt>
</event>
<event>
 6    1  0.1603085E-006  0.3076918E+04  0.7818608E-02  0.8222101E-01
         -1   -1    0    0    0  501 -0.00000000000E+00  0.00000000000E+00  0.12265504793E+04  0.12265504793E+04  0.00000000000E+00 0.  1.
          1   -1    0    0  501    0  0.00000000000E+00 -0.00000000000E+00 -0.19296849763E+04  0.19296849763E+04  0.00000000000E+00 0. -1.
         23    2    1    2    0    0 -0.63520610262E+03 -0.11368103050E+04 -0.11895573041E+04  0.17661161767E+04  0.91078579177E+02 0.  0.
         13    1    3    3    0    0 -0.94400480847E+02 -0.18652113672E+03 -0.23656979862E+03  0.31570057784E+03  0.00000000000E+00 0. -1.
        -13    1    3    3    0    0 -0.54080562177E+03 -0.95028916826E+03 -0.95298750551E+03  0.14504155989E+04  0.00000000000E+00 0.  1.
         22    1    1    2    0    0  0.63520610262E+03  0.11368103050E+04  0.48642280705E+03  0.13901192789E+04  0.00000000000E+00 0. -1.
<mgrwt>
<rscale>  0 0.30769180E+04</rscale>
<asrwt>0</asrwt>
<pdfrwt beam="1">  1        1 0.29687461E+00 0.30769180E+04</pdfrwt>
<pdfrwt beam="2">  1       -1 0.18870008E+00 0.30769180E+04</pdfrwt>
<totfact> 0.50750826E-01</totfact>
</mgrwt>
</event>
<event>
 6    1  0.1603085E-006  0.2087201E+04  0.7818608E-02  0.8566903E-01
          1   -1    0    0  501    0  0.00000000000E+00  0.00000000000E+00  0.12371934545E+04  0.12371934545E+04  0.00000000000E+00 0. -1.
         -1   -1    0    0    0  501 -0.00000000000E+00 -0.00000000000E+00 -0.88030016480E+03  0.88030016480E+03  0.00000000000E+00 0.  1.
         23    2    1    2    0    0  0.97654977913E+03  0.30619493258E+03 -0.18574196506E+02  0.10273648924E+04  0.87913671259E+02 0.  0.
         13    1    3    3    0    0  0.71678201105E+03  0.23940954703E+03 -0.49753082389E+02  0.75734321927E+03  0.00000000000E+00 0. -1.
        -13    1    3    3    0    0  0.25976776808E+03  0.66785385550E+02  0.31178885883E+02  0.27002167317E+03  0.00000000000E+00 0.  1.
         22    1    1    2    0    0 -0.97654977913E+03 -0.30619493258E+03  0.37546748618E+03  0.10901287268E+04  0.00000000000E+00 0. -1.
<mgrwt>
<rscale>  0 0.20872006E+04</rscale>
<asrwt>0</asrwt>
<pdfrwt beam="1">  1        1 0.19033746E+00 0.20872006E+04</pdfrwt>
<pdfrwt beam="2">  1       -1 0.13543079E+00 0.20872006E+04</pdfrwt>
<totfact> 0.42233131E+00</totfact>
</mgrwt>
</event>
<event>
 6    1  0.1603085E-006  0.1009958E+04  0.7818608E-02  0.9297690E-01
         -2   -1    0    0    0  501 -0.00000000000E+00  0.00000000000E+00  0.20577163959E+03  0.20577163959E+03  0.00000000000E+00 0.  1.
          2   -1    0    0  501    0  0.00000000000E+00 -0.00000000000E+00 -0.12392565469E+04  0.12392565469E+04  0.00000000000E+00 0. -1.
         23    2    1    2    0    0 -0.28108069940E+03  0.20158849586E+02 -0.11128764317E+04  0.11522556589E+04  0.98926297850E+02 0.  0.
         13    1    3    3    0    0 -0.16858806130E+03 -0.19723901615E+02 -0.78990969627E+03  0.80794077442E+03  0.00000000000E+00 0. -1.
        -13    1    3    3    0    0 -0.11249263810E+03  0.39882751202E+02 -0.32296673544E+03  0.34431488448E+03  0.00000000000E+00 0.  1.
         22    1    1    2    0    0  0.28108069940E+03 -0.20158849586E+02  0.79391524364E+02  0.29277252763E+03  0.00000000000E+00 0.  1.
<mgrwt>
<rscale>  0 0.10099581E+04</rscale>
<asrwt>0</asrwt>
<pdfrwt beam="1">  1        2 0.19065485E+00 0.10099581E+04</pdfrwt>
<pdfrwt beam="2">  1       -2 0.31657176E-01 0.10099581E+04</pdfrwt>
<totfact> 0.16580766E+02</totfact>
</mgrwt>
</event>
<event>
 6    1  0.1603085E-006  0.2096194E+04  0.7818608E-02  0.8562922E-01
          2   -1    0    0  501    0  0.00000000000E+00  0.00000000000E+00  0.52795193513E+03  0.52795193513E+03  0.00000000000E+00 0. -1.
         -2   -1    0    0    0  501 -0.00000000000E+00 -0.00000000000E+00 -0.20806963725E+04  0.20806963725E+04  0.00000000000E+00 0.  1.
         23    2    1    2    0    0 -0.10416577808E+04 -0.39896389384E+02 -0.88239841416E+03  0.13692910367E+04  0.98429303018E+02 0.  0.
         13    1    3    3    0    0 -0.93655503925E+03 -0.59347023057E+02 -0.81496429119E+03  0.12429095730E+04  0.00000000000E+00 0. -1.
        -13    1    3    3    0    0 -0.10510274156E+03  0.19450633674E+02 -0.67434122975E+02  0.12638146374E+03  0.00000000000E+00 0.  1.
         22    1    1    2    0    0  0.10416577808E+04  0.39896389384E+02 -0.67034602325E+03  0.12393572710E+04  0.00000000000E+00 0.  1.
<mgrwt>
<rscale>  0 0.20961943E+04</rscale>
<asrwt>0</asrwt>
<pdfrwt beam="1">  1        2 0.81223375E-01 0.20961943E+04</pdfrwt>
<pdfrwt beam="2">  1       -2 0.32010713E+00 0.20961943E+04</pdfrwt>
<totfact> 0.12750137E+00</totfact>
</mgrwt>
</event>
<event>
 6    1  0.1603085E-006  0.4145314E+04  0.7818608E-02  0.7975857E-01
         -3   -1    0    0    0  501 -0.00000000000E+00  0.00000000000E+00  0.15794751294E+04  0.15794751294E+04  0.00000000000E+00 0.  1.
          3   -1    0    0  501    0  0.00000000000E+00 -0.00000000000E+00 -0.27198323473E+04  0.27198323473E+04  0.00000000000E+00 0. -1.
         23    2    1    2    0    0 -0.48313818324E+03  0.15669481520E+04  0.74267232873E+03  0.18023995311E+04  0.91284537254E+02 0.  0.
         11    1    3    3    0    0 -0.31602308615E+03  0.10714918989E+04  0.46130946060E+03  0.12086239692E+04  0.00000000000E+00 0. -1.
        -11    1    3    3    0    0 -0.16711509709E+03  0.49545625308E+03  0.28136286813E+03  0.59377556194E+03  0.00000000000E+00 0.  1.
         22    1    1    2    0    0  0.48313818324E+03 -0.15669481520E+04 -0.18830295466E+04  0.24969079456E+04  0.00000000000E+00 0.  1.
<mgrwt>
<rscale>  0 0.41453142E+04</rscale>
<asrwt>0</asrwt>
<pdfrwt beam="1">  1        3 0.41843574E+00 0.41453142E+04</pdfrwt>
<pdfrwt beam="2">  1       -3 0.24299617E+00 0.41453142E+04</pdfrwt>
<totfact> 0.14343503E-03</totfact>
</mgrwt>
</event>
<event>
 6    1  0.1603085E-006  0.8910772E+03  0.7818608E-02  0.9436805E-01
         -1   -1    0    0    0  501 -0.00000000000E+00  0.00000000000E+00  0.43245772332E+03  0.43245772332E+03  0.00000000000E+00 0.  1.
          1   -1    0    0  501    0  0.00000000000E+00 -0.00000000000E+00 -0.45901509924E+03  0.45901509924E+03  0.00000000000E+00 0. -1.
         23    2    1    2    0    0 -0.11643969411E+03  0.57710042671E+01  0.41212013325E+03  0.43756813664E+03  0.89617872798E+02 0.  0.
         11    1    3    3    0    0 -0.14982920280E+01 -0.13697514362E+01  0.16412856012E+03  0.16414111412E+03  0.00000000000E+00 0.  1.
        -11    1    3    3    0    0 -0.11494140208E+03  0.71407557033E+01  0.24799157313E+03  0.27342702252E+03  0.00000000000E+00 0. -1.
         22    1    1    2    0    0  0.11643969411E+03 -0.57710042671E+01 -0.43867750916E+03  0.45390468592E+03  0.00000000000E+00 0. -1.
<mgrwt>
<rscale>  0 0.89107716E+03</rscale>
<asrwt>0</asrwt>
<pdfrwt beam="1">  1        1 0.70617707E-01 0.89107716E+03</pdfrwt>
<pdfrwt beam="2">  1       -1 0.66531958E-01 0.89107716E+03</pdfrwt>
<totfact> 0.11508674E+02</totfact>
</mgrwt>
</event>
<event>
 6    1  0.1603085E-006  0.1768963E+04  0.7818608E-02  0.8722981E-01
         -1   -1    0    0    0  501 -0.00000000000E+00  0.00000000000E+00  0.30023212847E+03  0.30023212847E+03  0.00000000000E+00 0.  1.
          1   -1    0    0  501    0  0.00000000000E+00 -0.00000000000E+00 -0.26056744213E+04  0.26056744213E+04  0.00000000000E+00 0. -1.
         23    2    1    2    0    0 -0.86166140697E+03  0.18608912688E+03 -0.12118459961E+04  0.15012562717E+04  0.90056269430E+02 0.  0.
         13    1    3    3    0    0 -0.43863252818E+03  0.80692389909E+02 -0.54009709752E+03  0.70043888478E+03  0.00000000000E+00 0.  1.
        -13    1    3    3    0    0 -0.42302887880E+03  0.10539673697E+03 -0.67174889854E+03  0.80081738690E+03  0.00000000000E+00 0. -1.
         22    1    1    2    0    0  0.86166140697E+03 -0.18608912688E+03 -0.10935962968E+04  0.14046502781E+04  0.00000000000E+00 0.  1.
<mgrwt>
<rscale>  0 0.17689626E+04</rscale>
<asrwt>0</asrwt>
<pdfrwt beam="1">  1        1 0.40087299E+00 0.17689626E+04</pdfrwt>
<pdfrwt beam="2">  1       -1 0.46189558E-01 0.17689626E+04</pdfrwt>
<totfact> 0.50527357E+00</totfact>
</mgrwt>
</event>
<event>
 6    1  0.1603085E-006  0.1644269E+04  0.7818608E-02  0.8793804E-01
         -1   -1    0    0    0  501 -0.00000000000E+00  0.00000000000E+00  0.37946791829E+03  0.37946791829E+03  0.00000000000E+00 0.  1.
          1   -1    0    0  501    0  0.00000000000E+00 -0.00000000000E+00 -0.17811919360E+04  0.17811919360E+04  0.00000000000E+00 0. -1.
         23    2    1    2    0    0 -0.24076942192E+03  0.57844675962E+03 -0.13973933143E+04  0.15340903664E+04  0.90302873829E+02 0.  0.
         13    1    3    3    0    0 -0.35213985817E+02  0.13570219578E+03 -0.23959960435E+03  0.27760237957E+03  0.00000000000E+00 0.  1.
        -13    1    3    3    0    0 -0.20555543611E+03  0.44274456384E+03 -0.11577937100E+04  0.12564879868E+04  0.00000000000E+00 0. -1.
         22    1    1    2    0    0  0.24076942192E+03 -0.57844675962E+03 -0.43307034220E+01  0.62656948796E+03  0.00000000000E+00 0.  1.
<mgrwt>
<rscale>  0 0.16442691E+04</rscale>
<asrwt>0</asrwt>
<pdfrwt beam="1">  1        1 0.27402952E+00 0.16442691E+04</pdfrwt>
<pdfrwt beam="2">  1       -1 0.58379681E-01 0.16442691E+04</pdfrwt>
<totfact> 0.11927077E+01</totfact>
</mgrwt>
</event>
<event>
 6    1  0.1603085E-006  0.6593549E+03  0.7818608E-02  0.9789382E-01
         -1   -1    0    0    0  501 -0.00000000000E+00  0.00000000000E+00  0.55907331746E+03  0.55907331746E+03  0.00000000000E+00 0.  1.
          1   -1    0    0  501    0  0.00000000000E+00 -0.00000000000E+00 -0.19440600336E+03  0.19440600336E+03  0.00000000000E+00 0. -1.
         23    2    1    2    0    0 -0.16325354010E+03 -0.67821794424E+02  0.49553471782E+03  0.53352980045E+03  0.88588245548E+02 0.  0.
         11    1    3    3    0    0 -0.14079779663E+02  0.83522822891E+01  0.13497253143E+03  0.13596170437E+03  0.00000000000E+00 0.  1.
        -11    1    3    3    0    0 -0.14917376043E+03 -0.76174076713E+02  0.36056218639E+03  0.39756809608E+03  0.00000000000E+00 0. -1.
         22    1    1    2    0    0  0.16325354010E+03  0.67821794424E+02 -0.13086740372E+03  0.21994952037E+03  0.00000000000E+00 0. -1.
<mgrwt>
<rscale>  0 0.65935486E+03</rscale>
<asrwt>0</asrwt>
<pdfrwt beam="1">  1        1 0.29908616E-01 0.65935486E+03</pdfrwt>
<pdfrwt beam="2">  1       -1 0.86011279E-01 0.65935486E+03</pdfrwt>
<totfact> 0.20924816E+02</totfact>
</mgrwt>
</event>
<event>
 6    1  0.1603085E-006  0.3136117E+04  0.7818608E-02  0.8205895E-01
          2   -1    0    0  501    0  0.00000000000E+00  0.00000000000E+00  0.95693894655E+03  0.95693894655E+03  0.00000000000E+00 0. -1.
         -2   -1    0    0    0  501 -0.00000000000E+00 -0.00000000000E+00 -0.25694512769E+04  0.25694512769E+04  0.00000000000E+00 0.  1.
         23    2    1    2    0    0  0.31297011731E+03  0.14511136833E+04 -0.24347572438E+03  0.15069986209E+04  0.89906611245E+02 0.  0.
         11    1    3    3    0    0  0.16180379954E+03  0.88294927511E+03 -0.11270096177E+03  0.90469961796E+03  0.00000000000E+00 0.  1.
        -11    1    3    3    0    0  0.15116631777E+03  0.56816440818E+03 -0.13077476261E+03  0.60229900289E+03  0.00000000000E+00 0. -1.
         22    1    1    2    0    0 -0.31297011731E+03 -0.14511136833E+04 -0.13690366060E+04  0.20193916026E+04  0.00000000000E+00 0.  1.
<mgrwt>
<rscale>  0 0.31361173E+04</rscale>
<asrwt>0</asrwt>
<pdfrwt beam="1">  1        2 0.14722138E+00 0.31361173E+04</pdfrwt>
<pdfrwt beam="2">  1       -2 0.39530020E+00 0.31361173E+04</pdfrwt>
<totfact> 0.18102329E-01</totfact>
</mgrwt>
</event>
<event>
 6    1  0.1603085E-006  0.7380762E+04  0.7818608E-02  0.7539393E-01
         -1   -1    0    0    0  501 -0.00000000000E+00  0.00000000000E+00  0.59347604881E+04  0.59347604881E+04  0.00000000000E+00 0.  1.
          1   -1    0    0  501    0  0.00000000000E+00 -0.00000000000E+00 -0.22947703503E+04  0.22947703503E+04  0.00000000000E+00 0. -1.
         23    2    1    2    0    0  0.35905609401E+04 -0.68815834416E+03  0.12638465079E+04  0.38692844783E+04  0.91458227573E+02 0.  0.
         13    1    3    3    0    0  0.29943818013E+04 -0.60786895504E+03  0.10622711045E+04  0.32348488277E+04  0.00000000000E+00 0. -1.
        -13    1    3    3    0    0  0.59617913882E+03 -0.80289389114E+02  0.20157540337E+03  0.63443565065E+03  0.00000000000E+00 0.  1.
         22    1    1    2    0    0 -0.35905609401E+04  0.68815834416E+03  0.23761436299E+04  0.43602463601E+04  0.00000000000E+00 0.  1.
<mgrwt>
<rscale>  0 0.73807621E+04</rscale>
<asrwt>0</asrwt>
<pdfrwt beam="1">  1        1 0.35304159E+00 0.73807621E+04</pdfrwt>
<pdfrwt beam="2">  1       -1 0.91304007E+00 0.73807621E+04</pdfrwt>
<totfact> 0.54407560E-06</totfact>
</mgrwt>
</event>
<event>
 6    1  0.1603085E-006  0.2340987E+04  0.7818608E-02  0.8461934E-01
          2   -1    0    0  501    0  0.00000000000E+00  0.00000000000E+00  0.16349467825E+04  0.16349467825E+04  0.00000000000E+00 0. -1.
         -2   -1    0    0    0  501 -0.00000000000E+00 -0.00000000000E+00 -0.83798124882E+03  0.83798124882E+03  0.00000000000E+00 0.  1.
         23    2    1    2    0    0  0.70340589254E+03 -0.46712653435E+03 -0.45458010935E+03  0.96317522198E+03  0.89868702360E+02 0.  0.
         11    1    3    3    0    0  0.55909702788E+03 -0.38362593819E+03 -0.32447511655E+03  0.75169305458E+03  0.00000000000E+00 0.  1.
        -11    1    3    3    0    0  0.14430886466E+03 -0.83500596161E+02 -0.13010499280E+03  0.21148216740E+03  0.00000000000E+00 0. -1.
         22    1    1    2    0    0 -0.70340589254E+03  0.46712653435E+03  0.12515456431E+04  0.15097528094E+04  0.00000000000E+00 0. -1.
<mgrwt>
<rscale>  0 0.23409868E+04</rscale>
<asrwt>0</asrwt>
<pdfrwt beam="1">  1        2 0.25153027E+00 0.23409868E+04</pdfrwt>
<pdfrwt beam="2">  1       -2 0.12892019E+00 0.23409868E+04</pdfrwt>
<totfact> 0.42736884E+00</totfact>
</mgrwt>
</event>
<event>
 6    1  0.1603085E-006  0.1641903E+04  0.7818608E-02  0.8795211E-01
          1   -1    0    0  501    0  0.00000000000E+00  0.00000000000E+00  0.17416487936E+04  0.17416487936E+04  0.00000000000E+00 0. -1.
         -1   -1    0    0    0  501 -0.00000000000E+00 -0.00000000000E+00 -0.38696724452E+03  0.38696724452E+03  0.00000000000E+00 0.  1.
         23    2    1    2    0    0 -0.13268337591E+03  0.40604939093E+03  0.15844072167E+04  0.16435852469E+04  0.92440518212E+02 0.  0.
         13    1    3    3    0    0 -0.37077651992E+02  0.29773520554E+02  0.21590620788E+03  0.22108076670E+03  0.00000000000E+00 0.  1.
        -13    1    3    3    0    0 -0.95605723919E+02  0.37627587037E+03  0.13685010088E+04  0.14225044802E+04  0.00000000000E+00 0. -1.
         22    1    1    2    0    0  0.13268337591E+03 -0.40604939093E+03 -0.22972566758E+03  0.48503079125E+03  0.00000000000E+00 0.  1.
<mgrwt>
<rscale>  0 0.16419026E+04</rscale>
<asrwt>0</asrwt>
<pdfrwt beam="1">  1        1 0.26794596E+00 0.16419026E+04</pdfrwt>
<pdfrwt beam="2">  1       -1 0.59533423E-01 0.16419026E+04</pdfrwt>
<totfact> 0.12210898E+01</totfact>
</mgrwt>
</event>
<event>
 6    1  0.1603085E-006  0.2406135E+04  0.7818608E-02  0.8437210E-01
          2   -1    0    0  501    0  0.00000000000E+00  0.00000000000E+00  0.33160713683E+04  0.33160713683E+04  0.00000000000E+00 0. -1.
         -2   -1    0    0    0  501 -0.00000000000E+00 -0.00000000000E+00 -0.43647177726E+03  0.43647177726E+03  0.00000000000E+00 0.  1.
         23    2    1    2    0    0 -0.66516536657E+03 -0.96641802807E+03  0.18489082628E+04  0.21908986969E+04  0.71878828609E+02 0.  0.
         11    1    3    3    0    0 -0.38338785635E+03 -0.61644147255E+03  0.11591749251E+04  0.13677254273E+04  0.00000000000E+00 0.  1.
        -11    1    3    3    0    0 -0.28177751022E+03 -0.34997655552E+03  0.68973333777E+03  0.82317326968E+03  0.00000000000E+00 0. -1.
         22    1    1    2    0    0  0.66516536657E+03  0.96641802807E+03  0.10306913282E+04  0.15616444486E+04  0.00000000000E+00 0.  1.
<mgrwt>
<rscale>  0 0.24061351E+04</rscale>
<asrwt>0</asrwt>
<pdfrwt beam="1">  1        2 0.51016481E+00 0.24061351E+04</pdfrwt>
<pdfrwt beam="2">  1       -2 0.67149507E-01 0.24061351E+04</pdfrwt>
<totfact> 0.19899480E+00</totfact>
</mgrwt>
</event>
<event>
 6    1  0.1603085E-006  0.4070531E+04  0.7818608E-02  0.7990467E-01
          2   -1    0    0  501    0  0.00000000000E+00  0.00000000000E+00  0.11557958943E+04  0.11557958943E+04  0.00000000000E+00 0. -1.
         -2   -1    0    0    0  501 -0.00000000000E+00 -0.00000000000E+00 -0.35839420917E+04  0.35839420917E+04  0.00000000000E+00 0.  1.
         23    2    1    2    0    0 -0.12604737042E+04 -0.66585636817E+03  0.47502647853E+03  0.15054575022E+04  0.92700990300E+02 0.  0.
         11    1    3    3    0    0 -0.65135759570E+03 -0.36129446424E+03  0.29419360919E+03  0.80084348474E+03  0.00000000000E+00 0.  1.
        -11    1    3    3    0    0 -0.60911610849E+03 -0.30456190393E+03  0.18083286935E+03  0.70461401744E+03  0.00000000000E+00 0. -1.
         22    1    1    2    0    0  0.12604737042E+04  0.66585636817E+03 -0.29031726759E+04  0.32342804838E+04  0.00000000000E+00 0.  1.
<mgrwt>
<rscale>  0 0.40705310E+04</rscale>
<asrwt>0</asrwt>
<pdfrwt beam="1">  1        2 0.17781475E+00 0.40705310E+04</pdfrwt>
<pdfrwt beam="2">  1       -2 0.55137571E+00 0.40705310E+04</pdfrwt>
<totfact> 0.13287856E-02</totfact>
</mgrwt>
</event>
<event>
 6    1  0.1603085E-006  0.3727503E+04  0.7818608E-02  0.8061894E-01
          2   -1    0    0  501    0  0.00000000000E+00  0.00000000000E+00  0.13715149471E+04  0.13715149471E+04  0.00000000000E+00 0. -1.
         -2   -1    0    0    0  501 -0.00000000000E+00 -0.00000000000E+00 -0.25326513725E+04  0.25326513725E+04  0.00000000000E+00 0.  1.
         23    2    1    2    0    0 -0.15005772815E+04 -0.10005396527E+04 -0.93580564592E+02  0.18083401603E+04  0.92331138049E+02 0.  0.
         13    1    3    3    0    0 -0.84854986383E+03 -0.61801036503E+03 -0.40715085110E+02  0.10505386242E+04  0.00000000000E+00 0. -1.
        -13    1    3    3    0    0 -0.65202741768E+03 -0.38252928764E+03 -0.52865479482E+02  0.75780153617E+03  0.00000000000E+00 0.  1.
         22    1    1    2    0    0  0.15005772815E+04  0.10005396527E+04 -0.10675558608E+04  0.20958261594E+04  0.00000000000E+00 0. -1.
<mgrwt>
<rscale>  0 0.37275028E+04</rscale>
<asrwt>0</asrwt>
<pdfrwt beam="1">  1        2 0.21100230E+00 0.37275028E+04</pdfrwt>
<pdfrwt beam="2">  1       -2 0.38963867E+00 0.37275028E+04</pdfrwt>
<totfact> 0.10502989E-01</totfact>
</mgrwt>
</event>
<event>
 6    1  0.1603085E-006  0.1167065E+04  0.7818608E-02  0.9142183E-01
          1   -1    0    0  501    0  0.00000000000E+00  0.00000000000E+00  0.16539200456E+04  0.16539200456E+04  0.00000000000E+00 0. -1.
         -1   -1    0    0    0  501 -0.00000000000E+00 -0.00000000000E+00 -0.20588055346E+03  0.20588055346E+03  0.00000000000E+00 0.  1.
         23    2    1    2    0    0 -0.56350609340E+03  0.99717379214E+02  0.87950839380E+03  0.10531344458E+04  0.89858072316E+02 0.  0.
         11    1    3    3    0    0 -0.27450750015E+03  0.87894951520E+02  0.48043602819E+03  0.56026660380E+03  0.00000000000E+00 0. -1.
        -11    1    3    3    0    0 -0.28899859325E+03  0.11822427694E+02  0.39907236560E+03  0.49286784201E+03  0.00000000000E+00 0.  1.
         22    1    1    2    0    0  0.56350609340E+03 -0.99717379214E+02  0.56853109834E+03  0.80666615325E+03  0.00000000000E+00 0.  1.
<mgrwt>
<rscale>  0 0.11670647E+04</rscale>
<asrwt>0</asrwt>
<pdfrwt beam="1">  1        1 0.25444923E+00 0.11670647E+04</pdfrwt>
<pdfrwt beam="2">  1       -1 0.31673932E-01 0.11670647E+04</pdfrwt>
<totfact> 0.47145069E+01</totfact>
</mgrwt>
</event>
<event>
 6    1  0.1603085E-006  0.1389621E+04  0.7818608E-02  0.8961366E-01
         -1   -1    0    0    0  501 -0.00000000000E+00  0.00000000000E+00  0.64267461891E+03  0.64267461891E+03  0.00000000000E+00 0.  1.
          1   -1    0    0  501    0  0.00000000000E+00 -0.00000000000E+00 -0.75117582822E+03  0.75117582822E+03  0.00000000000E+00 0. -1.
         23    2    1    2    0    0  0.34734047564E+03  0.39155523565E+03  0.39934096934E+03  0.66455997893E+03  0.90586131502E+02 0.  0.
         13    1    3    3    0    0  0.29777501943E+03  0.37430860547E+03  0.36738738241E+03  0.60311722167E+03  0.00000000000E+00 0. -1.
        -13    1    3    3    0    0  0.49565456206E+02  0.17246630181E+02  0.31953586930E+02  0.61442757256E+02  0.00000000000E+00 0.  1.
         22    1    1    2    0    0 -0.34734047564E+03 -0.39155523565E+03 -0.50784217865E+03  0.72929046819E+03  0.00000000000E+00 0. -1.
<mgrwt>
<rscale>  0 0.13896210E+04</rscale>
<asrwt>0</asrwt>
<pdfrwt beam="1">  1        1 0.11556551E+00 0.13896210E+04</pdfrwt>
<pdfrwt beam="2">  1       -1 0.98873018E-01 0.13896210E+04</pdfrwt>
<totfact> 0.23331177E+01</totfact>
</mgrwt>
</event>
<event>
 6    1  0.1603085E-006  0.1620359E+04  0.7818608E-02  0.8808138E-01
         -2   -1    0    0    0  501 -0.00000000000E+00  0.00000000000E+00  0.47173158662E+03  0.47173158662E+03  0.00000000000E+00 0.  1.
          2   -1    0    0  501    0  0.00000000000E+00 -0.00000000000E+00 -0.13914493989E+04  0.13914493989E+04  0.00000000000E+00 0. -1.
         23    2    1    2    0    0  0.20727448152E+03  0.21636938926E+03  0.40169084331E+03  0.50822738544E+03  0.84623391671E+02 0.  0.
         11    1    3    3    0    0  0.93381514351E+02  0.75840475440E+02  0.99866201120E+02  0.15634942617E+03  0.00000000000E+00 0. -1.
        -11    1    3    3    0    0  0.11389296717E+03  0.14052891382E+03  0.30182464219E+03  0.35187795927E+03  0.00000000000E+00 0.  1.
         22    1    1    2    0    0 -0.20727448152E+03 -0.21636938926E+03 -0.13214086556E+04  0.13549536001E+04  0.00000000000E+00 0. -1.
<mgrwt>
<rscale>  0 0.16203588E+04</rscale>
<asrwt>0</asrwt>
<pdfrwt beam="1">  1        2 0.21406914E+00 0.16203588E+04</pdfrwt>
<pdfrwt beam="2">  1       -2 0.72574091E-01 0.16203588E+04</pdfrwt>
<totfact> 0.24062008E+01</totfact>
</mgrwt>
</event>
<event>
 6    1  0.1603085E-006  0.1140472E+04  0.7818608E-02  0.9166619E-01
          1   -1    0    0  501    0  0.00000000000E+00  0.00000000000E+00  0.41389310191E+03  0.41389310191E+03  0.00000000000E+00 0. -1.
         -1   -1    0    0    0  501 -0.00000000000E+00 -0.00000000000E+00 -0.78563517159E+03  0.78563517159E+03  0.00000000000E+00 0.  1.
         23    2    1    2    0    0 -0.70439857203E+02 -0.15610221057E+03  0.38090840544E+03  0.42763941407E+03  0.91948798300E+02 0.  0.
         13    1    3    3    0    0 -0.29895631649E+02 -0.96799980195E+02  0.12012868267E+03  0.15714606377E+03  0.00000000000E+00 0.  1.
        -13    1    3    3    0    0 -0.40544225553E+02 -0.59302230373E+02  0.26077972277E+03  0.27049335031E+03  0.00000000000E+00 0. -1.
         22    1    1    2    0    0  0.70439857203E+02  0.15610221057E+03 -0.75265047512E+03  0.77188885943E+03  0.00000000000E+00 0.  1.
<mgrwt>
<rscale>  0 0.11404718E+04</rscale>
<asrwt>0</asrwt>
<pdfrwt beam="1">  1        1 0.63675862E-01 0.11404718E+04</pdfrwt>
<pdfrwt beam="2">  1       -1 0.12086695E+00 0.11404718E+04</pdfrwt>
<totfact> 0.34659375E+01</totfact>
</mgrwt>
</event>
<event>
 6    1  0.1603085E-006  0.3024384E+04  0.7818608E-02  0.8236802E-01
          2   -1    0    0  501    0  0.00000000000E+00  0.00000000000E+00  0.14216078680E+04  0.14216078680E+04  0.00000000000E+00 0. -1.
         -2   -1    0    0    0  501 -0.00000000000E+00 -0.00000000000E+00 -0.16085481212E+04  0.16085481212E+04  0.00000000000E+00 0.  1.
         23    2    1    2    0    0 -0.15604744839E+03  0.14696640156E+04  0.21959762053E+03  0.14973363103E+04  0.97620624521E+02 0.  0.
         11    1    3    3    0    0 -0.26448379756E+02  0.70751278758E+03  0.11095672334E+03  0.71664862788E+03  0.00000000000E+00 0.  1.
        -11    1    3    3    0    0 -0.12959906864E+03  0.76215122804E+03  0.10864089720E+03  0.78068768246E+03  0.00000000000E+00 0. -1.
         22    1    1    2    0    0  0.15604744839E+03 -0.14696640156E+04 -0.40653787377E+03  0.15328196788E+04  0.00000000000E+00 0. -1.
<mgrwt>
<rscale>  0 0.30243840E+04</rscale>
<asrwt>0</asrwt>
<pdfrwt beam="1">  1        2 0.21870890E+00 0.30243840E+04</pdfrwt>
<pdfrwt beam="2">  1       -2 0.24746894E+00 0.30243840E+04</pdfrwt>
<totfact> 0.80037757E-01</totfact>
</mgrwt>
</event>
<event>
 6    1  0.1603085E-006  0.1474535E+04  0.7818608E-02  0.8901565E-01
         -4   -1    0    0    0  501 -0.00000000000E+00  0.00000000000E+00  0.34271940269E+03  0.34271940269E+03  0.00000000000E+00 0. -1.
          4   -1    0    0  501    0  0.00000000000E+00 -0.00000000000E+00 -0.15860311038E+04  0.15860311038E+04  0.00000000000E+00 0.  1.
         23    2    1    2    0    0 -0.31342968132E+03 -0.63640379737E+03 -0.37394087054E+03  0.80667492993E+03  0.87434029287E+02 0.  0.
         13    1    3    3    0    0 -0.19787918843E+03 -0.34210320456E+03 -0.16857636779E+03  0.42966122418E+03  0.00000000000E+00 0. -1.
        -13    1    3    3    0    0 -0.11555049289E+03 -0.29430059281E+03 -0.20536450275E+03  0.37701370575E+03  0.00000000000E+00 0.  1.
         22    1    1    2    0    0  0.31342968132E+03  0.63640379737E+03 -0.86937083053E+03  0.11220755765E+04  0.00000000000E+00 0. -1.
<mgrwt>
<rscale>  0 0.14745354E+04</rscale>
<asrwt>0</asrwt>
<pdfrwt beam="1">  1        4 0.24400478E+00 0.14745354E+04</pdfrwt>
<pdfrwt beam="2">  1       -4 0.52726062E-01 0.14745354E+04</pdfrwt>
<totfact> 0.46102866E-01</totfact>
</mgrwt>
</event>
<event>
 6    1  0.1603085E-006  0.2073894E+04  0.7818608E-02  0.8572831E-01
          1   -1    0    0  501    0  0.00000000000E+00  0.00000000000E+00  0.11368453407E+04  0.11368453407E+04  0.00000000000E+00 0. -1.
         -1   -1    0    0    0  501 -0.00000000000E+00 -0.00000000000E+00 -0.94582718643E+03  0.94582718643E+03  0.00000000000E+00 0.  1.
         23    2    1    2    0    0 -0.15604257162E+03 -0.21838461726E+03  0.10995191614E+04  0.11353525150E+04  0.89676205478E+02 0.  0.
         13    1    3    3    0    0 -0.12202556951E+03 -0.12483381126E+03  0.55490163804E+03  0.58171259909E+03  0.00000000000E+00 0.  1.
        -13    1    3    3    0    0 -0.34017002110E+02 -0.93550806004E+02  0.54461752340E+03  0.55363991595E+03  0.00000000000E+00 0. -1.
         22    1    1    2    0    0  0.15604257162E+03  0.21838461726E+03 -0.90850100719E+03  0.94732001207E+03  0.00000000000E+00 0.  1.
<mgrwt>
<rscale>  0 0.20738941E+04</rscale>
<asrwt>0</asrwt>
<pdfrwt beam="1">  1        1 0.17489928E+00 0.20738941E+04</pdfrwt>
<pdfrwt beam="2">  1       -1 0.14551188E+00 0.20738941E+04</pdfrwt>
<totfact> 0.41513577E+00</totfact>
</mgrwt>
</event>
<event>
 6    1  0.1603085E-006  0.9779125E+03  0.7818608E-02  0.9333107E-01
          3   -1    0    0  501    0  0.00000000000E+00  0.00000000000E+00  0.50934692970E+03  0.50934692970E+03  0.00000000000E+00 0. -1.
         -3   -1    0    0    0  501 -0.00000000000E+00 -0.00000000000E+00 -0.46938182882E+03  0.46938182882E+03  0.00000000000E+00 0.  1.
         23    2    1    2    0    0 -0.12175707444E+03 -0.30946965302E+03  0.37294237094E+03  0.50812264541E+03  0.92229926865E+02 0.  0.
         11    1    3    3    0    0 -0.57901683165E+02 -0.16404121625E+03  0.12713548413E+03  0.21546590650E+03  0.00000000000E+00 0. -1.
        -11    1    3    3    0    0 -0.63855391280E+02 -0.14542843678E+03  0.24580688682E+03  0.29265673890E+03  0.00000000000E+00 0.  1.
         22    1    1    2    0    0  0.12175707444E+03  0.30946965302E+03 -0.33297727007E+03  0.47060611312E+03  0.00000000000E+00 0.  1.
<mgrwt>
<rscale>  0 0.97791246E+03</rscale>
<asrwt>0</asrwt>
<pdfrwt beam="1">  1        3 0.78361066E-01 0.97791246E+03</pdfrwt>
<pdfrwt beam="2">  1       -3 0.72212589E-01 0.97791246E+03</pdfrwt>
<totfact> 0.72767308E+00</totfact>
</mgrwt>
</event>
<event>
 6    1  0.1603085E-006  0.7482188E+03  0.7818608E-02  0.9638149E-01
          1   -1    0    0  501    0  0.00000000000E+00  0.00000000000E+00  0.10916590484E+04  0.10916590484E+04  0.00000000000E+00 0. -1.
         -1   -1    0    0    0  501 -0.00000000000E+00 -0.00000000000E+00 -0.12820654404E+03  0.12820654404E+03  0.00000000000E+00 0.  1.
         23    2    1    2    0    0  0.29589110446E+03  0.19403459673E+03  0.65737696511E+03  0.75201603740E+03  0.90458143996E+02 0.  0.
         11    1    3    3    0    0  0.12262094386E+03  0.36677559622E+02  0.28135122221E+03  0.30909488752E+03  0.00000000000E+00 0.  1.
        -11    1    3    3    0    0  0.17327016060E+03  0.15735703711E+03  0.37602574290E+03  0.44292114988E+03  0.00000000000E+00 0. -1.
         22    1    1    2    0    0 -0.29589110446E+03 -0.19403459673E+03  0.30607553926E+03  0.46784955505E+03  0.00000000000E+00 0. -1.
<mgrwt>
<rscale>  0 0.74821878E+03</rscale>
<asrwt>0</asrwt>
<pdfrwt beam="1">  1        1 0.16794754E+00 0.74821878E+03</pdfrwt>
<pdfrwt beam="2">  1       -1 0.19724084E-01 0.74821878E+03</pdfrwt>
<totfact> 0.27255795E+02</totfact>
</mgrwt>
</event>
<event>
 6    1  0.1603085E-006  0.1444731E+04  0.7818608E-02  0.8922062E-01
          2   -1    0    0  501    0  0.00000000000E+00  0.00000000000E+00  0.16249284897E+04  0.16249284897E+04  0.00000000000E+00 0. -1.
         -2   -1    0    0    0  501 -0.00000000000E+00 -0.00000000000E+00 -0.32112906523E+03  0.32112906523E+03  0.00000000000E+00 0.  1.
         23    2    1    2    0    0 -0.39922422672E+03  0.28766309217E+03 -0.50913134433E+02  0.50474698637E+03  0.10023639657E+03 0.  0.
         13    1    3    3    0    0 -0.14166299481E+03  0.53754684889E+02 -0.39740985865E+02  0.15664391531E+03  0.00000000000E+00 0. -1.
        -13    1    3    3    0    0 -0.25756123191E+03  0.23390840728E+03 -0.11172148568E+02  0.34810307106E+03  0.00000000000E+00 0.  1.
         22    1    1    2    0    0  0.39922422672E+03 -0.28766309217E+03  0.13547125589E+04  0.14413105685E+04  0.00000000000E+00 0. -1.
<mgrwt>
<rscale>  0 0.14447308E+04</rscale>
<asrwt>0</asrwt>
<pdfrwt beam="1">  1        2 0.24998899E+00 0.14447308E+04</pdfrwt>
<pdfrwt beam="2">  1       -2 0.49404473E-01 0.14447308E+04</pdfrwt>
<totfact> 0.40622526E+01</totfact>
</mgrwt>
</event>
<event>
 6    1  0.1725800E-006  0.2047032E+04  0.7818608E-02  0.8584942E-01
         -2   -1    0    0    0  501 -0.00000000000E+00  0.00000000000E+00  0.64651357822E+03  0.64651357822E+03  0.00000000000E+00 0.  1.
          2   -1    0    0  501    0  0.00000000000E+00 -0.00000000000E+00 -0.16203598497E+04  0.16203598497E+04  0.00000000000E+00 0. -1.
         23    2    1    2    0    0 -0.91296408751E+02 -0.52955086411E+03 -0.14499383625E+04  0.15489438833E+04  0.90259330922E+02 0.  0.
         13    1    3    3    0    0  0.15835654691E+02 -0.11738703971E+03 -0.34592071592E+03  0.36563865599E+03  0.00000000000E+00 0.  1.
        -13    1    3    3    0    0 -0.10713206344E+03 -0.41216382440E+03 -0.11040176466E+04  0.11833052273E+04  0.00000000000E+00 0. -1.
         22    1    1    2    0    0  0.91296408751E+02  0.52955086411E+03  0.47609209097E+03  0.71792954460E+03  0.00000000000E+00 0.  1.
<mgrwt>
<rscale>  0 0.20470317E+04</rscale>
<asrwt>0</asrwt>
<pdfrwt beam="1">  1        2 0.24928613E+00 0.20470317E+04</pdfrwt>
<pdfrwt beam="2">  1       -2 0.99463628E-01 0.20470317E+04</pdfrwt>
<totfact> 0.84118967E+00</totfact>
</mgrwt>
</event>
<event>
 6    1  0.1603085E-006  0.2690860E+04  0.7818608E-02  0.8337977E-01
         -2   -1    0    0    0  501 -0.00000000000E+00  0.00000000000E+00  0.59432087877E+03  0.59432087877E+03  0.00000000000E+00 0.  1.
          2   -1    0    0  501    0  0.00000000000E+00 -0.00000000000E+00 -0.30457987012E+04  0.30457987012E+04  0.00000000000E+00 0. -1.
         23    2    1    2    0    0 -0.11985214669E+04  0.57910788063E+03 -0.97662435318E+03  0.16534106431E+04  0.90288334085E+02 0.  0.
         13    1    3    3    0    0 -0.56655382430E+03  0.26731636006E+03 -0.51512557012E+03  0.81104600682E+03  0.00000000000E+00 0. -1.
        -13    1    3    3    0    0 -0.63196764265E+03  0.31179152057E+03 -0.46149878307E+03  0.84236463626E+03  0.00000000000E+00 0.  1.
         22    1    1    2    0    0  0.11985214669E+04 -0.57910788063E+03 -0.14748534692E+04  0.19867089369E+04  0.00000000000E+00 0. -1.
<mgrwt>
<rscale>  0 0.26908599E+04</rscale>
<asrwt>0</asrwt>
<pdfrwt beam="1">  1        2 0.46858442E+00 0.26908599E+04</pdfrwt>
<pdfrwt beam="2">  1       -2 0.91433980E-01 0.26908599E+04</pdfrwt>
<totfact> 0.14569765E+00</totfact>
</mgrwt>
</event>
<event>
 6    1  0.1603085E-006  0.2265334E+04  0.7818608E-02  0.8491716E-01
         -2   -1    0    0    0  501 -0.00000000000E+00  0.00000000000E+00  0.98892040464E+03  0.98892040464E+03  0.00000000000E+00 0.  1.
          2   -1    0    0  501    0  0.00000000000E+00 -0.00000000000E+00 -0.12973087335E+04  0.12973087335E+04  0.00000000000E+00 0. -1.
         23    2    1    2    0    0  0.72287917112E+03  0.74677289214E+03  0.29523981235E+03  0.10843177515E+04  0.91402357610E+02 0.  0.
         11    1    3    3    0    0  0.53628185423E+03  0.53182926613E+03  0.25322349954E+03  0.79659446157E+03  0.00000000000E+00 0. -1.
        -11    1    3    3    0    0  0.18659731689E+03  0.21494362601E+03  0.42016312816E+02  0.28772328995E+03  0.00000000000E+00 0.  1.
         22    1    1    2    0    0 -0.72287917112E+03 -0.74677289214E+03 -0.60362814124E+03  0.12019113867E+04  0.00000000000E+00 0. -1.
<mgrwt>
<rscale>  0 0.22653345E+04</rscale>
<asrwt>0</asrwt>
<pdfrwt beam="1">  1        2 0.19958596E+00 0.22653345E+04</pdfrwt>
<pdfrwt beam="2">  1       -2 0.15214160E+00 0.22653345E+04</pdfrwt>
<totfact> 0.43529140E+00</totfact>
</mgrwt>
</event>
<event>
 6    1  0.1603085E-006  0.5913575E+04  0.7818608E-02  0.7701211E-01
          2   -1    0    0  501    0  0.00000000000E+00  0.00000000000E+00  0.41183799465E+04  0.41183799465E+04  0.00000000000E+00 0. -1.
         -2   -1    0    0    0  501 -0.00000000000E+00 -0.00000000000E+00 -0.21228229019E+04  0.21228229019E+04  0.00000000000E+00 0.  1.
         23    2    1    2    0    0 -0.67442130860E+03  0.76335662058E+03 -0.19307581784E+04  0.21849103711E+04  0.91917107761E+02 0.  0.
         11    1    3    3    0    0 -0.45562516429E+03  0.50648522693E+03 -0.13801885860E+04  0.15391692916E+04  0.00000000000E+00 0. -1.
        -11    1    3    3    0    0 -0.21879614432E+03  0.25687139365E+03 -0.55056959238E+03  0.64574107945E+03  0.00000000000E+00 0.  1.
         22    1    1    2    0    0  0.67442130860E+03 -0.76335662058E+03  0.39263152229E+04  0.40562924773E+04  0.00000000000E+00 0. -1.
<mgrwt>
<rscale>  0 0.59135746E+04</rscale>
<asrwt>0</asrwt>
<pdfrwt beam="1">  1        2 0.63359692E+00 0.59135746E+04</pdfrwt>
<pdfrwt beam="2">  1       -2 0.32658814E+00 0.59135746E+04</pdfrwt>
<totfact> 0.40074074E-03</totfact>
</mgrwt>
</event>
<event>
 6    1  0.1603085E-006  0.1775974E+04  0.7818608E-02  0.8719181E-01
         -1   -1    0    0    0  501 -0.00000000000E+00  0.00000000000E+00  0.10312615556E+04  0.10312615556E+04  0.00000000000E+00 0.  1.
          1   -1    0    0  501    0  0.00000000000E+00 -0.00000000000E+00 -0.76461819130E+03  0.76461819130E+03  0.00000000000E+00 0. -1.
         23    2    1    2    0    0  0.36745043960E+03 -0.56271064397E+03 -0.44792315711E+03  0.81492694074E+03  0.10866310165E+03 0.  0.
         13    1    3    3    0    0  0.28480158888E+03 -0.34243531559E+03 -0.28565100468E+03  0.52912227969E+03  0.00000000000E+00 0. -1.
        -13    1    3    3    0    0  0.82648850714E+02 -0.22027532838E+03 -0.16227215243E+03  0.28580466104E+03  0.00000000000E+00 0.  1.
         22    1    1    2    0    0 -0.36745043960E+03  0.56271064397E+03  0.71456652140E+03  0.98095280615E+03  0.00000000000E+00 0.  1.
<mgrwt>
<rscale>  0 0.17759745E+04</rscale>
<asrwt>0</asrwt>
<pdfrwt beam="1">  1        1 0.11763357E+00 0.17759745E+04</pdfrwt>
<pdfrwt beam="2">  1       -1 0.15865562E+00 0.17759745E+04</pdfrwt>
<totfact> 0.67223566E+00</totfact>
</mgrwt>
</event>
<event>
 6    1  0.1603085E-006  0.2450481E+04  0.7818608E-02  0.8420842E-01
         -1   -1    0    0    0  501 -0.00000000000E+00  0.00000000000E+00  0.55953495411E+03  0.55953495411E+03  0.00000000000E+00 0. -1.
          1   -1    0    0  501    0  0.00000000000E+00 -0.00000000000E+00 -0.26829672253E+04  0.26829672253E+04  0.00000000000E+00 0.  1.
         23    2    1    2    0    0 -0.23247206584E+03 -0.41217725556E+03 -0.25561889274E+04  0.26012442945E+04  0.91851485022E+02 0.  0.
         11    1    3    3    0    0 -0.54211292320E+02 -0.18587697620E+03 -0.97930606581E+03  0.99826323433E+03  0.00000000000E+00 0.  1.
        -11    1    3    3    0    0 -0.17826077352E+03 -0.22630027937E+03 -0.15768828616E+04  0.16029810601E+04  0.00000000000E+00 0. -1.
         22    1    1    2    0    0  0.23247206584E+03  0.41217725556E+03  0.43275665629E+03  0.64125788491E+03  0.00000000000E+00 0. -1.
<mgrwt>
<rscale>  0 0.24504807E+04</rscale>
<asrwt>0</asrwt>
<pdfrwt beam="1">  1        1 0.41276418E+00 0.24504807E+04</pdfrwt>
<pdfrwt beam="2">  1       -1 0.86082302E-01 0.24504807E+04</pdfrwt>
<totfact> 0.11987265E+00</totfact>
</mgrwt>
</event>
<event>
 6    1  0.1603085E-006  0.2532216E+04  0.7818608E-02  0.8391597E-01
         -3   -1    0    0    0  501 -0.00000000000E+00  0.00000000000E+00  0.14481002053E+04  0.14481002053E+04  0.00000000000E+00 0.  1.
          3   -1    0    0  501    0  0.00000000000E+00 -0.00000000000E+00 -0.11069879804E+04  0.11069879804E+04  0.00000000000E+00 0. -1.
         23    2    1    2    0    0 -0.11908369463E+04 -0.40218629973E+03  0.31777043839E+02  0.12606637164E+04  0.91742972809E+02 0.  0.
         13    1    3    3    0    0 -0.43439061077E+03 -0.10548879494E+03 -0.87566704796E+01  0.44710151852E+03  0.00000000000E+00 0. -1.
        -13    1    3    3    0    0 -0.75644633553E+03 -0.29669750479E+03  0.40533714319E+02  0.81356219792E+03  0.00000000000E+00 0.  1.
         22    1    1    2    0    0  0.11908369463E+04  0.40218629973E+03  0.30933518104E+03  0.12944244692E+04  0.00000000000E+00 0. -1.
<mgrwt>
<rscale>  0 0.25322160E+04</rscale>
<asrwt>0</asrwt>
<pdfrwt beam="1">  1        3 0.17030584E+00 0.25322160E+04</pdfrwt>
<pdfrwt beam="2">  1       -3 0.22278465E+00 0.25322160E+04</pdfrwt>
<totfact> 0.56678627E-02</totfact>
</mgrwt>
</event>
<event>
 6    1  0.1603085E-006  0.3077901E+04  0.7818608E-02  0.8221829E-01
          2   -1    0    0  501    0  0.00000000000E+00  0.00000000000E+00  0.22558684168E+04  0.22558684168E+04  0.00000000000E+00 0. -1.
         -2   -1    0    0    0  501 -0.00000000000E+00 -0.00000000000E+00 -0.10498698415E+04  0.10498698415E+04  0.00000000000E+00 0.  1.
         23    2    1    2    0    0 -0.97623493275E+03  0.90583827826E+03 -0.22210823649E+03  0.13530307287E+04  0.88218217740E+02 0.  0.
         13    1    3    3    0    0 -0.36344771356E+03  0.28885150682E+03 -0.10018531450E+03  0.47493844941E+03  0.00000000000E+00 0.  1.
        -13    1    3    3    0    0 -0.61278721919E+03  0.61698677143E+03 -0.12192292200E+03  0.87809227934E+03  0.00000000000E+00 0. -1.
         22    1    1    2    0    0  0.97623493275E+03 -0.90583827826E+03  0.14281068118E+04  0.19527075296E+04  0.00000000000E+00 0. -1.
<mgrwt>
<rscale>  0 0.30779007E+04</rscale>
<asrwt>0</asrwt>
<pdfrwt beam="1">  1        2 0.34705668E+00 0.30779007E+04</pdfrwt>
<pdfrwt beam="2">  1       -2 0.16151844E+00 0.30779007E+04</pdfrwt>
<totfact> 0.10026516E+00</totfact>
</mgrwt>
</event>
<event>
 6    1  0.1603085E-006  0.1175297E+04  0.7818608E-02  0.9134758E-01
         -1   -1    0    0    0  501 -0.00000000000E+00  0.00000000000E+00  0.70252664511E+03  0.70252664511E+03  0.00000000000E+00 0.  1.
          1   -1    0    0  501    0  0.00000000000E+00 -0.00000000000E+00 -0.49155507653E+03  0.49155507653E+03  0.00000000000E+00 0. -1.
         23    2    1    2    0    0  0.48885689510E+03 -0.27836457129E+03 -0.56613579171E+02  0.57112930793E+03  0.80719827783E+02 0.  0.
         11    1    3    3    0    0  0.26431184717E+03 -0.12316815793E+03 -0.61992097163E+02  0.29811770795E+03  0.00000000000E+00 0. -1.
        -11    1    3    3    0    0  0.22454504793E+03 -0.15519641337E+03  0.53785179926E+01  0.27301159999E+03  0.00000000000E+00 0.  1.
         22    1    1    2    0    0 -0.48885689510E+03  0.27836457129E+03  0.26758514776E+03  0.62295241370E+03  0.00000000000E+00 0.  1.
<mgrwt>
<rscale>  0 0.11752966E+04</rscale>
<asrwt>0</asrwt>
<pdfrwt beam="1">  1        1 0.75623858E-01 0.11752966E+04</pdfrwt>
<pdfrwt beam="2">  1       -1 0.10808102E+00 0.11752966E+04</pdfrwt>
<totfact> 0.35810350E+01</totfact>
</mgrwt>
</event>
<event>
 6    1  0.1603085E-006  0.3626676E+04  0.7818608E-02  0.8084409E-01
          1   -1    0    0  501    0  0.00000000000E+00  0.00000000000E+00  0.23532533827E+04  0.23532533827E+04  0.00000000000E+00 0. -1.
         -1   -1    0    0    0  501 -0.00000000000E+00 -0.00000000000E+00 -0.13972970898E+04  0.13972970898E+04  0.00000000000E+00 0.  1.
         23    2    1    2    0    0 -0.99557798162E+03  0.24582786394E+03  0.20234471704E+04  0.22702992675E+04  0.91178158045E+02 0.  0.
         13    1    3    3    0    0 -0.83985160236E+03  0.18649273251E+03  0.17509065947E+04  0.19508470357E+04  0.00000000000E+00 0. -1.
        -13    1    3    3    0    0 -0.15572637927E+03  0.59335131429E+02  0.27254057567E+03  0.31945223181E+03  0.00000000000E+00 0.  1.
         22    1    1    2    0    0  0.99557798162E+03 -0.24582786394E+03 -0.10674908775E+04  0.14802512050E+04  0.00000000000E+00 0.  1.
<mgrwt>
<rscale>  0 0.36266757E+04</rscale>
<asrwt>0</asrwt>
<pdfrwt beam="1">  1        1 0.36203898E+00 0.36266757E+04</pdfrwt>
<pdfrwt beam="2">  1       -1 0.21496878E+00 0.36266757E+04</pdfrwt>
<totfact> 0.16431488E-01</totfact>
</mgrwt>
</event>
<event>
 6    1  0.1603085E-006  0.6067809E+04  0.7818608E-02  0.7682051E-01
         -2   -1    0    0    0  501 -0.00000000000E+00  0.00000000000E+00  0.24213562685E+04  0.24213562685E+04  0.00000000000E+00 0.  1.
          2   -1    0    0  501    0  0.00000000000E+00 -0.00000000000E+00 -0.38014135341E+04  0.38014135341E+04  0.00000000000E+00 0. -1.
         23    2    1    2    0    0  0.67653109905E+03 -0.25507063061E+04  0.84351969342E+03  0.27719595382E+04  0.91854343639E+02 0.  0.
         11    1    3    3    0    0  0.20827303995E+03 -0.70547316433E+03  0.27279064587E+03  0.78452838141E+03  0.00000000000E+00 0. -1.
        -11    1    3    3    0    0  0.46825805909E+03 -0.18452331418E+04  0.57072904755E+03  0.19874311568E+04  0.00000000000E+00 0.  1.
         22    1    1    2    0    0 -0.67653109905E+03  0.25507063061E+04 -0.22235769590E+04  0.34508102643E+04  0.00000000000E+00 0. -1.
<mgrwt>
<rscale>  0 0.60678090E+04</rscale>
<asrwt>0</asrwt>
<pdfrwt beam="1">  1        2 0.58483285E+00 0.60678090E+04</pdfrwt>
<pdfrwt beam="2">  1       -2 0.37251635E+00 0.60678090E+04</pdfrwt>
<totfact> 0.36570946E-03</totfact>
</mgrwt>
</event>
<event>
 6    1  0.1603085E-006  0.1180784E+04  0.7818608E-02  0.9129844E-01
          1   -1    0    0  501    0  0.00000000000E+00  0.00000000000E+00  0.62254302223E+03  0.62254302223E+03  0.00000000000E+00 0. -1.
         -1   -1    0    0    0  501 -0.00000000000E+00 -0.00000000000E+00 -0.55990170160E+03  0.55990170160E+03  0.00000000000E+00 0.  1.
         23    2    1    2    0    0  0.23486069811E+03 -0.48262878775E+03  0.26917842841E+03  0.60733806313E+03  0.91172376964E+02 0.  0.
         11    1    3    3    0    0  0.21885843499E+03 -0.36494686567E+03  0.21573390642E+03  0.47710203071E+03  0.00000000000E+00 0. -1.
        -11    1    3    3    0    0  0.16002263122E+02 -0.11768192208E+03  0.53444521993E+02  0.13023603242E+03  0.00000000000E+00 0.  1.
         22    1    1    2    0    0 -0.23486069811E+03  0.48262878775E+03 -0.20653710778E+03  0.57510666069E+03  0.00000000000E+00 0.  1.
<mgrwt>
<rscale>  0 0.11807843E+04</rscale>
<asrwt>0</asrwt>
<pdfrwt beam="1">  1        1 0.95775850E-01 0.11807843E+04</pdfrwt>
<pdfrwt beam="2">  1       -1 0.86138723E-01 0.11807843E+04</pdfrwt>
<totfact> 0.42806611E+01</totfact>
</mgrwt>
</event>
<event>
 6    1  0.1603085E-006  0.3197937E+04  0.7818608E-02  0.8189362E-01
         -1   -1    0    0    0  501 -0.00000000000E+00  0.00000000000E+00  0.25031983364E+04  0.25031983364E+04  0.00000000000E+00 0.  1.
          1   -1    0    0  501    0  0.00000000000E+00 -0.00000000000E+00 -0.10213734479E+04  0.10213734479E+04  0.00000000000E+00 0. -1.
         23    2    1    2    0    0  0.12835532026E+04  0.94984073770E+03  0.80005163035E+03  0.17883341777E+04  0.91379805915E+02 0.  0.
         11    1    3    3    0    0  0.59823577339E+03  0.42041256718E+03  0.31955559598E+03  0.79796525371E+03  0.00000000000E+00 0.  1.
        -11    1    3    3    0    0  0.68531742923E+03  0.52942817052E+03  0.48049603437E+03  0.99036892398E+03  0.00000000000E+00 0. -1.
         22    1    1    2    0    0 -0.12835532026E+04 -0.94984073770E+03  0.68177325818E+03  0.17362376066E+04  0.00000000000E+00 0.  1.
<mgrwt>
<rscale>  0 0.31979370E+04</rscale>
<asrwt>0</asrwt>
<pdfrwt beam="1">  1        1 0.15713438E+00 0.31979370E+04</pdfrwt>
<pdfrwt beam="2">  1       -1 0.38510744E+00 0.31979370E+04</pdfrwt>
<totfact> 0.11001846E-01</totfact>
</mgrwt>
</event>
<event>
 6    1  0.1603085E-006  0.3206173E+04  0.7818608E-02  0.8187189E-01
          1   -1    0    0  501    0  0.00000000000E+00  0.00000000000E+00  0.11956973294E+04  0.11956973294E+04  0.00000000000E+00 0. -1.
         -1   -1    0    0    0  501 -0.00000000000E+00 -0.00000000000E+00 -0.21492781739E+04  0.21492781739E+04  0.00000000000E+00 0.  1.
         23    2    1    2    0    0  0.14624322708E+04  0.65273929334E+03 -0.44709753543E+03  0.16653022987E+04  0.92513826019E+02 0.  0.
         11    1    3    3    0    0  0.88488651696E+03  0.44419750028E+03 -0.27597159286E+03  0.10278598578E+04  0.00000000000E+00 0. -1.
        -11    1    3    3    0    0  0.57754575386E+03  0.20854179306E+03 -0.17112594257E+03  0.63744244091E+03  0.00000000000E+00 0.  1.
         22    1    1    2    0    0 -0.14624322708E+04 -0.65273929334E+03 -0.50648330911E+03  0.16796732046E+04  0.00000000000E+00 0. -1.
<mgrwt>
<rscale>  0 0.32061729E+04</rscale>
<asrwt>0</asrwt>
<pdfrwt beam="1">  1        1 0.18395344E+00 0.32061729E+04</pdfrwt>
<pdfrwt beam="2">  1       -1 0.33065818E+00 0.32061729E+04</pdfrwt>
<totfact> 0.18754620E-01</totfact>
</mgrwt>
</event>
<event>
 6    1  0.1603085E-006  0.1475518E+04  0.7818608E-02  0.8900899E-01
          2   -1    0    0  501    0  0.00000000000E+00  0.00000000000E+00  0.77149493116E+03  0.77149493116E+03  0.00000000000E+00 0. -1.
         -2   -1    0    0    0  501 -0.00000000000E+00 -0.00000000000E+00 -0.70549806194E+03  0.70549806194E+03  0.00000000000E+00 0.  1.
         23    2    1    2    0    0 -0.29226783075E+03 -0.37806346915E+03 -0.52570986786E+03  0.71642127768E+03  0.92391072885E+02 0.  0.
         13    1    3    3    0    0 -0.19772387255E+03 -0.18954083742E+03 -0.32819803429E+03  0.42747445367E+03  0.00000000000E+00 0.  1.
        -13    1    3    3    0    0 -0.94543958197E+02 -0.18852263173E+03 -0.19751183357E+03  0.28894682401E+03  0.00000000000E+00 0. -1.
         22    1    1    2    0    0  0.29226783075E+03  0.37806346915E+03  0.59170673708E+03  0.76057171542E+03  0.00000000000E+00 0. -1.
<mgrwt>
<rscale>  0 0.14755178E+04</rscale>
<asrwt>0</asrwt>
<pdfrwt beam="1">  1        2 0.11869153E+00 0.14755178E+04</pdfrwt>
<pdfrwt beam="2">  1       -2 0.10853816E+00 0.14755178E+04</pdfrwt>
<totfact> 0.23743292E+01</totfact>
</mgrwt>
</event>
<event>
 6    1  0.1603085E-006  0.1359327E+04  0.7818608E-02  0.8983798E-01
         -2   -1    0    0    0  501 -0.00000000000E+00  0.00000000000E+00  0.46134340809E+03  0.46134340809E+03  0.00000000000E+00 0.  1.
          2   -1    0    0  501    0  0.00000000000E+00 -0.00000000000E+00 -0.10012980055E+04  0.10012980055E+04  0.00000000000E+00 0. -1.
         23    2    1    2    0    0  0.64951031396E+03 -0.13008975390E+03 -0.13625387342E+03  0.68690868479E+03  0.12038036056E+03 0.  0.
         13    1    3    3    0    0  0.56910223927E+03 -0.15332607549E+03 -0.12432878518E+03  0.60236524716E+03  0.00000000000E+00 0. -1.
        -13    1    3    3    0    0  0.80408074693E+02  0.23236321586E+02 -0.11925088249E+02  0.84543437631E+02  0.00000000000E+00 0.  1.
         22    1    1    2    0    0 -0.64951031396E+03  0.13008975390E+03 -0.40370072403E+03  0.77573272884E+03  0.00000000000E+00 0. -1.
<mgrwt>
<rscale>  0 0.13593266E+04</rscale>
<asrwt>0</asrwt>
<pdfrwt beam="1">  1        2 0.15404585E+00 0.13593266E+04</pdfrwt>
<pdfrwt beam="2">  1       -2 0.70975909E-01 0.13593266E+04</pdfrwt>
<totfact> 0.44266346E+01</totfact>
</mgrwt>
</event>
<event>
 6    1  0.1603085E-006  0.2637687E+04  0.7818608E-02  0.8355511E-01
         -2   -1    0    0    0  501 -0.00000000000E+00  0.00000000000E+00  0.94445351967E+03  0.94445351967E+03  0.00000000000E+00 0.  1.
          2   -1    0    0  501    0  0.00000000000E+00 -0.00000000000E+00 -0.18416444571E+04  0.18416444571E+04  0.00000000000E+00 0. -1.
         23    2    1    2    0    0  0.51135214302E+03 -0.52188744070E+03 -0.16067655877E+04  0.17675972653E+04  0.94111231266E+02 0.  0.
         13    1    3    3    0    0  0.19133513241E+03 -0.23517727078E+03 -0.75493231537E+03  0.81353566755E+03  0.00000000000E+00 0.  1.
        -13    1    3    3    0    0  0.32001701061E+03 -0.28671016992E+03 -0.85183327228E+03  0.95406159779E+03  0.00000000000E+00 0. -1.
         22    1    1    2    0    0 -0.51135214302E+03  0.52188744070E+03  0.70957465022E+03  0.10185007114E+04  0.00000000000E+00 0.  1.
<mgrwt>
<rscale>  0 0.26376866E+04</rscale>
<asrwt>0</asrwt>
<pdfrwt beam="1">  1        2 0.28332991E+00 0.26376866E+04</pdfrwt>
<pdfrwt beam="2">  1       -2 0.14530055E+00 0.26376866E+04</pdfrwt>
<totfact> 0.23514966E+00</totfact>
</mgrwt>
</event>
<event>
 6    1  0.1603085E-006  0.2990791E+04  0.7818608E-02  0.8246366E-01
          2   -1    0    0  501    0  0.00000000000E+00  0.00000000000E+00  0.10652721322E+04  0.10652721322E+04  0.00000000000E+00 0. -1.
         -2   -1    0    0    0  501 -0.00000000000E+00 -0.00000000000E+00 -0.20991884745E+04  0.20991884745E+04  0.00000000000E+00 0.  1.
         23    2    1    2    0    0  0.13895286064E+04  0.15537543212E+03 -0.10740857248E+04  0.17656951324E+04  0.95330390475E+02 0.  0.
         11    1    3    3    0    0  0.27107196838E+03 -0.65149652536E+01 -0.19698723645E+03  0.33515135109E+03  0.00000000000E+00 0. -1.
        -11    1    3    3    0    0  0.11184566380E+04  0.16189039738E+03 -0.87709848839E+03  0.14305437813E+04  0.00000000000E+00 0.  1.
         22    1    1    2    0    0 -0.13895286064E+04 -0.15537543212E+03  0.40169382504E+02  0.13987654743E+04  0.00000000000E+00 0. -1.
<mgrwt>
<rscale>  0 0.29907905E+04</rscale>
<asrwt>0</asrwt>
<pdfrwt beam="1">  1        2 0.16388802E+00 0.29907905E+04</pdfrwt>
<pdfrwt beam="2">  1       -2 0.32295207E+00 0.29907905E+04</pdfrwt>
<totfact> 0.45026653E-01</totfact>
</mgrwt>
</event>
<event>
 6    1  0.1603085E-006  0.4745892E+04  0.7818608E-02  0.7868948E-01
          2   -1    0    0  501    0  0.00000000000E+00  0.00000000000E+00  0.29245247426E+04  0.29245247426E+04  0.00000000000E+00 0. -1.
         -2   -1    0    0    0  501 -0.00000000000E+00 -0.00000000000E+00 -0.19253977380E+04  0.19253977380E+04  0.00000000000E+00 0.  1.
         23    2    1    2    0    0  0.23532189787E+04 -0.29833319160E+03  0.49319390794E+03  0.24245131227E+04  0.91549966727E+02 0.  0.
         11    1    3    3    0    0  0.10820856339E+04 -0.13330770958E+03  0.27314898985E+03  0.11239620257E+04  0.00000000000E+00 0.  1.
        -11    1    3    3    0    0  0.12711333448E+04 -0.16502548203E+03  0.22004491809E+03  0.13005510970E+04  0.00000000000E+00 0. -1.
         22    1    1    2    0    0 -0.23532189787E+04  0.29833319160E+03  0.50593309659E+03  0.24254093579E+04  0.00000000000E+00 0.  1.
<mgrwt>
<rscale>  0 0.47458923E+04</rscale>
<asrwt>0</asrwt>
<pdfrwt beam="1">  1        2 0.44992688E+00 0.47458923E+04</pdfrwt>
<pdfrwt beam="2">  1       -2 0.29621504E+00 0.47458923E+04</pdfrwt>
<totfact> 0.48301003E-02</totfact>
</mgrwt>
</event>
<event>
 6    1  0.1603085E-006  0.1069077E+04  0.7818608E-02  0.9235867E-01
         -2   -1    0    0    0  501 -0.00000000000E+00  0.00000000000E+00  0.81207957629E+03  0.81207957629E+03  0.00000000000E+00 0.  1.
          2   -1    0    0  501    0  0.00000000000E+00 -0.00000000000E+00 -0.35185117656E+03  0.35185117656E+03  0.00000000000E+00 0. -1.
         23    2    1    2    0    0 -0.45529014498E+03 -0.27240414957E+03  0.21995092359E+03  0.58149929563E+03  0.90938909183E+02 0.  0.
         13    1    3    3    0    0 -0.44011794900E+03 -0.27956732842E+03  0.21096088436E+03  0.56246439432E+03  0.00000000000E+00 0.  1.
        -13    1    3    3    0    0 -0.15172195984E+02  0.71631788509E+01  0.89900392310E+01  0.19034901303E+02  0.00000000000E+00 0. -1.
         22    1    1    2    0    0  0.45529014498E+03  0.27240414957E+03  0.24027747614E+03  0.58243145722E+03  0.00000000000E+00 0. -1.
<mgrwt>
<rscale>  0 0.10690765E+04</rscale>
<asrwt>0</asrwt>
<pdfrwt beam="1">  1        2 0.54130951E-01 0.10690765E+04</pdfrwt>
<pdfrwt beam="2">  1       -2 0.12493532E+00 0.10690765E+04</pdfrwt>
<totfact> 0.43844270E+01</totfact>
</mgrwt>
</event>
<event>
 6    1  0.2694568E-006  0.2998553E+04  0.7818608E-02  0.8244144E-01
          1   -1    0    0  501    0  0.00000000000E+00  0.00000000000E+00  0.11288552597E+04  0.11288552597E+04  0.00000000000E+00 0.  1.
         -1   -1    0    0    0  501 -0.00000000000E+00 -0.00000000000E+00 -0.19912475393E+04  0.19912475393E+04  0.00000000000E+00 0. -1.
         23    2    1    2    0    0  0.52848162546E+03  0.12342052474E+04  0.25931051740E+03  0.13705964156E+04  0.93472824841E+02 0.  0.
         11    1    3    3    0    0  0.19189683745E+03  0.45607708448E+03  0.49910118652E+02  0.49731451130E+03  0.00000000000E+00 0.  1.
        -11    1    3    3    0    0  0.33658478802E+03  0.77812816288E+03  0.20940039875E+03  0.87328190430E+03  0.00000000000E+00 0. -1.
         22    1    1    2    0    0 -0.52848162546E+03 -0.12342052474E+04 -0.11217027970E+04  0.17495063835E+04  0.00000000000E+00 0.  1.
<mgrwt>
<rscale>  0 0.29985532E+04</rscale>
<asrwt>0</asrwt>
<pdfrwt beam="1">  1        1 0.17367004E+00 0.29985532E+04</pdfrwt>
<pdfrwt beam="2">  1       -1 0.30634577E+00 0.29985532E+04</pdfrwt>
<totfact> 0.30832698E-01</totfact>
</mgrwt>
</event>
<event>
 6    1  0.1603085E-006  0.2732758E+04  0.7818608E-02  0.8324454E-01
          1   -1    0    0  501    0  0.00000000000E+00  0.00000000000E+00  0.14659894020E+04  0.14659894020E+04  0.00000000000E+00 0. -1.
         -1   -1    0    0    0  501 -0.00000000000E+00 -0.00000000000E+00 -0.12735365195E+04  0.12735365195E+04  0.00000000000E+00 0.  1.
         23    2    1    2    0    0  0.78444517646E+03  0.19723892431E+03 -0.10057822494E+04  0.12938340941E+04  0.90284560101E+02 0.  0.
         13    1    3    3    0    0  0.12897811797E+03  0.55741155433E+02 -0.21727214038E+03  0.25874623535E+03  0.00000000000E+00 0. -1.
        -13    1    3    3    0    0  0.65546705849E+03  0.14149776888E+03 -0.78851010904E+03  0.10350878588E+04  0.00000000000E+00 0.  1.
         22    1    1    2    0    0 -0.78444517646E+03 -0.19723892431E+03  0.11982351320E+04  0.14456918273E+04  0.00000000000E+00 0. -1.
<mgrwt>
<rscale>  0 0.27327576E+04</rscale>
<asrwt>0</asrwt>
<pdfrwt beam="1">  1        1 0.22553683E+00 0.27327576E+04</pdfrwt>
<pdfrwt beam="2">  1       -1 0.19592870E+00 0.27327576E+04</pdfrwt>
<totfact> 0.96605736E-01</totfact>
</mgrwt>
</event>
<event>
 6    1  0.1603085E-006  0.2388630E+04  0.7818608E-02  0.8443772E-01
         -1   -1    0    0    0  501 -0.00000000000E+00  0.00000000000E+00  0.13628989234E+04  0.13628989234E+04  0.00000000000E+00 0.  1.
          1   -1    0    0  501    0  0.00000000000E+00 -0.00000000000E+00 -0.10465844748E+04  0.10465844748E+04  0.00000000000E+00 0. -1.
         23    2    1    2    0    0 -0.30606828938E+03  0.75723889376E+03 -0.71815276271E+03  0.10914504125E+04  0.91826316670E+02 0.  0.
         11    1    3    3    0    0 -0.15978335839E+03  0.29469760810E+03 -0.32665979356E+03  0.46806412228E+03  0.00000000000E+00 0.  1.
        -11    1    3    3    0    0 -0.14628493099E+03  0.46254128566E+03 -0.39149296915E+03  0.62338629025E+03  0.00000000000E+00 0. -1.
         22    1    1    2    0    0  0.30606828938E+03 -0.75723889376E+03  0.10344672113E+04  0.13180329857E+04  0.00000000000E+00 0.  1.
<mgrwt>
<rscale>  0 0.23886304E+04</rscale>
<asrwt>0</asrwt>
<pdfrwt beam="1">  1        1 0.16101300E+00 0.23886304E+04</pdfrwt>
<pdfrwt beam="2">  1       -1 0.20967676E+00 0.23886304E+04</pdfrwt>
<totfact> 0.16136831E+00</totfact>
</mgrwt>
</event>
<event>
 6    1  0.1603085E-006  0.2359837E+04  0.7818608E-02  0.8454695E-01
         -2   -1    0    0    0  501 -0.00000000000E+00  0.00000000000E+00  0.77078724099E+03  0.77078724099E+03  0.00000000000E+00 0.  1.
          2   -1    0    0  501    0  0.00000000000E+00 -0.00000000000E+00 -0.18062149705E+04  0.18062149705E+04  0.00000000000E+00 0. -1.
         23    2    1    2    0    0 -0.29445998711E+03  0.14751210254E+03 -0.17537486138E+04  0.17867798396E+04  0.92095007819E+02 0.  0.
         13    1    3    3    0    0 -0.29185001438E+03  0.13557394308E+03 -0.15708389978E+04  0.16034624666E+04  0.00000000000E+00 0.  1.
        -13    1    3    3    0    0 -0.26099727316E+01  0.11938159457E+02 -0.18290961598E+03  0.18331737296E+03  0.00000000000E+00 0. -1.
         22    1    1    2    0    0  0.29445998711E+03 -0.14751210254E+03  0.71832088422E+03  0.79022237194E+03  0.00000000000E+00 0.  1.
<mgrwt>
<rscale>  0 0.23598368E+04</rscale>
<asrwt>0</asrwt>
<pdfrwt beam="1">  1        2 0.27787922E+00 0.23598368E+04</pdfrwt>
<pdfrwt beam="2">  1       -2 0.11858265E+00 0.23598368E+04</pdfrwt>
<totfact> 0.42242244E+00</totfact>
</mgrwt>
</event>
<event>
 6    1  0.1603085E-006  0.2338539E+04  0.7818608E-02  0.8462879E-01
         -1   -1    0    0    0  501 -0.00000000000E+00  0.00000000000E+00  0.67187485130E+03  0.67187485130E+03  0.00000000000E+00 0.  1.
          1   -1    0    0  501    0  0.00000000000E+00 -0.00000000000E+00 -0.20348904146E+04  0.20348904146E+04  0.00000000000E+00 0. -1.
         23    2    1    2    0    0 -0.27247837339E+03 -0.65785867847E+02 -0.19943587173E+04  0.20159929282E+04  0.90490601695E+02 0.  0.
         13    1    3    3    0    0 -0.15478724572E+03  0.91024519210E+01 -0.10494663219E+04  0.10608588534E+04  0.00000000000E+00 0.  1.
        -13    1    3    3    0    0 -0.11769112766E+03 -0.74888319768E+02 -0.94489239539E+03  0.95513407479E+03  0.00000000000E+00 0. -1.
         22    1    1    2    0    0  0.27247837339E+03  0.65785867847E+02  0.63134315401E+03  0.69077233767E+03  0.00000000000E+00 0.  1.
<mgrwt>
<rscale>  0 0.23385395E+04</rscale>
<asrwt>0</asrwt>
<pdfrwt beam="1">  1        1 0.31306006E+00 0.23385395E+04</pdfrwt>
<pdfrwt beam="2">  1       -1 0.10336536E+00 0.23385395E+04</pdfrwt>
<totfact> 0.22442871E+00</totfact>
</mgrwt>
</event>
<event>
 6    1  0.1603085E-006  0.1830265E+04  0.7818608E-02  0.8690368E-01
          2   -1    0    0  501    0  0.00000000000E+00  0.00000000000E+00  0.15000179274E+04  0.15000179274E+04  0.00000000000E+00 0. -1.
         -2   -1    0    0    0  501 -0.00000000000E+00 -0.00000000000E+00 -0.55830518390E+03  0.55830518390E+03  0.00000000000E+00 0.  1.
         23    2    1    2    0    0  0.23896484305E+03  0.87285753624E+03  0.33725151964E+03  0.97004104953E+03  0.90865700267E+02 0.  0.
         11    1    3    3    0    0  0.18459063940E+03  0.75981981990E+03  0.31323107841E+03  0.84232628556E+03  0.00000000000E+00 0. -1.
        -11    1    3    3    0    0  0.54374203648E+02  0.11303771634E+03  0.24020441227E+02  0.12771476397E+03  0.00000000000E+00 0.  1.
         22    1    1    2    0    0 -0.23896484305E+03 -0.87285753624E+03  0.60446122382E+03  0.10882820617E+04  0.00000000000E+00 0.  1.
<mgrwt>
<rscale>  0 0.18302653E+04</rscale>
<asrwt>0</asrwt>
<pdfrwt beam="1">  1        2 0.23077199E+00 0.18302653E+04</pdfrwt>
<pdfrwt beam="2">  1       -2 0.85893106E-01 0.18302653E+04</pdfrwt>
<totfact> 0.14065031E+01</totfact>
</mgrwt>
</event>
<event>
 6    1  0.1603085E-006  0.2874479E+04  0.7818608E-02  0.8280512E-01
         -1   -1    0    0    0  501 -0.00000000000E+00  0.00000000000E+00  0.15968329768E+04  0.15968329768E+04  0.00000000000E+00 0.  1.
          1   -1    0    0  501    0  0.00000000000E+00 -0.00000000000E+00 -0.12935962038E+04  0.12935962038E+04  0.00000000000E+00 0. -1.
         23    2    1    2    0    0 -0.47729552888E+01  0.73516903319E+03  0.13919026271E+04  0.15767741155E+04  0.91254586334E+02 0.  0.
         13    1    3    3    0    0 -0.32078453939E+02  0.55007690089E+03  0.10953545945E+04  0.12261383738E+04  0.00000000000E+00 0. -1.
        -13    1    3    3    0    0  0.27305498650E+02  0.18509213230E+03  0.29654803262E+03  0.35063574169E+03  0.00000000000E+00 0.  1.
         22    1    1    2    0    0  0.47729552888E+01 -0.73516903319E+03 -0.10886658540E+04  0.13136550651E+04  0.00000000000E+00 0. -1.
<mgrwt>
<rscale>  0 0.28744788E+04</rscale>
<asrwt>0</asrwt>
<pdfrwt beam="1">  1        1 0.19901480E+00 0.28744788E+04</pdfrwt>
<pdfrwt beam="2">  1       -1 0.24566661E+00 0.28744788E+04</pdfrwt>
<totfact> 0.58524707E-01</totfact>
</mgrwt>
</event>
<event>
 6    1  0.1603085E-006  0.8548383E+03  0.7818608E-02  0.9483866E-01
          2   -1    0    0  501    0  0.00000000000E+00  0.00000000000E+00  0.15898925108E+03  0.15898925108E+03  0.00000000000E+00 0. -1.
         -2   -1    0    0    0  501 -0.00000000000E+00 -0.00000000000E+00 -0.11490533716E+04  0.11490533716E+04  0.00000000000E+00 0.  1.
         23    2    1    2    0    0  0.56158946703E+01 -0.34040073989E+03 -0.11859233029E+03  0.37243197548E+03  0.93473170276E+02 0.  0.
         13    1    3    3    0    0  0.37549827349E+02 -0.70078953678E+02 -0.40633239828E+02  0.89286670122E+02  0.00000000000E+00 0.  1.
        -13    1    3    3    0    0 -0.31933932679E+02 -0.27032178622E+03 -0.77959090462E+02  0.28314530536E+03  0.00000000000E+00 0. -1.
         22    1    1    2    0    0 -0.56158946703E+01  0.34040073989E+03 -0.87147179018E+03  0.93561064716E+03  0.00000000000E+00 0.  1.
<mgrwt>
<rscale>  0 0.85483831E+03</rscale>
<asrwt>0</asrwt>
<pdfrwt beam="1">  1        2 0.24459886E-01 0.85483831E+03</pdfrwt>
<pdfrwt beam="2">  1       -2 0.17677744E+00 0.85483831E+03</pdfrwt>
<totfact> 0.43229015E+01</totfact>
</mgrwt>
</event>
<event>
 6    1  0.1603085E-006  0.1917998E+04  0.7818608E-02  0.8645949E-01
          1   -1    0    0  501    0  0.00000000000E+00  0.00000000000E+00  0.97971288694E+03  0.97971288694E+03  0.00000000000E+00 0. -1.
         -1   -1    0    0    0  501 -0.00000000000E+00 -0.00000000000E+00 -0.93872343422E+03  0.93872343422E+03  0.00000000000E+00 0.  1.
         23    2    1    2    0    0 -0.17483333541E+03 -0.44298923424E+03 -0.80952111238E+03  0.94366743667E+03  0.91529464212E+02 0.  0.
         13    1    3    3    0    0 -0.78451061703E+02 -0.26503918019E+03 -0.53994470921E+03  0.60658109526E+03  0.00000000000E+00 0. -1.
        -13    1    3    3    0    0 -0.96382273706E+02 -0.17795005405E+03 -0.26957640316E+03  0.33708634141E+03  0.00000000000E+00 0.  1.
         22    1    1    2    0    0  0.17483333541E+03  0.44298923424E+03  0.85051056509E+03  0.97476888449E+03  0.00000000000E+00 0. -1.
<mgrwt>
<rscale>  0 0.19179984E+04</rscale>
<asrwt>0</asrwt>
<pdfrwt beam="1">  1        1 0.15072506E+00 0.19179984E+04</pdfrwt>
<pdfrwt beam="2">  1       -1 0.14441899E+00 0.19179984E+04</pdfrwt>
<totfact> 0.56634908E+00</totfact>
</mgrwt>
</event>
<event>
 6    1  0.1603085E-006  0.3427360E+04  0.7818608E-02  0.8131224E-01
         -2   -1    0    0    0  501 -0.00000000000E+00  0.00000000000E+00  0.85040271015E+03  0.85040271015E+03  0.00000000000E+00 0.  1.
          2   -1    0    0  501    0  0.00000000000E+00 -0.00000000000E+00 -0.34533042469E+04  0.34533042469E+04  0.00000000000E+00 0. -1.
         23    2    1    2    0    0 -0.14483554143E+04  0.77231521612E+03 -0.68911722682E+03  0.17824424759E+04  0.89523339340E+02 0.  0.
         11    1    3    3    0    0 -0.66163416740E+03  0.40247027358E+03 -0.33415613918E+03  0.84344674872E+03  0.00000000000E+00 0. -1.
        -11    1    3    3    0    0 -0.78672124689E+03  0.36984494255E+03 -0.35496108764E+03  0.93899572713E+03  0.00000000000E+00 0.  1.
         22    1    1    2    0    0  0.14483554143E+04 -0.77231521612E+03 -0.19137843099E+04  0.25212644812E+04  0.00000000000E+00 0. -1.
<mgrwt>
<rscale>  0 0.34273601E+04</rscale>
<asrwt>0</asrwt>
<pdfrwt beam="1">  1        2 0.53127758E+00 0.34273601E+04</pdfrwt>
<pdfrwt beam="2">  1       -2 0.13083118E+00 0.34273601E+04</pdfrwt>
<totfact> 0.30904983E-01</totfact>
</mgrwt>
</event>
<event>
 6    1  0.2712899E-006  0.4495466E+04  0.7818608E-02  0.7911431E-01
         -1   -1    0    0    0  501 -0.00000000000E+00  0.00000000000E+00  0.17833782371E+04  0.17833782371E+04  0.00000000000E+00 0.  1.
          1   -1    0    0  501    0  0.00000000000E+00 -0.00000000000E+00 -0.28329966796E+04  0.28329966796E+04  0.00000000000E+00 0. -1.
         23    2    1    2    0    0 -0.20132014159E+04  0.37189638368E+03  0.42571948890E+03  0.20929033253E+04  0.87865719867E+02 0.  0.
         13    1    3    3    0    0 -0.13021937148E+04  0.28219294982E+03  0.28588906601E+03  0.13627449834E+04  0.00000000000E+00 0. -1.
        -13    1    3    3    0    0 -0.71100770107E+03  0.89703433862E+02  0.13983042289E+03  0.73015834186E+03  0.00000000000E+00 0.  1.
         22    1    1    2    0    0  0.20132014159E+04 -0.37189638368E+03 -0.14753379314E+04  0.25234715915E+04  0.00000000000E+00 0. -1.
<mgrwt>
<rscale>  0 0.44954664E+04</rscale>
<asrwt>0</asrwt>
<pdfrwt beam="1">  1        1 0.43584564E+00 0.44954664E+04</pdfrwt>
<pdfrwt beam="2">  1       -1 0.27436588E+00 0.44954664E+04</pdfrwt>
<totfact> 0.28721156E-02</totfact>
</mgrwt>
</event>
<event>
 6    1  0.1603085E-006  0.1508228E+04  0.7818608E-02  0.8879000E-01
          2   -1    0    0  501    0  0.00000000000E+00  0.00000000000E+00  0.19290970108E+04  0.19290970108E+04  0.00000000000E+00 0. -1.
         -2   -1    0    0    0  501 -0.00000000000E+00 -0.00000000000E+00 -0.29479474133E+03  0.29479474133E+03  0.00000000000E+00 0.  1.
         23    2    1    2    0    0 -0.62199646860E+03 -0.42142791906E+03  0.84970852499E+03  0.11375822006E+04  0.87221486718E+02 0.  0.
         13    1    3    3    0    0 -0.43398053951E+03 -0.24422531045E+03  0.55526253155E+03  0.74585627964E+03  0.00000000000E+00 0. -1.
        -13    1    3    3    0    0 -0.18801592909E+03 -0.17720260861E+03  0.29444599344E+03  0.39172592095E+03  0.00000000000E+00 0.  1.
         22    1    1    2    0    0  0.62199646860E+03  0.42142791906E+03  0.78459374452E+03  0.10863095516E+04  0.00000000000E+00 0.  1.
<mgrwt>
<rscale>  0 0.15082276E+04</rscale>
<asrwt>0</asrwt>
<pdfrwt beam="1">  1        2 0.29678415E+00 0.15082276E+04</pdfrwt>
<pdfrwt beam="2">  1       -2 0.45353038E-01 0.15082276E+04</pdfrwt>
<totfact> 0.32575901E+01</totfact>
</mgrwt>
</event>
<event>
 6    1  0.1603085E-006  0.3102464E+04  0.7818608E-02  0.8215062E-01
          2   -1    0    0  501    0  0.00000000000E+00  0.00000000000E+00  0.32359898079E+04  0.32359898079E+04  0.00000000000E+00 0. -1.
         -2   -1    0    0    0  501 -0.00000000000E+00 -0.00000000000E+00 -0.74361181697E+03  0.74361181697E+03  0.00000000000E+00 0.  1.
         23    2    1    2    0    0 -0.10604841684E+03 -0.72595487635E+03 -0.50361182127E+03  0.89509004213E+03  0.96460187568E+02 0.  0.
         11    1    3    3    0    0 -0.69512847871E+02 -0.50815042748E+03 -0.29703881016E+03  0.59268958799E+03  0.00000000000E+00 0.  1.
        -11    1    3    3    0    0 -0.36535568966E+02 -0.21780444888E+03 -0.20657301110E+03  0.30240045414E+03  0.00000000000E+00 0. -1.
         22    1    1    2    0    0  0.10604841684E+03  0.72595487635E+03  0.29959898122E+04  0.30845115828E+04  0.00000000000E+00 0. -1.
<mgrwt>
<rscale>  0 0.31024637E+04</rscale>
<asrwt>0</asrwt>
<pdfrwt beam="1">  1        2 0.49784458E+00 0.31024637E+04</pdfrwt>
<pdfrwt beam="2">  1       -2 0.11440182E+00 0.31024637E+04</pdfrwt>
<totfact> 0.62206608E-01</totfact>
</mgrwt>
</event>
<event>
 6    1  0.1603085E-006  0.7757423E+03  0.7818608E-02  0.9595808E-01
         -3   -1    0    0    0  501 -0.00000000000E+00  0.00000000000E+00  0.74189793737E+03  0.74189793737E+03  0.00000000000E+00 0.  1.
          3   -1    0    0  501    0  0.00000000000E+00 -0.00000000000E+00 -0.20278266754E+03  0.20278266754E+03  0.00000000000E+00 0. -1.
         23    2    1    2    0    0  0.59137893701E+01  0.35695333858E+03  0.10649049779E+03  0.38377521875E+03  0.92154943323E+02 0.  0.
         13    1    3    3    0    0 -0.25823923105E+02  0.29151082251E+03  0.10534005272E+03  0.31103369810E+03  0.00000000000E+00 0.  1.
        -13    1    3    3    0    0  0.31737712475E+02  0.65442516077E+02  0.11504450630E+01  0.72741520657E+02  0.00000000000E+00 0. -1.
         22    1    1    2    0    0 -0.59137893701E+01 -0.35695333858E+03  0.43262477204E+03  0.56090538615E+03  0.00000000000E+00 0.  1.
<mgrwt>
<rscale>  0 0.77574234E+03</rscale>
<asrwt>0</asrwt>
<pdfrwt beam="1">  1        3 0.31197334E-01 0.77574234E+03</pdfrwt>
<pdfrwt beam="2">  1       -3 0.11413814E+00 0.77574234E+03</pdfrwt>
<totfact> 0.16931937E+01</totfact>
</mgrwt>
</event>
<event>
 6    1  0.1603085E-006  0.3483181E+04  0.7818608E-02  0.8117787E-01
          1   -1    0    0  501    0  0.00000000000E+00  0.00000000000E+00  0.21464385601E+04  0.21464385601E+04  0.00000000000E+00 0. -1.
         -1   -1    0    0    0  501 -0.00000000000E+00 -0.00000000000E+00 -0.14131027597E+04  0.14131027597E+04  0.00000000000E+00 0.  1.
         23    2    1    2    0    0  0.92539509992E+03  0.14200311329E+04  0.77119511271E+03  0.18641717917E+04  0.86891068907E+02 0.  0.
         13    1    3    3    0    0  0.26640452144E+03  0.41478287607E+03  0.18150823973E+03  0.52532032552E+03  0.00000000000E+00 0.  1.
        -13    1    3    3    0    0  0.65899057848E+03  0.10052482568E+04  0.58968687298E+03  0.13388514662E+04  0.00000000000E+00 0. -1.
         22    1    1    2    0    0 -0.92539509992E+03 -0.14200311329E+04 -0.37859312271E+02  0.16953695281E+04  0.00000000000E+00 0. -1.
<mgrwt>
<rscale>  0 0.34831814E+04</rscale>
<asrwt>0</asrwt>
<pdfrwt beam="1">  1        1 0.33022132E+00 0.34831814E+04</pdfrwt>
<pdfrwt beam="2">  1       -1 0.21740042E+00 0.34831814E+04</pdfrwt>
<totfact> 0.22180286E-01</totfact>
</mgrwt>
</event>
<event>
 6    1  0.1603085E-006  0.8164909E+03  0.7818608E-02  0.9536449E-01
         -1   -1    0    0    0  501 -0.00000000000E+00  0.00000000000E+00  0.35485392762E+03  0.35485392762E+03  0.00000000000E+00 0. -1.
          1   -1    0    0  501    0  0.00000000000E+00 -0.00000000000E+00 -0.46967025729E+03  0.46967025729E+03  0.00000000000E+00 0.  1.
         23    2    1    2    0    0  0.40002677513E+03 -0.11965545400E+02 -0.10697716895E+03  0.42424172521E+03  0.91500446106E+02 0.  0.
         11    1    3    3    0    0  0.23204672015E+03  0.21369039689E+02 -0.97862475020E+02  0.25274370458E+03  0.00000000000E+00 0. -1.
        -11    1    3    3    0    0  0.16798005498E+03 -0.33334585089E+02 -0.91146939278E+01  0.17149802063E+03  0.00000000000E+00 0.  1.
         22    1    1    2    0    0 -0.40002677513E+03  0.11965545400E+02 -0.78391607251E+01  0.40028245969E+03  0.00000000000E+00 0.  1.
<mgrwt>
<rscale>  0 0.81649087E+03</rscale>
<asrwt>0</asrwt>
<pdfrwt beam="1">  1        1 0.72256962E-01 0.81649087E+03</pdfrwt>
<pdfrwt beam="2">  1       -1 0.54592912E-01 0.81649087E+03</pdfrwt>
<totfact> 0.16558437E+02</totfact>
</mgrwt>
</event>
<event>
 6    1  0.1603085E-006  0.1079629E+04  0.7818608E-02  0.9225277E-01
         -1   -1    0    0    0  501 -0.00000000000E+00  0.00000000000E+00  0.51113300607E+03  0.51113300607E+03  0.00000000000E+00 0.  1.
          1   -1    0    0  501    0  0.00000000000E+00 -0.00000000000E+00 -0.57010551940E+03  0.57010551940E+03  0.00000000000E+00 0. -1.
         23    2    1    2    0    0  0.23399222283E+03 -0.34909881986E+03  0.30339713800E+03  0.52632041388E+03  0.91329121034E+02 0.  0.
         13    1    3    3    0    0  0.95608636303E+02 -0.10445430443E+03  0.14932717409E+03  0.20579192883E+03  0.00000000000E+00 0.  1.
        -13    1    3    3    0    0  0.13838358653E+03 -0.24464451543E+03  0.15406996391E+03  0.32052848505E+03  0.00000000000E+00 0. -1.
         22    1    1    2    0    0 -0.23399222283E+03  0.34909881986E+03 -0.36236965133E+03  0.55491811159E+03  0.00000000000E+00 0. -1.
<mgrwt>
<rscale>  0 0.10796291E+04</rscale>
<asrwt>0</asrwt>
<pdfrwt beam="1">  1        1 0.87708541E-01 0.10796291E+04</pdfrwt>
<pdfrwt beam="2">  1       -1 0.78635847E-01 0.10796291E+04</pdfrwt>
<totfact> 0.59542796E+01</totfact>
</mgrwt>
</event>
<event>
 6    1  0.1603085E-006  0.2609426E+04  0.7818608E-02  0.8365007E-01
          2   -1    0    0  501    0  0.00000000000E+00  0.00000000000E+00  0.11569889802E+04  0.11569889802E+04  0.00000000000E+00 0. -1.
         -2   -1    0    0    0  501 -0.00000000000E+00 -0.00000000000E+00 -0.14712980533E+04  0.14712980533E+04  0.00000000000E+00 0.  1.
         23    2    1    2    0    0 -0.59768379721E+02  0.90639300679E+03  0.78369120308E+03  0.12032518940E+04  0.92318344712E+02 0.  0.
         11    1    3    3    0    0 -0.25531424720E+02  0.61126145134E+02  0.44126420652E+02  0.79595227664E+02  0.00000000000E+00 0. -1.
        -11    1    3    3    0    0 -0.34236955001E+02  0.84526686166E+03  0.73956478243E+03  0.11236566664E+04  0.00000000000E+00 0.  1.
         22    1    1    2    0    0  0.59768379721E+02 -0.90639300679E+03 -0.10980002762E+04  0.14250351394E+04  0.00000000000E+00 0.  1.
<mgrwt>
<rscale>  0 0.26094257E+04</rscale>
<asrwt>0</asrwt>
<pdfrwt beam="1">  1        2 0.17799831E+00 0.26094257E+04</pdfrwt>
<pdfrwt beam="2">  1       -2 0.22635355E+00 0.26094257E+04</pdfrwt>
<totfact> 0.16013861E+00</totfact>
</mgrwt>
</event>
<event>
 6    1  0.1603085E-006  0.1747686E+04  0.7818608E-02  0.8734625E-01
         -2   -1    0    0    0  501 -0.00000000000E+00  0.00000000000E+00  0.68238587289E+03  0.68238587289E+03  0.00000000000E+00 0.  1.
          2   -1    0    0  501    0  0.00000000000E+00 -0.00000000000E+00 -0.11190177659E+04  0.11190177659E+04  0.00000000000E+00 0. -1.
         23    2    1    2    0    0  0.49759896555E+03 -0.23071712754E+03 -0.91662358265E+03  0.10725503301E+04  0.96593451099E+02 0.  0.
         13    1    3    3    0    0  0.27988490831E+03 -0.77566589014E+02 -0.46051325212E+03  0.54444888925E+03  0.00000000000E+00 0. -1.
        -13    1    3    3    0    0  0.21771405723E+03 -0.15315053852E+03 -0.45611033053E+03  0.52810144081E+03  0.00000000000E+00 0.  1.
         22    1    1    2    0    0 -0.49759896555E+03  0.23071712754E+03  0.47999168967E+03  0.72885330870E+03  0.00000000000E+00 0.  1.
<mgrwt>
<rscale>  0 0.17476864E+04</rscale>
<asrwt>0</asrwt>
<pdfrwt beam="1">  1        2 0.17215658E+00 0.17476864E+04</pdfrwt>
<pdfrwt beam="2">  1       -2 0.10498244E+00 0.17476864E+04</pdfrwt>
<totfact> 0.14786292E+01</totfact>
</mgrwt>
</event>
<event>
 6    1  0.1603085E-006  0.3529375E+04  0.7818608E-02  0.8106864E-01
         -1   -1    0    0    0  501 -0.00000000000E+00  0.00000000000E+00  0.12455491726E+04  0.12455491726E+04  0.00000000000E+00 0.  1.
          1   -1    0    0  501    0  0.00000000000E+00 -0.00000000000E+00 -0.25001994722E+04  0.25001994722E+04  0.00000000000E+00 0. -1.
         23    2    1    2    0    0  0.68424896864E+03 -0.12306456578E+04  0.49907332031E+03  0.14966973068E+04  0.91341463271E+02 0.  0.
         11    1    3    3    0    0  0.46992820583E+03 -0.75577587642E+03  0.30691617017E+03  0.94139642528E+03  0.00000000000E+00 0. -1.
        -11    1    3    3    0    0  0.21432076280E+03 -0.47486978141E+03  0.19215715014E+03  0.55530088152E+03  0.00000000000E+00 0.  1.
         22    1    1    2    0    0 -0.68424896864E+03  0.12306456578E+04 -0.17537236199E+04  0.22490513381E+04  0.00000000000E+00 0. -1.
<mgrwt>
<rscale>  0 0.35293747E+04</rscale>
<asrwt>0</asrwt>
<pdfrwt beam="1">  1        1 0.38464607E+00 0.35293747E+04</pdfrwt>
<pdfrwt beam="2">  1       -1 0.19162295E+00 0.35293747E+04</pdfrwt>
<totfact> 0.18968935E-01</totfact>
</mgrwt>
</event>
<event>
 6    1  0.1603085E-006  0.1454569E+04  0.7818608E-02  0.8915239E-01
         -2   -1    0    0    0  501 -0.00000000000E+00  0.00000000000E+00  0.32986465666E+03  0.32986465666E+03  0.00000000000E+00 0.  1.
          2   -1    0    0  501    0  0.00000000000E+00 -0.00000000000E+00 -0.16035144349E+04  0.16035144349E+04  0.00000000000E+00 0. -1.
         23    2    1    2    0    0 -0.13104251308E+03  0.70271332390E+03 -0.79528740435E+03  0.10732577533E+04  0.91771420500E+02 0.  0.
         13    1    3    3    0    0 -0.55033151208E+02  0.51044976219E+03 -0.58557154309E+03  0.77876931085E+03  0.00000000000E+00 0.  1.
        -13    1    3    3    0    0 -0.76009361875E+02  0.19226356171E+03 -0.20971586126E+03  0.29448844242E+03  0.00000000000E+00 0. -1.
         22    1    1    2    0    0  0.13104251308E+03 -0.70271332390E+03 -0.47836237387E+03  0.86012133827E+03  0.00000000000E+00 0.  1.
<mgrwt>
<rscale>  0 0.14545690E+04</rscale>
<asrwt>0</asrwt>
<pdfrwt beam="1">  1        2 0.24669453E+00 0.14545690E+04</pdfrwt>
<pdfrwt beam="2">  1       -2 0.50748409E-01 0.14545690E+04</pdfrwt>
<totfact> 0.39500947E+01</totfact>
</mgrwt>
</event>
<event>
 6    1  0.1603085E-006  0.7506651E+03  0.7818608E-02  0.9634307E-01
         -2   -1    0    0    0  501 -0.00000000000E+00  0.00000000000E+00  0.26697274376E+03  0.26697274376E+03  0.00000000000E+00 0.  1.
          2   -1    0    0  501    0  0.00000000000E+00 -0.00000000000E+00 -0.52767386452E+03  0.52767386452E+03  0.00000000000E+00 0. -1.
         23    2    1    2    0    0 -0.27566005561E+03 -0.18930233386E+03  0.34793937212E+02  0.34839424789E+03  0.91346012674E+02 0.  0.
         13    1    3    3    0    0 -0.11314942597E+03 -0.12905037772E+03  0.34553711841E+02  0.17507356051E+03  0.00000000000E+00 0. -1.
        -13    1    3    3    0    0 -0.16251062964E+03 -0.60251956134E+02  0.24022537146E+00  0.17332068738E+03  0.00000000000E+00 0.  1.
         22    1    1    2    0    0  0.27566005561E+03  0.18930233386E+03 -0.29549505797E+03  0.44625236038E+03  0.00000000000E+00 0. -1.
<mgrwt>
<rscale>  0 0.75066514E+03</rscale>
<asrwt>0</asrwt>
<pdfrwt beam="1">  1        2 0.81180595E-01 0.75066514E+03</pdfrwt>
<pdfrwt beam="2">  1       -2 0.41072730E-01 0.75066514E+03</pdfrwt>
<totfact> 0.32698754E+02</totfact>
</mgrwt>
</event>
<event>
 6    1  0.1603085E-006  0.1158660E+04  0.7818608E-02  0.9149831E-01
          2   -1    0    0  501    0  0.00000000000E+00  0.00000000000E+00  0.82407579477E+03  0.82407579477E+03  0.00000000000E+00 0. -1.
         -2   -1    0    0    0  501 -0.00000000000E+00 -0.00000000000E+00 -0.40727242520E+03  0.40727242520E+03  0.00000000000E+00 0.  1.
         23    2    1    2    0    0  0.34120563226E+03 -0.46654129987E+03  0.20096395199E+03  0.61436465280E+03  0.54546756456E+02 0.  0.
         13    1    3    3    0    0  0.21722207973E+03 -0.30432588432E+03  0.10251182487E+03  0.38769620843E+03  0.00000000000E+00 0.  1.
        -13    1    3    3    0    0  0.12398355253E+03 -0.16221541555E+03  0.98452127126E+02  0.22666844438E+03  0.00000000000E+00 0. -1.
         22    1    1    2    0    0 -0.34120563226E+03  0.46654129987E+03  0.21583941757E+03  0.61698356716E+03  0.00000000000E+00 0.  1.
<mgrwt>
<rscale>  0 0.11586602E+04</rscale>
<asrwt>0</asrwt>
<pdfrwt beam="1">  1        2 0.12678089E+00 0.11586602E+04</pdfrwt>
<pdfrwt beam="2">  1       -2 0.62657296E-01 0.11586602E+04</pdfrwt>
<totfact> 0.77380413E+01</totfact>
</mgrwt>
</event>
<event>
 6    1  0.1603085E-006  0.2393922E+04  0.7818608E-02  0.8441783E-01
         -1   -1    0    0    0  501 -0.00000000000E+00  0.00000000000E+00  0.11054559327E+04  0.11054559327E+04  0.00000000000E+00 0.  1.
          1   -1    0    0  501    0  0.00000000000E+00 -0.00000000000E+00 -0.12960400730E+04  0.12960400730E+04  0.00000000000E+00 0. -1.
         23    2    1    2    0    0 -0.87554997422E+03 -0.15675648036E+03  0.70538722395E+03  0.11389885654E+04  0.92538990796E+02 0.  0.
         13    1    3    3    0    0 -0.36315987179E+03 -0.44538888353E+02  0.23839147477E+03  0.43669131008E+03  0.00000000000E+00 0. -1.
        -13    1    3    3    0    0 -0.51239010242E+03 -0.11221759201E+03  0.46699574918E+03  0.70229725528E+03  0.00000000000E+00 0.  1.
         22    1    1    2    0    0  0.87554997422E+03  0.15675648036E+03 -0.89597136426E+03  0.12625074404E+04  0.00000000000E+00 0. -1.
<mgrwt>
<rscale>  0 0.23939216E+04</rscale>
<asrwt>0</asrwt>
<pdfrwt beam="1">  1        1 0.19939078E+00 0.23939216E+04</pdfrwt>
<pdfrwt beam="2">  1       -1 0.17007014E+00 0.23939216E+04</pdfrwt>
<totfact> 0.20064484E+00</totfact>
</mgrwt>
</event>
<event>
 6    1  0.1603085E-006  0.4570973E+04  0.7818608E-02  0.7898328E-01
          2   -1    0    0  501    0  0.00000000000E+00  0.00000000000E+00  0.40750521451E+04  0.40750521451E+04  0.00000000000E+00 0. -1.
         -2   -1    0    0    0  501 -0.00000000000E+00 -0.00000000000E+00 -0.12818112553E+04  0.12818112553E+04  0.00000000000E+00 0.  1.
         23    2    1    2    0    0 -0.83144159565E+02 -0.21096185426E+04  0.24201212683E+04  0.32128900799E+04  0.90952546742E+02 0.  0.
         11    1    3    3    0    0 -0.46779550220E+02 -0.12901810435E+04  0.14122723825E+04  0.19134442071E+04  0.00000000000E+00 0. -1.
        -11    1    3    3    0    0 -0.36364609345E+02 -0.81943749913E+03  0.10078488859E+04  0.12994458729E+04  0.00000000000E+00 0.  1.
         22    1    1    2    0    0  0.83144159565E+02  0.21096185426E+04  0.37311962149E+03  0.21439733204E+04  0.00000000000E+00 0.  1.
<mgrwt>
<rscale>  0 0.45709726E+04</rscale>
<asrwt>0</asrwt>
<pdfrwt beam="1">  1        2 0.62693109E+00 0.45709726E+04</pdfrwt>
<pdfrwt beam="2">  1       -2 0.19720173E+00 0.45709726E+04</pdfrwt>
<totfact> 0.30890976E-02</totfact>
</mgrwt>
</event>
<event>
 6    1  0.1603085E-006  0.3998938E+04  0.7818608E-02  0.8004761E-01
          1   -1    0    0  501    0  0.00000000000E+00  0.00000000000E+00  0.20669412383E+04  0.20669412383E+04  0.00000000000E+00 0. -1.
         -1   -1    0    0    0  501 -0.00000000000E+00 -0.00000000000E+00 -0.19341997124E+04  0.19341997124E+04  0.00000000000E+00 0.  1.
         23    2    1    2    0    0  0.12948344238E+04 -0.11049237569E+04 -0.98122743836E+03  0.19668401994E+04  0.90556006547E+02 0.  0.
         11    1    3    3    0    0  0.10392902757E+04 -0.86325134733E+03 -0.74103259338E+03  0.15409271463E+04  0.00000000000E+00 0.  1.
        -11    1    3    3    0    0  0.25554414818E+03 -0.24167240954E+03 -0.24019484498E+03  0.42591305305E+03  0.00000000000E+00 0. -1.
         22    1    1    2    0    0 -0.12948344238E+04  0.11049237569E+04  0.11139689642E+04  0.20343007514E+04  0.00000000000E+00 0. -1.
<mgrwt>
<rscale>  0 0.39989384E+04</rscale>
<asrwt>0</asrwt>
<pdfrwt beam="1">  1        1 0.31799096E+00 0.39989384E+04</pdfrwt>
<pdfrwt beam="2">  1       -1 0.29756919E+00 0.39989384E+04</pdfrwt>
<totfact> 0.71937709E-02</totfact>
</mgrwt>
</event>
<event>
 6    1  0.1603085E-006  0.1501811E+04  0.7818608E-02  0.8883249E-01
         -1   -1    0    0    0  501 -0.00000000000E+00  0.00000000000E+00  0.12890353476E+04  0.12890353476E+04  0.00000000000E+00 0.  1.
          1   -1    0    0  501    0  0.00000000000E+00 -0.00000000000E+00 -0.43742719461E+03  0.43742719461E+03  0.00000000000E+00 0. -1.
         23    2    1    2    0    0 -0.74994470366E+02 -0.70213345599E+03  0.14334161256E+03  0.72633402401E+03  0.91644617612E+02 0.  0.
         11    1    3    3    0    0 -0.53381317488E+02 -0.32114641087E+03  0.10845548192E+03  0.34314308070E+03  0.00000000000E+00 0.  1.
        -11    1    3    3    0    0 -0.21613152879E+02 -0.38098704511E+03  0.34886130639E+02  0.38319094331E+03  0.00000000000E+00 0. -1.
         22    1    1    2    0    0  0.74994470366E+02  0.70213345599E+03  0.70826654040E+03  0.10001285182E+04  0.00000000000E+00 0.  1.
<mgrwt>
<rscale>  0 0.15018111E+04</rscale>
<asrwt>0</asrwt>
<pdfrwt beam="1">  1        1 0.67296492E-01 0.15018111E+04</pdfrwt>
<pdfrwt beam="2">  1       -1 0.19831313E+00 0.15018111E+04</pdfrwt>
<totfact> 0.79548570E+00</totfact>
</mgrwt>
</event>
<event>
 6    1  0.1603085E-006  0.3928811E+04  0.7818608E-02  0.8019064E-01
          2   -1    0    0  501    0  0.00000000000E+00  0.00000000000E+00  0.24830670018E+04  0.24830670018E+04  0.00000000000E+00 0. -1.
         -2   -1    0    0    0  501 -0.00000000000E+00 -0.00000000000E+00 -0.15540813632E+04  0.15540813632E+04  0.00000000000E+00 0.  1.
         23    2    1    2    0    0 -0.19322106058E+04  0.98359191814E+02  0.12152561526E+03  0.19406980210E+04  0.91804017718E+02 0.  0.
         11    1    3    3    0    0 -0.53495130803E+03  0.19955337808E+02  0.74195059800E+02  0.54044058357E+03  0.00000000000E+00 0.  1.
        -11    1    3    3    0    0 -0.13972592978E+04  0.78403854006E+02  0.47330555458E+02  0.14002574374E+04  0.00000000000E+00 0. -1.
         22    1    1    2    0    0  0.19322106058E+04 -0.98359191814E+02  0.80746002331E+03  0.20964503440E+04  0.00000000000E+00 0.  1.
<mgrwt>
<rscale>  0 0.39288106E+04</rscale>
<asrwt>0</asrwt>
<pdfrwt beam="1">  1        2 0.38201031E+00 0.39288106E+04</pdfrwt>
<pdfrwt beam="2">  1       -2 0.23908944E+00 0.39288106E+04</pdfrwt>
<totfact> 0.21201004E-01</totfact>
</mgrwt>
</event>
<event>
 6    1  0.1603085E-006  0.2150702E+04  0.7818608E-02  0.8539232E-01
         -2   -1    0    0    0  501 -0.00000000000E+00  0.00000000000E+00  0.53138485755E+03  0.53138485755E+03  0.00000000000E+00 0.  1.
          2   -1    0    0  501    0  0.00000000000E+00 -0.00000000000E+00 -0.21761620661E+04  0.21761620661E+04  0.00000000000E+00 0. -1.
         23    2    1    2    0    0  0.36531386929E+02 -0.46804756939E+03  0.39102076469E+03  0.61831824844E+03  0.94958667289E+02 0.  0.
         13    1    3    3    0    0  0.62365831431E+02 -0.34246532779E+03  0.25581132258E+03  0.43198545164E+03  0.00000000000E+00 0.  1.
        -13    1    3    3    0    0 -0.25834444502E+02 -0.12558224160E+03  0.13520944211E+03  0.18633279680E+03  0.00000000000E+00 0. -1.
         22    1    1    2    0    0 -0.36531386929E+02  0.46804756939E+03 -0.20357979732E+04  0.20892286752E+04  0.00000000000E+00 0. -1.
<mgrwt>
<rscale>  0 0.21507018E+04</rscale>
<asrwt>0</asrwt>
<pdfrwt beam="1">  1        2 0.33479416E+00 0.21507018E+04</pdfrwt>
<pdfrwt beam="2">  1       -2 0.81751517E-01 0.21507018E+04</pdfrwt>
<totfact> 0.64333158E+00</totfact>
</mgrwt>
</event>
<event>
 6    1  0.1603085E-006  0.2246698E+04  0.7818608E-02  0.8499239E-01
          2   -1    0    0  501    0  0.00000000000E+00  0.00000000000E+00  0.27741455187E+04  0.27741455187E+04  0.00000000000E+00 0. -1.
         -2   -1    0    0    0  501 -0.00000000000E+00 -0.00000000000E+00 -0.45488351893E+03  0.45488351893E+03  0.00000000000E+00 0.  1.
         23    2    1    2    0    0  0.96105380452E+03  0.57587489554E+03  0.10897088825E+04  0.15655816598E+04  0.91236914416E+02 0.  0.
         11    1    3    3    0    0  0.69558263119E+03  0.39045732587E+03  0.82225273740E+03  0.11455966499E+04  0.00000000000E+00 0. -1.
        -11    1    3    3    0    0  0.26547117334E+03  0.18541756967E+03  0.26745614506E+03  0.41998500990E+03  0.00000000000E+00 0.  1.
         22    1    1    2    0    0 -0.96105380452E+03 -0.57587489554E+03  0.12295531173E+04  0.16634473778E+04  0.00000000000E+00 0. -1.
<mgrwt>
<rscale>  0 0.22466981E+04</rscale>
<asrwt>0</asrwt>
<pdfrwt beam="1">  1        2 0.42679161E+00 0.22466981E+04</pdfrwt>
<pdfrwt beam="2">  1       -2 0.69982081E-01 0.22466981E+04</pdfrwt>
<totfact> 0.40616058E+00</totfact>
</mgrwt>
</event>
<event>
 6    1  0.1603085E-006  0.3736761E+04  0.7818608E-02  0.8059864E-01
          1   -1    0    0  501    0  0.00000000000E+00  0.00000000000E+00  0.14531081214E+04  0.14531081214E+04  0.00000000000E+00 0. -1.
         -1   -1    0    0    0  501 -0.00000000000E+00 -0.00000000000E+00 -0.24023298376E+04  0.24023298376E+04  0.00000000000E+00 0.  1.
         23    2    1    2    0    0 -0.72893254229E+02  0.16146462967E+04  0.48983236748E+03  0.16913509123E+04  0.91302083700E+02 0.  0.
         13    1    3    3    0    0 -0.13178481693E+02  0.34624479879E+03  0.66358039816E+02  0.35279246381E+03  0.00000000000E+00 0. -1.
        -13    1    3    3    0    0 -0.59714772535E+02  0.12684014979E+04  0.42347432766E+03  0.13385584485E+04  0.00000000000E+00 0.  1.
         22    1    1    2    0    0  0.72893254229E+02 -0.16146462967E+04 -0.14390540837E+04  0.21640870467E+04  0.00000000000E+00 0.  1.
<mgrwt>
<rscale>  0 0.37367606E+04</rscale>
<asrwt>0</asrwt>
<pdfrwt beam="1">  1        1 0.22355510E+00 0.37367606E+04</pdfrwt>
<pdfrwt beam="2">  1       -1 0.36958920E+00 0.37367606E+04</pdfrwt>
<totfact> 0.64823916E-02</totfact>
</mgrwt>
</event>
<event>
 6    1  0.1775489E-006  0.2987852E+04  0.7818608E-02  0.8247208E-01
         -1   -1    0    0    0  501 -0.00000000000E+00  0.00000000000E+00  0.19578315219E+04  0.19578315219E+04  0.00000000000E+00 0.  1.
          1   -1    0    0  501    0  0.00000000000E+00 -0.00000000000E+00 -0.11399425468E+04  0.11399425468E+04  0.00000000000E+00 0. -1.
         23    2    1    2    0    0 -0.78961498300E+03  0.12515858646E+04  0.20817128641E+03  0.14972383278E+04  0.91805925517E+02 0.  0.
         11    1    3    3    0    0 -0.38216261428E+03  0.65755610521E+03  0.14388926086E+03  0.77403644271E+03  0.00000000000E+00 0. -1.
        -11    1    3    3    0    0 -0.40745236871E+03  0.59402975939E+03  0.64282025545E+02  0.72320188510E+03  0.00000000000E+00 0.  1.
         22    1    1    2    0    0  0.78961498300E+03 -0.12515858646E+04  0.60971768869E+03  0.16005357408E+04  0.00000000000E+00 0.  1.
<mgrwt>
<rscale>  0 0.29878524E+04</rscale>
<asrwt>0</asrwt>
<pdfrwt beam="1">  1        1 0.17537578E+00 0.29878524E+04</pdfrwt>
<pdfrwt beam="2">  1       -1 0.30120485E+00 0.29878524E+04</pdfrwt>
<totfact> 0.32698890E-01</totfact>
</mgrwt>
</event>
<event>
 6    1  0.1603085E-006  0.3779020E+04  0.7818608E-02  0.8050672E-01
          2   -1    0    0  501    0  0.00000000000E+00  0.00000000000E+00  0.15271207107E+04  0.15271207107E+04  0.00000000000E+00 0. -1.
         -2   -1    0    0    0  501 -0.00000000000E+00 -0.00000000000E+00 -0.23378949727E+04  0.23378949727E+04  0.00000000000E+00 0.  1.
         23    2    1    2    0    0 -0.10027261307E+04 -0.52978117906E+03  0.11386941625E+04  0.16096764785E+04  0.91138239277E+02 0.  0.
         13    1    3    3    0    0 -0.36444087215E+02 -0.19907558657E+02  0.20405797366E+02  0.46269633138E+02  0.00000000000E+00 0. -1.
        -13    1    3    3    0    0 -0.96628204352E+03 -0.50987362040E+03  0.11182883651E+04  0.15634068453E+04  0.00000000000E+00 0.  1.
         22    1    1    2    0    0  0.10027261307E+04  0.52978117906E+03 -0.19494684245E+04  0.22553392049E+04  0.00000000000E+00 0.  1.
<mgrwt>
<rscale>  0 0.37790199E+04</rscale>
<asrwt>0</asrwt>
<pdfrwt beam="1">  1        2 0.23494165E+00 0.37790199E+04</pdfrwt>
<pdfrwt beam="2">  1       -2 0.35967615E+00 0.37790199E+04</pdfrwt>
<totfact> 0.13292854E-01</totfact>
</mgrwt>
</event>
<event>
 6    1  0.1603085E-006  0.1692343E+04  0.7818608E-02  0.8765744E-01
         -1   -1    0    0    0  501 -0.00000000000E+00  0.00000000000E+00  0.32981057702E+03  0.32981057702E+03  0.00000000000E+00 0.  1.
          1   -1    0    0  501    0  0.00000000000E+00 -0.00000000000E+00 -0.21709616640E+04  0.21709616640E+04  0.00000000000E+00 0. -1.
         23    2    1    2    0    0 -0.83291149065E+02  0.79683154725E+03 -0.13140767726E+04  0.15417700183E+04  0.91537397204E+02 0.  0.
         11    1    3    3    0    0 -0.16946637043E+02  0.56259330676E+03 -0.90702966212E+03  0.10674742270E+04  0.00000000000E+00 0.  1.
        -11    1    3    3    0    0 -0.66344512021E+02  0.23423824049E+03 -0.40704711043E+03  0.47429579135E+03  0.00000000000E+00 0. -1.
         22    1    1    2    0    0  0.83291149065E+02 -0.79683154725E+03 -0.52707431445E+03  0.95900222271E+03  0.00000000000E+00 0.  1.
<mgrwt>
<rscale>  0 0.16923429E+04</rscale>
<asrwt>0</asrwt>
<pdfrwt beam="1">  1        1 0.33399409E+00 0.16923429E+04</pdfrwt>
<pdfrwt beam="2">  1       -1 0.50740090E-01 0.16923429E+04</pdfrwt>
<totfact> 0.84790161E+00</totfact>
</mgrwt>
</event>
<event>
 6    1  0.1603085E-006  0.1377424E+04  0.7818608E-02  0.8970324E-01
          1   -1    0    0  501    0  0.00000000000E+00  0.00000000000E+00  0.10105640521E+04  0.10105640521E+04  0.00000000000E+00 0. -1.
         -1   -1    0    0    0  501 -0.00000000000E+00 -0.00000000000E+00 -0.46936566346E+03  0.46936566346E+03  0.00000000000E+00 0.  1.
         23    2    1    2    0    0  0.53638512071E+03 -0.62183974197E+02 -0.17996257051E+03  0.57901408500E+03  0.10627765275E+03 0.  0.
         13    1    3    3    0    0  0.35883617470E+03 -0.99288658827E+01 -0.15948020646E+03  0.39280519206E+03  0.00000000000E+00 0. -1.
        -13    1    3    3    0    0  0.17754894601E+03 -0.52255108315E+02 -0.20482364046E+02  0.18620889294E+03  0.00000000000E+00 0.  1.
         22    1    1    2    0    0 -0.53638512071E+03  0.62183974197E+02  0.72116095911E+03  0.90091563052E+03  0.00000000000E+00 0. -1.
<mgrwt>
<rscale>  0 0.13774238E+04</rscale>
<asrwt>0</asrwt>
<pdfrwt beam="1">  1        1 0.15547139E+00 0.13774238E+04</pdfrwt>
<pdfrwt beam="2">  1       -1 0.72210102E-01 0.13774238E+04</pdfrwt>
<totfact> 0.28063899E+01</totfact>
</mgrwt>
</event>
<event>
 6    1  0.1603085E-006  0.1938532E+04  0.7818608E-02  0.8635911E-01
          1   -1    0    0  501    0  0.00000000000E+00  0.00000000000E+00  0.53822574402E+03  0.53822574402E+03  0.00000000000E+00 0. -1.
         -1   -1    0    0    0  501 -0.00000000000E+00 -0.00000000000E+00 -0.17455062301E+04  0.17455062301E+04  0.00000000000E+00 0.  1.
         23    2    1    2    0    0 -0.89412119669E+03  0.35026516659E+03 -0.46900736981E+03  0.10724576057E+04  0.89771943750E+02 0.  0.
         11    1    3    3    0    0 -0.31434446756E+03  0.16562449450E+03 -0.19258076917E+03  0.40414263586E+03  0.00000000000E+00 0. -1.
        -11    1    3    3    0    0 -0.57977672913E+03  0.18464067208E+03 -0.27642660064E+03  0.66831496988E+03  0.00000000000E+00 0.  1.
         22    1    1    2    0    0  0.89412119669E+03 -0.35026516659E+03 -0.73827311629E+03  0.12112743684E+04  0.00000000000E+00 0.  1.
<mgrwt>
<rscale>  0 0.19385318E+04</rscale>
<asrwt>0</asrwt>
<pdfrwt beam="1">  1        1 0.82803959E-01 0.19385318E+04</pdfrwt>
<pdfrwt beam="2">  1       -1 0.26853943E+00 0.19385318E+04</pdfrwt>
<totfact> 0.19700661E+00</totfact>
</mgrwt>
</event>
<event>
 6    1  0.1603085E-006  0.2355993E+04  0.7818608E-02  0.8456165E-01
         -2   -1    0    0    0  501 -0.00000000000E+00  0.00000000000E+00  0.84850728122E+03  0.84850728122E+03  0.00000000000E+00 0. -1.
          2   -1    0    0  501    0  0.00000000000E+00 -0.00000000000E+00 -0.16354315605E+04  0.16354315605E+04  0.00000000000E+00 0.  1.
         23    2    1    2    0    0 -0.67724605119E+03  0.92836482183E+03 -0.65627088339E+03  0.13273949531E+04  0.10374214645E+03 0.  0.
         11    1    3    3    0    0 -0.56938395580E+03  0.78214589502E+03 -0.50700666432E+03  0.10922481622E+04  0.00000000000E+00 0. -1.
        -11    1    3    3    0    0 -0.10786209539E+03  0.14621892681E+03 -0.14926421906E+03  0.23514679090E+03  0.00000000000E+00 0.  1.
         22    1    1    2    0    0  0.67724605119E+03 -0.92836482183E+03 -0.13065339585E+03  0.11565438885E+04  0.00000000000E+00 0. -1.
<mgrwt>
<rscale>  0 0.23559929E+04</rscale>
<asrwt>0</asrwt>
<pdfrwt beam="1">  1        2 0.25160485E+00 0.23559929E+04</pdfrwt>
<pdfrwt beam="2">  1       -2 0.13053958E+00 0.23559929E+04</pdfrwt>
<totfact> 0.41330071E+00</totfact>
</mgrwt>
</event>
<event>
 6    1  0.1603085E-006  0.1734495E+04  0.7818608E-02  0.8741931E-01
         -2   -1    0    0    0  501 -0.00000000000E+00  0.00000000000E+00  0.30988252317E+03  0.30988252317E+03  0.00000000000E+00 0.  1.
          2   -1    0    0  501    0  0.00000000000E+00 -0.00000000000E+00 -0.24271076868E+04  0.24271076868E+04  0.00000000000E+00 0. -1.
         23    2    1    2    0    0 -0.44630262541E+03 -0.57419329753E+03 -0.32279938430E+03  0.80079604255E+03  0.90503496552E+02 0.  0.
         13    1    3    3    0    0 -0.30563899641E+03 -0.34105788263E+03 -0.23475442355E+03  0.51463124157E+03  0.00000000000E+00 0. -1.
        -13    1    3    3    0    0 -0.14066362901E+03 -0.23313541490E+03 -0.88044960743E+02  0.28616480098E+03  0.00000000000E+00 0.  1.
         22    1    1    2    0    0  0.44630262541E+03  0.57419329753E+03 -0.17944257794E+04  0.19361941675E+04  0.00000000000E+00 0. -1.
<mgrwt>
<rscale>  0 0.17344950E+04</rscale>
<asrwt>0</asrwt>
<pdfrwt beam="1">  1        2 0.37340118E+00 0.17344950E+04</pdfrwt>
<pdfrwt beam="2">  1       -2 0.47674235E-01 0.17344950E+04</pdfrwt>
<totfact> 0.15192855E+01</totfact>
</mgrwt>
</event>
<event>
 6    1  0.1603085E-006  0.1722064E+04  0.7818608E-02  0.8748879E-01
         -1   -1    0    0    0  501 -0.00000000000E+00  0.00000000000E+00  0.46957308689E+03  0.46957308689E+03  0.00000000000E+00 0.  1.
          1   -1    0    0  501    0  0.00000000000E+00 -0.00000000000E+00 -0.15788308865E+04  0.15788308865E+04  0.00000000000E+00 0. -1.
         23    2    1    2    0    0 -0.37408541224E+03  0.42770481982E+03 -0.13218353058E+04  0.14417240704E+04  0.91915237703E+02 0.  0.
         11    1    3    3    0    0 -0.74443716970E+02  0.91608929066E+02 -0.37765653847E+03  0.39567477040E+03  0.00000000000E+00 0. -1.
        -11    1    3    3    0    0 -0.29964169527E+03  0.33609589075E+03 -0.94417876731E+03  0.10460493000E+04  0.00000000000E+00 0.  1.
         22    1    1    2    0    0  0.37408541224E+03 -0.42770481982E+03  0.21257750621E+03  0.60667990299E+03  0.00000000000E+00 0.  1.
<mgrwt>
<rscale>  0 0.17220645E+04</rscale>
<asrwt>0</asrwt>
<pdfrwt beam="1">  1        1 0.24289706E+00 0.17220645E+04</pdfrwt>
<pdfrwt beam="2">  1       -1 0.72242014E-01 0.17220645E+04</pdfrwt>
<totfact> 0.10595058E+01</totfact>
</mgrwt>
</event>
<event>
 6    1  0.1603085E-006  0.3304759E+04  0.7818608E-02  0.8161686E-01
          2   -1    0    0  501    0  0.00000000000E+00  0.00000000000E+00  0.16815057277E+04  0.16815057277E+04  0.00000000000E+00 0. -1.
         -2   -1    0    0    0  501 -0.00000000000E+00 -0.00000000000E+00 -0.16237575955E+04  0.16237575955E+04  0.00000000000E+00 0.  1.
         23    2    1    2    0    0 -0.13171471038E+04  0.26539282982E+03 -0.93087320624E+03  0.16371260393E+04  0.91361343768E+02 0.  0.
         11    1    3    3    0    0 -0.91862871160E+03  0.18703701022E+03 -0.59767118420E+03  0.11117879282E+04  0.00000000000E+00 0. -1.
        -11    1    3    3    0    0 -0.39851839221E+03  0.78355819600E+02 -0.33320202203E+03  0.52533811101E+03  0.00000000000E+00 0.  1.
         22    1    1    2    0    0  0.13171471038E+04 -0.26539282982E+03  0.98862133841E+03  0.16681372839E+04  0.00000000000E+00 0.  1.
<mgrwt>
<rscale>  0 0.33047588E+04</rscale>
<asrwt>0</asrwt>
<pdfrwt beam="1">  1        2 0.25869319E+00 0.33047588E+04</pdfrwt>
<pdfrwt beam="2">  1       -2 0.24980886E+00 0.33047588E+04</pdfrwt>
<totfact> 0.54026392E-01</totfact>
</mgrwt>
</event>
<event>
 6    1  0.1603085E-006  0.3019310E+04  0.7818608E-02  0.8238238E-01
         -1   -1    0    0    0  501 -0.00000000000E+00  0.00000000000E+00  0.20552851683E+04  0.20552851683E+04  0.00000000000E+00 0.  1.
          1   -1    0    0  501    0  0.00000000000E+00 -0.00000000000E+00 -0.11088766598E+04  0.11088766598E+04  0.00000000000E+00 0. -1.
         23    2    1    2    0    0  0.12057264232E+04 -0.90592693832E+03  0.45413767258E+03  0.15777159888E+04  0.92015708830E+02 0.  0.
         11    1    3    3    0    0  0.35868385224E+03 -0.21988893793E+03  0.13826199507E+03  0.44285621838E+03  0.00000000000E+00 0.  1.
        -11    1    3    3    0    0  0.84704257093E+03 -0.68603800039E+03  0.31587567751E+03  0.11348597705E+04  0.00000000000E+00 0. -1.
         22    1    1    2    0    0 -0.12057264232E+04  0.90592693832E+03  0.49227083588E+03  0.15864458393E+04  0.00000000000E+00 0.  1.
<mgrwt>
<rscale>  0 0.30193097E+04</rscale>
<asrwt>0</asrwt>
<pdfrwt beam="1">  1        1 0.17059641E+00 0.30193097E+04</pdfrwt>
<pdfrwt beam="2">  1       -1 0.31619772E+00 0.30193097E+04</pdfrwt>
<totfact> 0.27484485E-01</totfact>
</mgrwt>
</event>
<event>
 6    1  0.1603085E-006  0.2254060E+04  0.7818608E-02  0.8496258E-01
         -2   -1    0    0    0  501 -0.00000000000E+00  0.00000000000E+00  0.12671737832E+04  0.12671737832E+04  0.00000000000E+00 0.  1.
          2   -1    0    0  501    0  0.00000000000E+00 -0.00000000000E+00 -0.10023852660E+04  0.10023852660E+04  0.00000000000E+00 0. -1.
         23    2    1    2    0    0  0.97047007856E+03  0.52182736830E+03  0.36187727498E+03  0.11634206299E+04  0.92067498241E+02 0.  0.
         11    1    3    3    0    0  0.22666559007E+03  0.16574761405E+03  0.10301672099E+03  0.29910199947E+03  0.00000000000E+00 0. -1.
        -11    1    3    3    0    0  0.74380448849E+03  0.35607975425E+03  0.25886055398E+03  0.86431863042E+03  0.00000000000E+00 0.  1.
         22    1    1    2    0    0 -0.97047007856E+03 -0.52182736830E+03 -0.97088757761E+02  0.11061384193E+04  0.00000000000E+00 0. -1.
<mgrwt>
<rscale>  0 0.22540597E+04</rscale>
<asrwt>0</asrwt>
<pdfrwt beam="1">  1        2 0.15421312E+00 0.22540597E+04</pdfrwt>
<pdfrwt beam="2">  1       -2 0.19494981E+00 0.22540597E+04</pdfrwt>
<totfact> 0.32798870E+00</totfact>
</mgrwt>
</event>
<event>
 6    1  0.1603085E-006  0.2251448E+04  0.7818608E-02  0.8497314E-01
         -1   -1    0    0    0  501 -0.00000000000E+00  0.00000000000E+00  0.75789008828E+03  0.75789008828E+03  0.00000000000E+00 0.  1.
          1   -1    0    0  501    0  0.00000000000E+00 -0.00000000000E+00 -0.16720817924E+04  0.16720817924E+04  0.00000000000E+00 0. -1.
         23    2    1    2    0    0 -0.42838960672E+03 -0.34830056202E+02 -0.15787077621E+04  0.16385728793E+04  0.88724825397E+02 0.  0.
         13    1    3    3    0    0 -0.18591422061E+03 -0.27774354110E+02 -0.85045385430E+03  0.87098063725E+03  0.00000000000E+00 0. -1.
        -13    1    3    3    0    0 -0.24247538611E+03 -0.70557020917E+01 -0.72825390782E+03  0.76759224205E+03  0.00000000000E+00 0.  1.
         22    1    1    2    0    0  0.42838960672E+03  0.34830056202E+02  0.66451605803E+03  0.79139900135E+03  0.00000000000E+00 0.  1.
<mgrwt>
<rscale>  0 0.22514477E+04</rscale>
<asrwt>0</asrwt>
<pdfrwt beam="1">  1        1 0.25724335E+00 0.22514477E+04</pdfrwt>
<pdfrwt beam="2">  1       -1 0.11659848E+00 0.22514477E+04</pdfrwt>
<totfact> 0.30010327E+00</totfact>
</mgrwt>
</event>
<event>
 6    1  0.1603085E-006  0.3059221E+04  0.7818608E-02  0.8227019E-01
         -1   -1    0    0    0  501 -0.00000000000E+00  0.00000000000E+00  0.20725262515E+04  0.20725262515E+04  0.00000000000E+00 0.  1.
          1   -1    0    0  501    0  0.00000000000E+00 -0.00000000000E+00 -0.11289157581E+04  0.11289157581E+04  0.00000000000E+00 0. -1.
         23    2    1    2    0    0 -0.53262654538E+03 -0.14249213018E+04  0.62556776307E+03  0.16473368228E+04  0.91059476732E+02 0.  0.
         13    1    3    3    0    0 -0.18438777661E+03 -0.38100187989E+03  0.16213635379E+03  0.45326535480E+03  0.00000000000E+00 0. -1.
        -13    1    3    3    0    0 -0.34823876877E+03 -0.10439194219E+04  0.46343140928E+03  0.11940714680E+04  0.00000000000E+00 0.  1.
         22    1    1    2    0    0  0.53262654538E+03  0.14249213018E+04  0.31804273034E+03  0.15541051868E+04  0.00000000000E+00 0. -1.
<mgrwt>
<rscale>  0 0.30592205E+04</rscale>
<asrwt>0</asrwt>
<pdfrwt beam="1">  1        1 0.17367935E+00 0.30592205E+04</pdfrwt>
<pdfrwt beam="2">  1       -1 0.31885019E+00 0.30592205E+04</pdfrwt>
<totfact> 0.25426378E-01</totfact>
</mgrwt>
</event>
<event>
 6    1  0.1603085E-006  0.3159220E+04  0.7818608E-02  0.8199671E-01
          3   -1    0    0  501    0  0.00000000000E+00  0.00000000000E+00  0.12636670886E+04  0.12636670886E+04  0.00000000000E+00 0. -1.
         -3   -1    0    0    0  501 -0.00000000000E+00 -0.00000000000E+00 -0.19745446782E+04  0.19745446782E+04  0.00000000000E+00 0.  1.
         23    2    1    2    0    0  0.29799817356E+03  0.75983273153E+03 -0.17404779738E+04  0.19243527018E+04  0.87869517555E+02 0.  0.
         13    1    3    3    0    0  0.15610447748E+03  0.50983946939E+03 -0.11527912444E+04  0.12701309168E+04  0.00000000000E+00 0.  1.
        -13    1    3    3    0    0  0.14189369608E+03  0.24999326215E+03 -0.58768672938E+03  0.65422178502E+03  0.00000000000E+00 0. -1.
         22    1    1    2    0    0 -0.29799817356E+03 -0.75983273153E+03  0.10296003843E+04  0.13138590650E+04  0.00000000000E+00 0. -1.
<mgrwt>
<rscale>  0 0.31592196E+04</rscale>
<asrwt>0</asrwt>
<pdfrwt beam="1">  1        3 0.19441032E+00 0.31592196E+04</pdfrwt>
<pdfrwt beam="2">  1       -3 0.30377610E+00 0.31592196E+04</pdfrwt>
<totfact> 0.12661932E-02</totfact>
</mgrwt>
</event>
<event>
 6    1  0.1603085E-006  0.9734056E+03  0.7818608E-02  0.9338204E-01
         -1   -1    0    0    0  501 -0.00000000000E+00  0.00000000000E+00  0.14518316429E+03  0.14518316429E+03  0.00000000000E+00 0.  1.
          1   -1    0    0  501    0  0.00000000000E+00 -0.00000000000E+00 -0.16315915566E+04  0.16315915566E+04  0.00000000000E+00 0. -1.
         23    2    1    2    0    0  0.10818675200E+03  0.55626953053E+02 -0.16019027240E+04  0.16090318466E+04  0.89957850682E+02 0.  0.
         11    1    3    3    0    0  0.59269294352E+02 -0.85592015169E+01 -0.40404080442E+03  0.40845450275E+03  0.00000000000E+00 0. -1.
        -11    1    3    3    0    0  0.48917457645E+02  0.64186154570E+02 -0.11978619196E+04  0.12005773438E+04  0.00000000000E+00 0.  1.
         22    1    1    2    0    0 -0.10818675200E+03 -0.55626953053E+02  0.11549433172E+03  0.16774287429E+03  0.00000000000E+00 0.  1.
<mgrwt>
<rscale>  0 0.97340562E+03</rscale>
<asrwt>0</asrwt>
<pdfrwt beam="1">  1        1 0.25101409E+00 0.97340562E+03</pdfrwt>
<pdfrwt beam="2">  1       -1 0.22335871E-01 0.97340562E+03</pdfrwt>
<totfact> 0.90604697E+01</totfact>
</mgrwt>
</event>
<event>
 6    1  0.1603085E-006  0.3226452E+04  0.7818608E-02  0.8181866E-01
          2   -1    0    0  501    0  0.00000000000E+00  0.00000000000E+00  0.19404644954E+04  0.19404644954E+04  0.00000000000E+00 0. -1.
         -2   -1    0    0    0  501 -0.00000000000E+00 -0.00000000000E+00 -0.13411727289E+04  0.13411727289E+04  0.00000000000E+00 0.  1.
         23    2    1    2    0    0  0.88439346568E+03  0.22087784142E+03  0.16516133924E+04  0.18894017459E+04  0.10522992110E+03 0.  0.
         13    1    3    3    0    0  0.17894926653E+03  0.88334040372E+02  0.34098732770E+03  0.39509252123E+03  0.00000000000E+00 0. -1.
        -13    1    3    3    0    0  0.70544419915E+03  0.13254380105E+03  0.13106260647E+04  0.14943092246E+04  0.00000000000E+00 0.  1.
         22    1    1    2    0    0 -0.88439346568E+03 -0.22087784142E+03 -0.10523216259E+04  0.13922354784E+04  0.00000000000E+00 0.  1.
<mgrwt>
<rscale>  0 0.32264520E+04</rscale>
<asrwt>0</asrwt>
<pdfrwt beam="1">  1        2 0.29853300E+00 0.32264520E+04</pdfrwt>
<pdfrwt beam="2">  1       -2 0.20633427E+00 0.32264520E+04</pdfrwt>
<totfact> 0.73267582E-01</totfact>
</mgrwt>
</event>
<event>
 6    1  0.1603085E-006  0.2220538E+04  0.7818608E-02  0.8509928E-01
         -1   -1    0    0    0  501 -0.00000000000E+00  0.00000000000E+00  0.11636419090E+04  0.11636419090E+04  0.00000000000E+00 0.  1.
          1   -1    0    0  501    0  0.00000000000E+00 -0.00000000000E+00 -0.10593437562E+04  0.10593437562E+04  0.00000000000E+00 0. -1.
         23    2    1    2    0    0  0.71932025734E+03  0.37914055011E+03  0.80622666769E+03  0.11488009375E+04  0.92590306787E+02 0.  0.
         13    1    3    3    0    0  0.40095829163E+03  0.16518480960E+03  0.45811689963E+03  0.63081270332E+03  0.00000000000E+00 0.  1.
        -13    1    3    3    0    0  0.31836196571E+03  0.21395574051E+03  0.34810976806E+03  0.51798823416E+03  0.00000000000E+00 0. -1.
         22    1    1    2    0    0 -0.71932025734E+03 -0.37914055011E+03 -0.70192851483E+03  0.10741847277E+04  0.00000000000E+00 0. -1.
<mgrwt>
<rscale>  0 0.22205376E+04</rscale>
<asrwt>0</asrwt>
<pdfrwt beam="1">  1        1 0.16297596E+00 0.22205376E+04</pdfrwt>
<pdfrwt beam="2">  1       -1 0.17902183E+00 0.22205376E+04</pdfrwt>
<totfact> 0.26205079E+00</totfact>
</mgrwt>
</event>
<event>
 6    1  0.1603085E-006  0.3071204E+04  0.7818608E-02  0.8223685E-01
         -1   -1    0    0    0  501 -0.00000000000E+00  0.00000000000E+00  0.11144502784E+04  0.11144502784E+04  0.00000000000E+00 0.  1.
          1   -1    0    0  501    0  0.00000000000E+00 -0.00000000000E+00 -0.21159078017E+04  0.21159078017E+04  0.00000000000E+00 0. -1.
         23    2    1    2    0    0 -0.42416434213E+03 -0.67120078443E+03  0.87971758427E+03  0.11884850019E+04  0.90375270208E+02 0.  0.
         13    1    3    3    0    0 -0.57432268358E+02 -0.44008660159E+02  0.71792283470E+02  0.10192820799E+03  0.00000000000E+00 0. -1.
        -13    1    3    3    0    0 -0.36673207378E+03 -0.62719212427E+03  0.80792530080E+03  0.10865567939E+04  0.00000000000E+00 0.  1.
         22    1    1    2    0    0  0.42416434213E+03  0.67120078443E+03 -0.18811751076E+04  0.20418730783E+04  0.00000000000E+00 0. -1.
<mgrwt>
<rscale>  0 0.30712043E+04</rscale>
<asrwt>0</asrwt>
<pdfrwt beam="1">  1        1 0.32552427E+00 0.30712043E+04</pdfrwt>
<pdfrwt beam="2">  1       -1 0.17145389E+00 0.30712043E+04</pdfrwt>
<totfact> 0.50479700E-01</totfact>
</mgrwt>
</event>
<event>
 6    1  0.1603085E-006  0.7520135E+03  0.7818608E-02  0.9632197E-01
          2   -1    0    0  501    0  0.00000000000E+00  0.00000000000E+00  0.41378835125E+03  0.41378835125E+03  0.00000000000E+00 0. -1.
         -2   -1    0    0    0  501 -0.00000000000E+00 -0.00000000000E+00 -0.34167488661E+03  0.34167488661E+03  0.00000000000E+00 0.  1.
         23    2    1    2    0    0  0.35783834894E+03  0.42093691196E+02  0.12299113902E+03  0.39158317443E+03  0.91599123398E+02 0.  0.
         13    1    3    3    0    0  0.16027034792E+03  0.27349254908E+02  0.10298308056E+03  0.19245799815E+03  0.00000000000E+00 0. -1.
        -13    1    3    3    0    0  0.19756800102E+03  0.14744436289E+02  0.20008058459E+02  0.19912517628E+03  0.00000000000E+00 0.  1.
         22    1    1    2    0    0 -0.35783834894E+03 -0.42093691196E+02 -0.50877674384E+02  0.36388006343E+03  0.00000000000E+00 0. -1.
<mgrwt>
<rscale>  0 0.75201353E+03</rscale>
<asrwt>0</asrwt>
<pdfrwt beam="1">  1        2 0.63659746E-01 0.75201353E+03</pdfrwt>
<pdfrwt beam="2">  1       -2 0.52565367E-01 0.75201353E+03</pdfrwt>
<totfact> 0.26355234E+02</totfact>
</mgrwt>
</event>
<event>
 6    1  0.1603085E-006  0.4075904E+04  0.7818608E-02  0.7989407E-01
          1   -1    0    0  501    0  0.00000000000E+00  0.00000000000E+00  0.35474165421E+04  0.35474165421E+04  0.00000000000E+00 0. -1.
         -1   -1    0    0    0  501 -0.00000000000E+00 -0.00000000000E+00 -0.11707811998E+04  0.11707811998E+04  0.00000000000E+00 0.  1.
         23    2    1    2    0    0  0.10658285390E+04  0.70054689210E+03 -0.64942199940E+03  0.14343312012E+04  0.93811719445E+02 0.  0.
         13    1    3    3    0    0  0.22316974518E+03  0.17542663822E+03 -0.17947942628E+03  0.33584535878E+03  0.00000000000E+00 0. -1.
        -13    1    3    3    0    0  0.84265879383E+03  0.52512025388E+03 -0.46994257312E+03  0.10984858424E+04  0.00000000000E+00 0.  1.
         22    1    1    2    0    0 -0.10658285390E+04 -0.70054689210E+03  0.30260573416E+04  0.32838665407E+04  0.00000000000E+00 0. -1.
<mgrwt>
<rscale>  0 0.40759041E+04</rscale>
<asrwt>0</asrwt>
<pdfrwt beam="1">  1        1 0.54575638E+00 0.40759041E+04</pdfrwt>
<pdfrwt beam="2">  1       -1 0.18012019E+00 0.40759041E+04</pdfrwt>
<totfact> 0.36961507E-02</totfact>
</mgrwt>
</event>
<event>
 6    1  0.1603085E-006  0.1366280E+04  0.7818608E-02  0.8978595E-01
         -4   -1    0    0    0  501 -0.00000000000E+00  0.00000000000E+00  0.10819593575E+04  0.10819593575E+04  0.00000000000E+00 0.  1.
          4   -1    0    0  501    0  0.00000000000E+00 -0.00000000000E+00 -0.43132890002E+03  0.43132890002E+03  0.00000000000E+00 0. -1.
         23    2    1    2    0    0  0.43720306526E+03 -0.25631881071E+03 -0.17547891976E+03  0.54411203197E+03  0.91756193548E+02 0.  0.
         13    1    3    3    0    0  0.42472480775E+03 -0.23133614237E+03 -0.17954600991E+03  0.51589179366E+03  0.00000000000E+00 0. -1.
        -13    1    3    3    0    0  0.12478257502E+02 -0.24982668344E+02  0.40670901506E+01  0.28220238308E+02  0.00000000000E+00 0.  1.
         22    1    1    2    0    0 -0.43720306526E+03  0.25631881071E+03  0.82610937723E+03  0.96917622554E+03  0.00000000000E+00 0.  1.
<mgrwt>
<rscale>  0 0.13662801E+04</rscale>
<asrwt>0</asrwt>
<pdfrwt beam="1">  1        4 0.66358293E-01 0.13662801E+04</pdfrwt>
<pdfrwt beam="2">  1       -4 0.16645528E+00 0.13662801E+04</pdfrwt>
<totfact> 0.92094072E-01</totfact>
</mgrwt>
</event>
<event>
 6    1  0.1603085E-006  0.1457025E+04  0.7818608E-02  0.8913545E-01
         -2   -1    0    0    0  501 -0.00000000000E+00  0.00000000000E+00  0.33506703166E+03  0.33506703166E+03  0.00000000000E+00 0.  1.
          2   -1    0    0  501    0  0.00000000000E+00 -0.00000000000E+00 -0.15839523522E+04  0.15839523522E+04  0.00000000000E+00 0. -1.
         23    2    1    2    0    0 -0.92866833371E+02  0.71985337111E+03 -0.63608107876E+03  0.96910245941E+03  0.88018824322E+02 0.  0.
         11    1    3    3    0    0 -0.97985395828E+02  0.58821488016E+03 -0.48498398071E+03  0.76863993168E+03  0.00000000000E+00 0.  1.
        -11    1    3    3    0    0  0.51185624569E+01  0.13163849095E+03 -0.15109709805E+03  0.20046252772E+03  0.00000000000E+00 0. -1.
         22    1    1    2    0    0  0.92866833371E+02 -0.71985337111E+03 -0.61280424180E+03  0.94991692447E+03  0.00000000000E+00 0.  1.
<mgrwt>
<rscale>  0 0.14570247E+04</rscale>
<asrwt>0</asrwt>
<pdfrwt beam="1">  1        2 0.24368497E+00 0.14570247E+04</pdfrwt>
<pdfrwt beam="2">  1       -2 0.51548775E-01 0.14570247E+04</pdfrwt>
<totfact> 0.39223020E+01</totfact>
</mgrwt>
</event>
<event>
 6    1  0.1603085E-006  0.3535490E+04  0.7818608E-02  0.8105430E-01
          2   -1    0    0  501    0  0.00000000000E+00  0.00000000000E+00  0.27671419820E+04  0.27671419820E+04  0.00000000000E+00 0. -1.
         -2   -1    0    0    0  501 -0.00000000000E+00 -0.00000000000E+00 -0.11292959987E+04  0.11292959987E+04  0.00000000000E+00 0.  1.
         23    2    1    2    0    0 -0.16823277068E+04  0.26067626890E+03  0.13393364393E+04  0.21680611185E+04  0.92131892540E+02 0.  0.
         13    1    3    3    0    0 -0.82984638641E+02  0.28084001703E+02  0.87053351313E+02  0.12350484759E+03  0.00000000000E+00 0. -1.
        -13    1    3    3    0    0 -0.15993430681E+04  0.23259226719E+03  0.12522830880E+04  0.20445562709E+04  0.00000000000E+00 0.  1.
         22    1    1    2    0    0  0.16823277068E+04 -0.26067626890E+03  0.29850954403E+03  0.17283768623E+04  0.00000000000E+00 0.  1.
<mgrwt>
<rscale>  0 0.35354900E+04</rscale>
<asrwt>0</asrwt>
<pdfrwt beam="1">  1        2 0.42571415E+00 0.35354900E+04</pdfrwt>
<pdfrwt beam="2">  1       -2 0.17373785E+00 0.35354900E+04</pdfrwt>
<totfact> 0.39757090E-01</totfact>
</mgrwt>
</event>
<event>
 6    1  0.1603085E-006  0.1174998E+04  0.7818608E-02  0.9135027E-01
          1   -1    0    0  501    0  0.00000000000E+00  0.00000000000E+00  0.36257322235E+03  0.36257322235E+03  0.00000000000E+00 0. -1.
         -1   -1    0    0    0  501 -0.00000000000E+00 -0.00000000000E+00 -0.95195930230E+03  0.95195930230E+03  0.00000000000E+00 0.  1.
         23    2    1    2    0    0  0.31760896243E+03  0.15071207774E+03  0.22615144278E+03  0.42644973889E+03  0.84411618494E+02 0.  0.
         13    1    3    3    0    0  0.17197612735E+03  0.12403112058E+03  0.15179384509E+03  0.26076978095E+03  0.00000000000E+00 0.  1.
        -13    1    3    3    0    0  0.14563283508E+03  0.26680957160E+02  0.74357597687E+02  0.16567995794E+03  0.00000000000E+00 0. -1.
         22    1    1    2    0    0 -0.31760896243E+03 -0.15071207774E+03 -0.81553752273E+03  0.88808278577E+03  0.00000000000E+00 0.  1.
<mgrwt>
<rscale>  0 0.11749978E+04</rscale>
<asrwt>0</asrwt>
<pdfrwt beam="1">  1        1 0.55780496E-01 0.11749978E+04</pdfrwt>
<pdfrwt beam="2">  1       -1 0.14645528E+00 0.11749978E+04</pdfrwt>
<totfact> 0.25217791E+01</totfact>
</mgrwt>
</event>
<event>
 6    1  0.1603085E-006  0.1483232E+04  0.7818608E-02  0.8895681E-01
          2   -1    0    0  501    0  0.00000000000E+00  0.00000000000E+00  0.27001208266E+04  0.27001208266E+04  0.00000000000E+00 0.  1.
         -2   -1    0    0    0  501 -0.00000000000E+00 -0.00000000000E+00 -0.20369252023E+03  0.20369252023E+03  0.00000000000E+00 0. -1.
         23    2    1    2    0    0 -0.50840300512E+03 -0.42281521253E+03  0.18984883600E+04  0.20123098420E+04  0.88806124832E+02 0.  0.
         13    1    3    3    0    0 -0.14670368913E+03 -0.98498144824E+02  0.61789694041E+03  0.64266669893E+03  0.00000000000E+00 0. -1.
        -13    1    3    3    0    0 -0.36169931599E+03 -0.32431706771E+03  0.12805914196E+04  0.13696431431E+04  0.00000000000E+00 0.  1.
         22    1    1    2    0    0  0.50840300512E+03  0.42281521253E+03  0.59793994635E+03  0.89150350476E+03  0.00000000000E+00 0. -1.
<mgrwt>
<rscale>  0 0.14832322E+04</rscale>
<asrwt>0</asrwt>
<pdfrwt beam="1">  1        2 0.41540318E+00 0.14832322E+04</pdfrwt>
<pdfrwt beam="2">  1       -2 0.31337313E-01 0.14832322E+04</pdfrwt>
<totfact> 0.24381547E+01</totfact>
</mgrwt>
</event>
<event>
 6    1  0.1603085E-006  0.1718982E+04  0.7818608E-02  0.8750611E-01
         -2   -1    0    0    0  501 -0.00000000000E+00  0.00000000000E+00  0.27544813549E+03  0.27544813549E+03  0.00000000000E+00 0.  1.
          2   -1    0    0  501    0  0.00000000000E+00 -0.00000000000E+00 -0.26819027722E+04  0.26819027722E+04  0.00000000000E+00 0. -1.
         23    2    1    2    0    0 -0.11760806223E+03 -0.68356047824E+03 -0.34068386496E+03  0.77824662723E+03  0.92280730567E+02 0.  0.
         11    1    3    3    0    0  0.31250479463E+01 -0.20014082205E+03 -0.76597645306E+02  0.21432058660E+03  0.00000000000E+00 0. -1.
        -11    1    3    3    0    0 -0.12073311017E+03 -0.48341965619E+03 -0.26408621965E+03  0.56392604063E+03  0.00000000000E+00 0.  1.
         22    1    1    2    0    0  0.11760806223E+03  0.68356047824E+03 -0.20657707717E+04  0.21791042804E+04  0.00000000000E+00 0. -1.
<mgrwt>
<rscale>  0 0.17189824E+04</rscale>
<asrwt>0</asrwt>
<pdfrwt beam="1">  1        2 0.41260043E+00 0.17189824E+04</pdfrwt>
<pdfrwt beam="2">  1       -2 0.42376636E-01 0.17189824E+04</pdfrwt>
<totfact> 0.13686285E+01</totfact>
</mgrwt>
</event>
<event>
 6    1  0.1603085E-006  0.4769467E+04  0.7818608E-02  0.7865088E-01
         -1   -1    0    0    0  501 -0.00000000000E+00  0.00000000000E+00  0.15075801263E+04  0.15075801263E+04  0.00000000000E+00 0.  1.
          1   -1    0    0  501    0  0.00000000000E+00 -0.00000000000E+00 -0.37722393776E+04  0.37722393776E+04  0.00000000000E+00 0. -1.
         23    2    1    2    0    0  0.11038674630E+04 -0.11934155899E+04 -0.30629485518E+04  0.34687342068E+04  0.87744060753E+02 0.  0.
         13    1    3    3    0    0  0.79663148575E+03 -0.81071371005E+03 -0.20939065068E+04  0.23825034949E+04  0.00000000000E+00 0. -1.
        -13    1    3    3    0    0  0.30723597730E+03 -0.38270187984E+03 -0.96904204502E+03  0.10862307120E+04  0.00000000000E+00 0.  1.
         22    1    1    2    0    0 -0.11038674630E+04  0.11934155899E+04  0.79828930055E+03  0.18110852972E+04  0.00000000000E+00 0.  1.
<mgrwt>
<rscale>  0 0.47694667E+04</rscale>
<asrwt>0</asrwt>
<pdfrwt beam="1">  1        1 0.58034451E+00 0.47694667E+04</pdfrwt>
<pdfrwt beam="2">  1       -1 0.23193541E+00 0.47694667E+04</pdfrwt>
<totfact> 0.10107882E-02</totfact>
</mgrwt>
</event>
<event>
 6    1  0.1603085E-006  0.2925054E+04  0.7818608E-02  0.8265462E-01
          1   -1    0    0  501    0  0.00000000000E+00  0.00000000000E+00  0.18985657908E+04  0.18985657908E+04  0.00000000000E+00 0. -1.
         -1   -1    0    0    0  501 -0.00000000000E+00 -0.00000000000E+00 -0.11266322814E+04  0.11266322814E+04  0.00000000000E+00 0.  1.
         23    2    1    2    0    0  0.26197580227E+03  0.31791441764E+03 -0.10634178318E+04  0.11441836003E+04  0.92723935770E+02 0.  0.
         11    1    3    3    0    0  0.15932240565E+03  0.13101719264E+03 -0.58814319949E+03  0.62326684238E+03  0.00000000000E+00 0.  1.
        -11    1    3    3    0    0  0.10265339662E+03  0.18689722500E+03 -0.47527463233E+03  0.52091675793E+03  0.00000000000E+00 0. -1.
         22    1    1    2    0    0 -0.26197580227E+03 -0.31791441764E+03  0.18353513412E+04  0.18810144719E+04  0.00000000000E+00 0. -1.
<mgrwt>
<rscale>  0 0.29250542E+04</rscale>
<asrwt>0</asrwt>
<pdfrwt beam="1">  1        1 0.29208705E+00 0.29250542E+04</pdfrwt>
<pdfrwt beam="2">  1       -1 0.17332804E+00 0.29250542E+04</pdfrwt>
<totfact> 0.69577980E-01</totfact>
</mgrwt>
</event>
<event>
 6    1  0.1603085E-006  0.1897423E+04  0.7818608E-02  0.8656140E-01
         -1   -1    0    0    0  501 -0.00000000000E+00  0.00000000000E+00  0.85992268089E+03  0.85992268089E+03  0.00000000000E+00 0.  1.
          1   -1    0    0  501    0  0.00000000000E+00 -0.00000000000E+00 -0.10466678634E+04  0.10466678634E+04  0.00000000000E+00 0. -1.
         23    2    1    2    0    0  0.76167256648E+03 -0.53740324954E+03 -0.25808566463E+03  0.97169118311E+03  0.92888071892E+02 0.  0.
         13    1    3    3    0    0  0.30174848301E+03 -0.17786698471E+03 -0.13294848730E+03  0.37465198721E+03  0.00000000000E+00 0.  1.
        -13    1    3    3    0    0  0.45992408347E+03 -0.35953626483E+03 -0.12513717733E+03  0.59703919589E+03  0.00000000000E+00 0. -1.
         22    1    1    2    0    0 -0.76167256648E+03  0.53740324954E+03  0.71340482138E+02  0.93489936118E+03  0.00000000000E+00 0.  1.
<mgrwt>
<rscale>  0 0.18974229E+04</rscale>
<asrwt>0</asrwt>
<pdfrwt beam="1">  1        1 0.16102582E+00 0.18974229E+04</pdfrwt>
<pdfrwt beam="2">  1       -1 0.13229580E+00 0.18974229E+04</pdfrwt>
<totfact> 0.63205311E+00</totfact>
</mgrwt>
</event>
<event>
 6    1  0.1603085E-006  0.3593121E+04  0.7818608E-02  0.8092069E-01
         -2   -1    0    0    0  501 -0.00000000000E+00  0.00000000000E+00  0.16825805189E+04  0.16825805189E+04  0.00000000000E+00 0.  1.
          2   -1    0    0  501    0  0.00000000000E+00 -0.00000000000E+00 -0.19182619676E+04  0.19182619676E+04  0.00000000000E+00 0. -1.
         23    2    1    2    0    0  0.90689439737E+03  0.10541685986E+04  0.10202647145E+04  0.17270416307E+04  0.89464095397E+02 0.  0.
         11    1    3    3    0    0  0.20085648754E+03  0.28060359500E+03  0.22426215191E+03  0.41155220677E+03  0.00000000000E+00 0.  1.
        -11    1    3    3    0    0  0.70603790982E+03  0.77356500356E+03  0.79600256258E+03  0.13154894239E+04  0.00000000000E+00 0. -1.
         22    1    1    2    0    0 -0.90689439737E+03 -0.10541685986E+04 -0.12559461633E+04  0.18738008558E+04  0.00000000000E+00 0. -1.
<mgrwt>
<rscale>  0 0.35931213E+04</rscale>
<asrwt>0</asrwt>
<pdfrwt beam="1">  1        2 0.29511723E+00 0.35931213E+04</pdfrwt>
<pdfrwt beam="2">  1       -2 0.25885854E+00 0.35931213E+04</pdfrwt>
<totfact> 0.34301127E-01</totfact>
</mgrwt>
</event>
<event>
 6    1  0.1603085E-006  0.2468202E+04  0.7818608E-02  0.8414402E-01
          2   -1    0    0  501    0  0.00000000000E+00  0.00000000000E+00  0.11800841468E+04  0.11800841468E+04  0.00000000000E+00 0. -1.
         -2   -1    0    0    0  501 -0.00000000000E+00 -0.00000000000E+00 -0.12905899189E+04  0.12905899189E+04  0.00000000000E+00 0.  1.
         23    2    1    2    0    0  0.11687149452E+04  0.94704559661E+02  0.32445487327E+03  0.12200524843E+04  0.91616172263E+02 0.  0.
         11    1    3    3    0    0  0.15060129558E+03  0.12755524007E+02  0.10592998082E+02  0.15151127097E+03  0.00000000000E+00 0. -1.
        -11    1    3    3    0    0  0.10181136496E+04  0.81949035654E+02  0.31386187519E+03  0.10685412134E+04  0.00000000000E+00 0.  1.
         22    1    1    2    0    0 -0.11687149452E+04 -0.94704559661E+02 -0.43496064535E+03  0.12506215814E+04  0.00000000000E+00 0.  1.
<mgrwt>
<rscale>  0 0.24682015E+04</rscale>
<asrwt>0</asrwt>
<pdfrwt beam="1">  1        2 0.18155141E+00 0.24682015E+04</pdfrwt>
<pdfrwt beam="2">  1       -2 0.19855230E+00 0.24682015E+04</pdfrwt>
<totfact> 0.23667805E+00</totfact>
</mgrwt>
</event>
<event>
 6    1  0.1603085E-006  0.1987588E+04  0.7818608E-02  0.8612446E-01
          2   -1    0    0  501    0  0.00000000000E+00  0.00000000000E+00  0.87920341810E+03  0.87920341810E+03  0.00000000000E+00 0. -1.
         -2   -1    0    0    0  501 -0.00000000000E+00 -0.00000000000E+00 -0.11233193574E+04  0.11233193574E+04  0.00000000000E+00 0.  1.
         23    2    1    2    0    0 -0.60884740426E+03 -0.78272989302E+03 -0.11713066380E+03  0.10027795548E+04  0.92119466384E+02 0.  0.
         11    1    3    3    0    0 -0.52207740765E+02 -0.95871670232E+02  0.98700417027E+01  0.10961041498E+03  0.00000000000E+00 0.  1.
        -11    1    3    3    0    0 -0.55663966349E+03 -0.68685822279E+03 -0.12700070550E+03  0.89316913985E+03  0.00000000000E+00 0. -1.
         22    1    1    2    0    0  0.60884740426E+03  0.78272989302E+03 -0.12698527552E+03  0.99974322068E+03  0.00000000000E+00 0. -1.
<mgrwt>
<rscale>  0 0.19875877E+04</rscale>
<asrwt>0</asrwt>
<pdfrwt beam="1">  1        2 0.13526207E+00 0.19875877E+04</pdfrwt>
<pdfrwt beam="2">  1       -2 0.17281836E+00 0.19875877E+04</pdfrwt>
<totfact> 0.57328172E+00</totfact>
</mgrwt>
</event>
<event>
 6    1  0.1603085E-006  0.5129002E+04  0.7818608E-02  0.7808910E-01
          2   -1    0    0  501    0  0.00000000000E+00  0.00000000000E+00  0.20957684666E+04  0.20957684666E+04  0.00000000000E+00 0. -1.
         -2   -1    0    0    0  501 -0.00000000000E+00 -0.00000000000E+00 -0.31380686275E+04  0.31380686275E+04  0.00000000000E+00 0.  1.
         23    2    1    2    0    0  0.19180551318E+04  0.15350806502E+04  0.22660835151E+03  0.24687806925E+04  0.90103670579E+02 0.  0.
         13    1    3    3    0    0  0.10706484050E+04  0.85889606003E+03  0.17149258466E+03  0.13832570822E+04  0.00000000000E+00 0.  1.
        -13    1    3    3    0    0  0.84740672682E+03  0.67618459019E+03  0.55115766855E+02  0.10855236103E+04  0.00000000000E+00 0. -1.
         22    1    1    2    0    0 -0.19180551318E+04 -0.15350806502E+04 -0.12689085125E+04  0.27650564016E+04  0.00000000000E+00 0.  1.
<mgrwt>
<rscale>  0 0.51290020E+04</rscale>
<asrwt>0</asrwt>
<pdfrwt beam="1">  1        2 0.32242592E+00 0.51290020E+04</pdfrwt>
<pdfrwt beam="2">  1       -2 0.48277979E+00 0.51290020E+04</pdfrwt>
<totfact> 0.90746585E-03</totfact>
</mgrwt>
</event>
<event>
 6    1  0.1603085E-006  0.2801797E+04  0.7818608E-02  0.8302711E-01
         -1   -1    0    0    0  501 -0.00000000000E+00  0.00000000000E+00  0.97453833097E+03  0.97453833097E+03  0.00000000000E+00 0.  1.
          1   -1    0    0  501    0  0.00000000000E+00 -0.00000000000E+00 -0.20137909628E+04  0.20137909628E+04  0.00000000000E+00 0. -1.
         23    2    1    2    0    0  0.11887729822E+03 -0.13942522475E+04 -0.49980270723E+03  0.14886368710E+04  0.90365069092E+02 0.  0.
         11    1    3    3    0    0  0.92588926181E+02 -0.69070188226E+03 -0.28072258072E+03  0.75129685660E+03  0.00000000000E+00 0. -1.
        -11    1    3    3    0    0  0.26288372034E+02 -0.70355036527E+03 -0.21908012651E+03  0.73734001438E+03  0.00000000000E+00 0.  1.
         22    1    1    2    0    0 -0.11887729822E+03  0.13942522475E+04 -0.53944992460E+03  0.14996924228E+04  0.00000000000E+00 0.  1.
<mgrwt>
<rscale>  0 0.28017969E+04</rscale>
<asrwt>0</asrwt>
<pdfrwt beam="1">  1        1 0.30981399E+00 0.28017969E+04</pdfrwt>
<pdfrwt beam="2">  1       -1 0.14992898E+00 0.28017969E+04</pdfrwt>
<totfact> 0.88181726E-01</totfact>
</mgrwt>
</event>
<event>
 6    1  0.1603085E-006  0.1499903E+04  0.7818608E-02  0.8884518E-01
         -2   -1    0    0    0  501 -0.00000000000E+00  0.00000000000E+00  0.23935859192E+04  0.23935859192E+04  0.00000000000E+00 0.  1.
          2   -1    0    0  501    0  0.00000000000E+00 -0.00000000000E+00 -0.23497255409E+03  0.23497255409E+03  0.00000000000E+00 0. -1.
         23    2    1    2    0    0 -0.62450765573E+03  0.37582340546E+03  0.79283765561E+03  0.10804640534E+04  0.86936634582E+02 0.  0.
         13    1    3    3    0    0 -0.43965330716E+03  0.29291347242E+03  0.61635116536E+03  0.81177711957E+03  0.00000000000E+00 0.  1.
        -13    1    3    3    0    0 -0.18485434857E+03  0.82909933038E+02  0.17648649026E+03  0.26868693385E+03  0.00000000000E+00 0. -1.
         22    1    1    2    0    0  0.62450765573E+03 -0.37582340546E+03  0.13657757095E+04  0.15480944199E+04  0.00000000000E+00 0.  1.
<mgrwt>
<rscale>  0 0.14999027E+04</rscale>
<asrwt>0</asrwt>
<pdfrwt beam="1">  1        2 0.36149625E-01 0.14999027E+04</pdfrwt>
<pdfrwt beam="2">  1       -2 0.36824397E+00 0.14999027E+04</pdfrwt>
<totfact> 0.16746633E+00</totfact>
</mgrwt>
</event>
<event>
 6    1  0.1603085E-006  0.1964466E+04  0.7818608E-02  0.8623416E-01
         -1   -1    0    0    0  501 -0.00000000000E+00  0.00000000000E+00  0.10714733269E+04  0.10714733269E+04  0.00000000000E+00 0.  1.
          1   -1    0    0  501    0  0.00000000000E+00 -0.00000000000E+00 -0.90042535326E+03  0.90042535326E+03  0.00000000000E+00 0. -1.
         23    2    1    2    0    0  0.61609245766E+03  0.50925216126E+03  0.65549456155E+03  0.10372350097E+04  0.85297509076E+02 0.  0.
         11    1    3    3    0    0  0.43731741647E+03  0.39477189511E+03  0.51647372575E+03  0.78347717344E+03  0.00000000000E+00 0.  1.
        -11    1    3    3    0    0  0.17877504120E+03  0.11448026615E+03  0.13902083580E+03  0.25375783629E+03  0.00000000000E+00 0. -1.
         22    1    1    2    0    0 -0.61609245766E+03 -0.50925216126E+03 -0.48444658796E+03  0.93466367038E+03  0.00000000000E+00 0.  1.
<mgrwt>
<rscale>  0 0.19644661E+04</rscale>
<asrwt>0</asrwt>
<pdfrwt beam="1">  1        1 0.13852698E+00 0.19644661E+04</pdfrwt>
<pdfrwt beam="2">  1       -1 0.16484205E+00 0.19644661E+04</pdfrwt>
<totfact> 0.45462275E+00</totfact>
</mgrwt>
</event>
<event>
 6    1  0.1603085E-006  0.2885382E+04  0.7818608E-02  0.8277240E-01
         -1   -1    0    0    0  501 -0.00000000000E+00  0.00000000000E+00  0.22073844416E+04  0.22073844416E+04  0.00000000000E+00 0.  1.
          1   -1    0    0  501    0  0.00000000000E+00 -0.00000000000E+00 -0.94290668703E+03  0.94290668703E+03  0.00000000000E+00 0. -1.
         23    2    1    2    0    0  0.42596683656E+03 -0.12658840402E+04  0.39630076177E+02  0.13380654295E+04  0.70273761757E+02 0.  0.
         13    1    3    3    0    0  0.24014098509E+03 -0.71199591479E+03 -0.12584308513E+02  0.75150797749E+03  0.00000000000E+00 0.  1.
        -13    1    3    3    0    0  0.18582585146E+03 -0.55388812544E+03  0.52214384690E+02  0.58655745204E+03  0.00000000000E+00 0. -1.
         22    1    1    2    0    0 -0.42596683656E+03  0.12658840402E+04  0.12248476783E+04  0.18122256991E+04  0.00000000000E+00 0.  1.
<mgrwt>
<rscale>  0 0.28853822E+04</rscale>
<asrwt>0</asrwt>
<pdfrwt beam="1">  1        1 0.14506257E+00 0.28853822E+04</pdfrwt>
<pdfrwt beam="2">  1       -1 0.33959761E+00 0.28853822E+04</pdfrwt>
<totfact> 0.26270220E-01</totfact>
</mgrwt>
</event>
<event>
 6    1  0.1603085E-006  0.2280726E+04  0.7818608E-02  0.8485559E-01
         -1   -1    0    0    0  501 -0.00000000000E+00  0.00000000000E+00  0.82682169156E+03  0.82682169156E+03  0.00000000000E+00 0.  1.
          1   -1    0    0  501    0  0.00000000000E+00 -0.00000000000E+00 -0.15728035530E+04  0.15728035530E+04  0.00000000000E+00 0. -1.
         23    2    1    2    0    0  0.21765918981E+03 -0.10718991986E+04 -0.40342006644E+02  0.10979835813E+04  0.87161071123E+02 0.  0.
         13    1    3    3    0    0  0.17289997546E+03 -0.97839150397E+03 -0.34462532128E+02  0.99414888356E+03  0.00000000000E+00 0. -1.
        -13    1    3    3    0    0  0.44759214352E+02 -0.93507694654E+02 -0.58794745160E+01  0.10383469771E+03  0.00000000000E+00 0.  1.
         22    1    1    2    0    0 -0.21765918981E+03  0.10718991986E+04 -0.70563985482E+03  0.13016416633E+04  0.00000000000E+00 0. -1.
<mgrwt>
<rscale>  0 0.22807263E+04</rscale>
<asrwt>0</asrwt>
<pdfrwt beam="1">  1        1 0.24196978E+00 0.22807263E+04</pdfrwt>
<pdfrwt beam="2">  1       -1 0.12720334E+00 0.22807263E+04</pdfrwt>
<totfact> 0.28255955E+00</totfact>
</mgrwt>
</event>
<event>
 6    1  0.1603085E-006  0.1608934E+04  0.7818608E-02  0.8815078E-01
          2   -1    0    0  501    0  0.00000000000E+00  0.00000000000E+00  0.14400931256E+04  0.14400931256E+04  0.00000000000E+00 0. -1.
         -2   -1    0    0    0  501 -0.00000000000E+00 -0.00000000000E+00 -0.44939243866E+03  0.44939243866E+03  0.00000000000E+00 0.  1.
         23    2    1    2    0    0  0.49806862893E+03 -0.62697004885E+03  0.54710553977E+03  0.97409468826E+03  0.91499665341E+02 0.  0.
         13    1    3    3    0    0  0.21433943714E+03 -0.31803282418E+03  0.21971979442E+03  0.44199893623E+03  0.00000000000E+00 0. -1.
        -13    1    3    3    0    0  0.28372919180E+03 -0.30893722467E+03  0.32738574536E+03  0.53209575203E+03  0.00000000000E+00 0.  1.
         22    1    1    2    0    0 -0.49806862893E+03  0.62697004885E+03  0.44359514717E+03  0.91539087600E+03  0.00000000000E+00 0.  1.
<mgrwt>
<rscale>  0 0.16089338E+04</rscale>
<asrwt>0</asrwt>
<pdfrwt beam="1">  1        2 0.22155279E+00 0.16089338E+04</pdfrwt>
<pdfrwt beam="2">  1       -2 0.69137299E-01 0.16089338E+04</pdfrwt>
<totfact> 0.25123067E+01</totfact>
</mgrwt>
</event>
<event>
 6    1  0.1603085E-006  0.1990112E+04  0.7818608E-02  0.8611257E-01
          2   -1    0    0  501    0  0.00000000000E+00  0.00000000000E+00  0.21610058963E+04  0.21610058963E+04  0.00000000000E+00 0. -1.
         -2   -1    0    0    0  501 -0.00000000000E+00 -0.00000000000E+00 -0.45818328920E+03  0.45818328920E+03  0.00000000000E+00 0.  1.
         23    2    1    2    0    0  0.75446167016E+03 -0.57168156313E+03  0.45663021982E+03  0.10542522259E+04  0.83092579981E+02 0.  0.
         11    1    3    3    0    0  0.43949188351E+03 -0.38289583662E+03  0.27181848307E+03  0.64315443333E+03  0.00000000000E+00 0.  1.
        -11    1    3    3    0    0  0.31496978664E+03 -0.18878572652E+03  0.18481173675E+03  0.41109779259E+03  0.00000000000E+00 0. -1.
         22    1    1    2    0    0 -0.75446167016E+03  0.57168156313E+03  0.12461923873E+04  0.15649369596E+04  0.00000000000E+00 0. -1.
<mgrwt>
<rscale>  0 0.19901123E+04</rscale>
<asrwt>0</asrwt>
<pdfrwt beam="1">  1        2 0.33246244E+00 0.19901123E+04</pdfrwt>
<pdfrwt beam="2">  1       -2 0.70489738E-01 0.19901123E+04</pdfrwt>
<totfact> 0.92452428E+00</totfact>
</mgrwt>
</event>
<event>
 6    1  0.1603085E-006  0.2218414E+04  0.7818608E-02  0.8510803E-01
         -1   -1    0    0    0  501 -0.00000000000E+00  0.00000000000E+00  0.15634833445E+04  0.15634833445E+04  0.00000000000E+00 0.  1.
          1   -1    0    0  501    0  0.00000000000E+00 -0.00000000000E+00 -0.78692260733E+03  0.78692260733E+03  0.00000000000E+00 0. -1.
         23    2    1    2    0    0 -0.51782016867E+03  0.15766332934E+03  0.14123123917E+04  0.15154355220E+04  0.94462039425E+02 0.  0.
         11    1    3    3    0    0 -0.38885917350E+03  0.15954141704E+03  0.10639532643E+04  0.11439674249E+04  0.00000000000E+00 0.  1.
        -11    1    3    3    0    0 -0.12896099516E+03 -0.18780877001E+01  0.34835912739E+03  0.37146809704E+03  0.00000000000E+00 0. -1.
         22    1    1    2    0    0  0.51782016867E+03 -0.15766332934E+03 -0.63575165455E+03  0.83497042987E+03  0.00000000000E+00 0. -1.
<mgrwt>
<rscale>  0 0.22184142E+04</rscale>
<asrwt>0</asrwt>
<pdfrwt beam="1">  1        1 0.12106502E+00 0.22184142E+04</pdfrwt>
<pdfrwt beam="2">  1       -1 0.24053590E+00 0.22184142E+04</pdfrwt>
<totfact> 0.16616703E+00</totfact>
</mgrwt>
</event>
<event>
 6    1  0.1603085E-006  0.2881833E+04  0.7818608E-02  0.8278303E-01
          2   -1    0    0  501    0  0.00000000000E+00  0.00000000000E+00  0.25483848780E+04  0.25483848780E+04  0.00000000000E+00 0. -1.
         -2   -1    0    0    0  501 -0.00000000000E+00 -0.00000000000E+00 -0.81472820732E+03  0.81472820732E+03  0.00000000000E+00 0.  1.
         23    2    1    2    0    0  0.42726496675E+03 -0.10294891250E+04 -0.19539949555E+03  0.11351855948E+04  0.89789540087E+02 0.  0.
         13    1    3    3    0    0  0.32719060099E+03 -0.77634606583E+03 -0.18628795455E+03  0.86282681073E+03  0.00000000000E+00 0. -1.
        -13    1    3    3    0    0  0.10007436576E+03 -0.25314305919E+03 -0.91115410021E+01  0.27235878411E+03  0.00000000000E+00 0.  1.
         22    1    1    2    0    0 -0.42726496675E+03  0.10294891250E+04  0.19290561662E+04  0.22279274905E+04  0.00000000000E+00 0. -1.
<mgrwt>
<rscale>  0 0.28818335E+04</rscale>
<asrwt>0</asrwt>
<pdfrwt beam="1">  1        2 0.39205921E+00 0.28818335E+04</pdfrwt>
<pdfrwt beam="2">  1       -2 0.12534280E+00 0.28818335E+04</pdfrwt>
<totfact> 0.13425313E+00</totfact>
</mgrwt>
</event>
<event>
 6    1  0.1603085E-006  0.2828252E+04  0.7818608E-02  0.8294550E-01
         -2   -1    0    0    0  501 -0.00000000000E+00  0.00000000000E+00  0.11562128974E+04  0.11562128974E+04  0.00000000000E+00 0.  1.
          2   -1    0    0  501    0  0.00000000000E+00 -0.00000000000E+00 -0.17295714104E+04  0.17295714104E+04  0.00000000000E+00 0. -1.
         23    2    1    2    0    0  0.29415332184E+03  0.85204647798E+03  0.82274191594E+03  0.12239763210E+04  0.93297356981E+02 0.  0.
         13    1    3    3    0    0  0.17465065320E+03  0.62629153988E+03  0.57061925594E+03  0.86507241248E+03  0.00000000000E+00 0. -1.
        -13    1    3    3    0    0  0.11950266864E+03  0.22575493811E+03  0.25212266000E+03  0.35890390856E+03  0.00000000000E+00 0.  1.
         22    1    1    2    0    0 -0.29415332184E+03 -0.85204647798E+03 -0.13961004289E+04  0.16618079868E+04  0.00000000000E+00 0. -1.
<mgrwt>
<rscale>  0 0.28282523E+04</rscale>
<asrwt>0</asrwt>
<pdfrwt beam="1">  1        2 0.26608791E+00 0.28282523E+04</pdfrwt>
<pdfrwt beam="2">  1       -2 0.17787891E+00 0.28282523E+04</pdfrwt>
<totfact> 0.15378616E+00</totfact>
</mgrwt>
</event>
<event>
 6    1  0.1603085E-006  0.5020617E+03  0.7818608E-02  0.1013242E+00
         -2   -1    0    0    0  501 -0.00000000000E+00  0.00000000000E+00  0.16779619854E+03  0.16779619854E+03  0.00000000000E+00 0.  1.
          2   -1    0    0  501    0  0.00000000000E+00 -0.00000000000E+00 -0.37555377606E+03  0.37555377606E+03  0.00000000000E+00 0. -1.
         23    2    1    2    0    0 -0.15825650769E+03 -0.18220933609E+03 -0.13543182507E+03  0.29140478442E+03  0.91266668377E+02 0.  0.
         13    1    3    3    0    0 -0.12145282479E+03 -0.96929037982E+02 -0.45010809290E+02  0.16177762517E+03  0.00000000000E+00 0.  1.
        -13    1    3    3    0    0 -0.36803682905E+02 -0.85280298103E+02 -0.90421015777E+02  0.12962715925E+03  0.00000000000E+00 0. -1.
         22    1    1    2    0    0  0.15825650769E+03  0.18220933609E+03 -0.72325752456E+02  0.25194519018E+03  0.00000000000E+00 0.  1.
<mgrwt>
<rscale>  0 0.50206173E+03</rscale>
<asrwt>0</asrwt>
<pdfrwt beam="1">  1        2 0.57777504E-01 0.50206173E+03</pdfrwt>
<pdfrwt beam="2">  1       -2 0.25814800E-01 0.50206173E+03</pdfrwt>
<totfact> 0.11549400E+03</totfact>
</mgrwt>
</event>
<event>
 6    1  0.2711996E-006  0.4240047E+04  0.7818608E-02  0.7957798E-01
         -2   -1    0    0    0  501 -0.00000000000E+00  0.00000000000E+00  0.18436594833E+04  0.18436594833E+04  0.00000000000E+00 0.  1.
          2   -1    0    0  501    0  0.00000000000E+00 -0.00000000000E+00 -0.24378141212E+04  0.24378141212E+04  0.00000000000E+00 0. -1.
         23    2    1    2    0    0 -0.10484742663E+04  0.11727777658E+04  0.11363513606E+04  0.19428079624E+04  0.92208399048E+02 0.  0.
         13    1    3    3    0    0 -0.62589840280E+03  0.75677107168E+03  0.73780707209E+03  0.12283364935E+04  0.00000000000E+00 0. -1.
        -13    1    3    3    0    0 -0.42257586353E+03  0.41600669414E+03  0.39854428846E+03  0.71447146890E+03  0.00000000000E+00 0.  1.
         22    1    1    2    0    0  0.10484742663E+04 -0.11727777658E+04 -0.17305059984E+04  0.23386656421E+04  0.00000000000E+00 0. -1.
<mgrwt>
<rscale>  0 0.42400468E+04</rscale>
<asrwt>0</asrwt>
<pdfrwt beam="1">  1        2 0.37504833E+00 0.42400468E+04</pdfrwt>
<pdfrwt beam="2">  1       -2 0.28363992E+00 0.42400468E+04</pdfrwt>
<totfact> 0.11708188E-01</totfact>
</mgrwt>
</event>
<event>
 6    1  0.1603085E-006  0.1985190E+04  0.7818608E-02  0.8613576E-01
          2   -1    0    0  501    0  0.00000000000E+00  0.00000000000E+00  0.50810064194E+03  0.50810064194E+03  0.00000000000E+00 0. -1.
         -2   -1    0    0    0  501 -0.00000000000E+00 -0.00000000000E+00 -0.19390743447E+04  0.19390743447E+04  0.00000000000E+00 0.  1.
         23    2    1    2    0    0 -0.89067382039E+03  0.63747747338E+02 -0.12454195549E+04  0.15351475905E+04  0.90799929730E+02 0.  0.
         11    1    3    3    0    0 -0.70420698504E+03  0.45417022765E+02 -0.91767005905E+03  0.11576219249E+04  0.00000000000E+00 0. -1.
        -11    1    3    3    0    0 -0.18646683535E+03  0.18330724573E+02 -0.32774949582E+03  0.37752566557E+03  0.00000000000E+00 0.  1.
         22    1    1    2    0    0  0.89067382039E+03 -0.63747747338E+02 -0.18555414791E+03  0.91202739620E+03  0.00000000000E+00 0. -1.
<mgrwt>
<rscale>  0 0.19851901E+04</rscale>
<asrwt>0</asrwt>
<pdfrwt beam="1">  1        2 0.78169330E-01 0.19851901E+04</pdfrwt>
<pdfrwt beam="2">  1       -2 0.29831913E+00 0.19851901E+04</pdfrwt>
<totfact> 0.18314577E+00</totfact>
</mgrwt>
</event>
<event>
 6    1  0.1603085E-006  0.2957056E+04  0.7818608E-02  0.8256101E-01
          2   -1    0    0  501    0  0.00000000000E+00  0.00000000000E+00  0.27134186235E+04  0.27134186235E+04  0.00000000000E+00 0. -1.
         -2   -1    0    0    0  501 -0.00000000000E+00 -0.00000000000E+00 -0.80564240155E+03  0.80564240155E+03  0.00000000000E+00 0.  1.
         23    2    1    2    0    0 -0.11622140973E+04  0.78910204347E+03  0.41173795193E+03  0.14668538844E+04  0.93319526417E+02 0.  0.
         13    1    3    3    0    0 -0.65224529511E+03  0.45876144311E+03  0.27974504855E+03  0.84506998459E+03  0.00000000000E+00 0. -1.
        -13    1    3    3    0    0 -0.50996880220E+03  0.33034060036E+03  0.13199290338E+03  0.62178389976E+03  0.00000000000E+00 0.  1.
         22    1    1    2    0    0  0.11622140973E+04 -0.78910204347E+03  0.14960382701E+04  0.20522071407E+04  0.00000000000E+00 0. -1.
<mgrwt>
<rscale>  0 0.29570560E+04</rscale>
<asrwt>0</asrwt>
<pdfrwt beam="1">  1        2 0.41744901E+00 0.29570560E+04</pdfrwt>
<pdfrwt beam="2">  1       -2 0.12394499E+00 0.29570560E+04</pdfrwt>
<totfact> 0.10964759E+00</totfact>
</mgrwt>
</event>
<event>
 6    1  0.1603085E-006  0.1295417E+04  0.7818608E-02  0.9033207E-01
         -2   -1    0    0    0  501 -0.00000000000E+00  0.00000000000E+00  0.25248904522E+03  0.25248904522E+03  0.00000000000E+00 0. -1.
          2   -1    0    0  501    0  0.00000000000E+00 -0.00000000000E+00 -0.16615633320E+04  0.16615633320E+04  0.00000000000E+00 0.  1.
         23    2    1    2    0    0 -0.61229493136E+03  0.20106067130E+03 -0.66582411578E+03  0.93030886733E+03  0.82597572384E+02 0.  0.
         13    1    3    3    0    0 -0.28476256963E+03  0.11139248527E+03 -0.26189685710E+03  0.40260150347E+03  0.00000000000E+00 0.  1.
        -13    1    3    3    0    0 -0.32753236173E+03  0.89668186029E+02 -0.40392725868E+03  0.52770736386E+03  0.00000000000E+00 0. -1.
         22    1    1    2    0    0  0.61229493136E+03 -0.20106067130E+03 -0.74325017097E+03  0.98374350985E+03  0.00000000000E+00 0. -1.
<mgrwt>
<rscale>  0 0.12954174E+04</rscale>
<asrwt>0</asrwt>
<pdfrwt beam="1">  1        2 0.25562512E+00 0.12954174E+04</pdfrwt>
<pdfrwt beam="2">  1       -2 0.38844469E-01 0.12954174E+04</pdfrwt>
<totfact> 0.63253294E+01</totfact>
</mgrwt>
</event>
<event>
 6    1  0.1603085E-006  0.3130914E+04  0.7818608E-02  0.8207305E-01
          2   -1    0    0  501    0  0.00000000000E+00  0.00000000000E+00  0.94062444428E+03  0.94062444428E+03  0.00000000000E+00 0. -1.
         -2   -1    0    0    0  501 -0.00000000000E+00 -0.00000000000E+00 -0.26053503796E+04  0.26053503796E+04  0.00000000000E+00 0.  1.
         23    2    1    2    0    0  0.61263488892E+03  0.55078302823E+03 -0.23389290138E+04  0.24814405397E+04  0.90965758785E+02 0.  0.
         11    1    3    3    0    0  0.35257761259E+03  0.33116706499E+03 -0.15008992379E+04  0.15769214058E+04  0.00000000000E+00 0. -1.
        -11    1    3    3    0    0  0.26005727633E+03  0.21961596324E+03 -0.83802977588E+03  0.90451913387E+03  0.00000000000E+00 0.  1.
         22    1    1    2    0    0 -0.61263488892E+03 -0.55078302823E+03  0.67420307842E+03  0.10645342842E+04  0.00000000000E+00 0.  1.
<mgrwt>
<rscale>  0 0.31309144E+04</rscale>
<asrwt>0</asrwt>
<pdfrwt beam="1">  1        2 0.14471145E+00 0.31309144E+04</pdfrwt>
<pdfrwt beam="2">  1       -2 0.40082314E+00 0.31309144E+04</pdfrwt>
<totfact> 0.17083111E-01</totfact>
</mgrwt>
</event>
<event>
 6    1  0.1603085E-006  0.2133657E+04  0.7818608E-02  0.8546560E-01
         -2   -1    0    0    0  501 -0.00000000000E+00  0.00000000000E+00  0.77529948076E+03  0.77529948076E+03  0.00000000000E+00 0.  1.
          2   -1    0    0  501    0  0.00000000000E+00 -0.00000000000E+00 -0.14679790415E+04  0.14679790415E+04  0.00000000000E+00 0. -1.
         23    2    1    2    0    0 -0.14032408001E+03  0.88668312961E+03 -0.94916281782E+03  0.13096396837E+04  0.91368629975E+02 0.  0.
         13    1    3    3    0    0 -0.56098906406E+02  0.29193280027E+03 -0.37659249564E+03  0.47978511331E+03  0.00000000000E+00 0. -1.
        -13    1    3    3    0    0 -0.84225173602E+02  0.59475032934E+03 -0.57257032218E+03  0.82985457037E+03  0.00000000000E+00 0.  1.
         22    1    1    2    0    0  0.14032408001E+03 -0.88668312961E+03  0.25648325707E+03  0.93363883859E+03  0.00000000000E+00 0.  1.
<mgrwt>
<rscale>  0 0.21336573E+04</rscale>
<asrwt>0</asrwt>
<pdfrwt beam="1">  1        2 0.22584292E+00 0.21336573E+04</pdfrwt>
<pdfrwt beam="2">  1       -2 0.11927685E+00 0.21336573E+04</pdfrwt>
<totfact> 0.65576720E+00</totfact>
</mgrwt>
</event>
<event>
 6    1  0.1603085E-006  0.3825029E+04  0.7818608E-02  0.8040805E-01
         -2   -1    0    0    0  501 -0.00000000000E+00  0.00000000000E+00  0.14670326904E+04  0.14670326904E+04  0.00000000000E+00 0.  1.
          2   -1    0    0  501    0  0.00000000000E+00 -0.00000000000E+00 -0.24932714791E+04  0.24932714791E+04  0.00000000000E+00 0. -1.
         23    2    1    2    0    0  0.73817178166E+03 -0.86074889204E+03 -0.21068886993E+04  0.23939100737E+04  0.77712387708E+02 0.  0.
         11    1    3    3    0    0  0.15299642186E+03 -0.17660162692E+03 -0.50327763071E+03  0.55487333087E+03  0.00000000000E+00 0. -1.
        -11    1    3    3    0    0  0.58517535980E+03 -0.68414726512E+03 -0.16036110686E+04  0.18390367428E+04  0.00000000000E+00 0.  1.
         22    1    1    2    0    0 -0.73817178166E+03  0.86074889204E+03  0.10806499105E+04  0.15663940959E+04  0.00000000000E+00 0.  1.
<mgrwt>
<rscale>  0 0.38250285E+04</rscale>
<asrwt>0</asrwt>
<pdfrwt beam="1">  1        2 0.38358023E+00 0.38250285E+04</pdfrwt>
<pdfrwt beam="2">  1       -2 0.22569734E+00 0.38250285E+04</pdfrwt>
<totfact> 0.25570645E-01</totfact>
</mgrwt>
</event>
<event>
 6    1  0.1603085E-006  0.1554029E+04  0.7818608E-02  0.8849298E-01
         -1   -1    0    0    0  501 -0.00000000000E+00  0.00000000000E+00  0.65106425308E+03  0.65106425308E+03  0.00000000000E+00 0.  1.
          1   -1    0    0  501    0  0.00000000000E+00 -0.00000000000E+00 -0.92733004533E+03  0.92733004533E+03  0.00000000000E+00 0. -1.
         23    2    1    2    0    0 -0.19595351173E+02 -0.57047402523E+03 -0.67011922964E+03  0.88489222820E+03  0.90276698852E+02 0.  0.
         11    1    3    3    0    0 -0.53073431399E+02 -0.24878933492E+03 -0.28704084161E+03  0.38354317494E+03  0.00000000000E+00 0.  1.
        -11    1    3    3    0    0  0.33478080225E+02 -0.32168469031E+03 -0.38307838802E+03  0.50134905326E+03  0.00000000000E+00 0. -1.
         22    1    1    2    0    0  0.19595351173E+02  0.57047402523E+03  0.39385343738E+03  0.69350207021E+03  0.00000000000E+00 0.  1.
<mgrwt>
<rscale>  0 0.15540289E+04</rscale>
<asrwt>0</asrwt>
<pdfrwt beam="1">  1        1 0.14266616E+00 0.15540289E+04</pdfrwt>
<pdfrwt beam="2">  1       -1 0.10016373E+00 0.15540289E+04</pdfrwt>
<totfact> 0.15813678E+01</totfact>
</mgrwt>
</event>
<event>
 6    1  0.1603085E-006  0.2474614E+04  0.7818608E-02  0.8412086E-01
          1   -1    0    0  501    0  0.00000000000E+00  0.00000000000E+00  0.18164383966E+04  0.18164383966E+04  0.00000000000E+00 0. -1.
         -1   -1    0    0    0  501 -0.00000000000E+00 -0.00000000000E+00 -0.84281881449E+03  0.84281881449E+03  0.00000000000E+00 0.  1.
         23    2    1    2    0    0 -0.72255387895E+03  0.96459977652E+02 -0.58480930754E+03  0.93876622322E+03  0.88833892115E+02 0.  0.
         11    1    3    3    0    0 -0.44477405321E+03  0.62782065968E+02 -0.30427075677E+03  0.54253685556E+03  0.00000000000E+00 0. -1.
        -11    1    3    3    0    0 -0.27777982575E+03  0.33677911683E+02 -0.28053855077E+03  0.39622936766E+03  0.00000000000E+00 0.  1.
         22    1    1    2    0    0  0.72255387895E+03 -0.96459977652E+02  0.15584288896E+04  0.17204909879E+04  0.00000000000E+00 0. -1.
<mgrwt>
<rscale>  0 0.24746139E+04</rscale>
<asrwt>0</asrwt>
<pdfrwt beam="1">  1        1 0.27945206E+00 0.24746139E+04</pdfrwt>
<pdfrwt beam="2">  1       -1 0.12966443E+00 0.24746139E+04</pdfrwt>
<totfact> 0.18044408E+00</totfact>
</mgrwt>
</event>
<event>
 6    1  0.1603085E-006  0.2496383E+04  0.7818608E-02  0.8404275E-01
         -1   -1    0    0    0  501 -0.00000000000E+00  0.00000000000E+00  0.90278669801E+03  0.90278669801E+03  0.00000000000E+00 0.  1.
          1   -1    0    0  501    0  0.00000000000E+00 -0.00000000000E+00 -0.17257471935E+04  0.17257471935E+04  0.00000000000E+00 0. -1.
         23    2    1    2    0    0 -0.93950047686E+03  0.13667748097E+03  0.43867155200E+03  0.10495920613E+04  0.88706734880E+02 0.  0.
         11    1    3    3    0    0 -0.38857241771E+03  0.20112354745E+02  0.15233757750E+03  0.41785137087E+03  0.00000000000E+00 0.  1.
        -11    1    3    3    0    0 -0.55092805915E+03  0.11656512622E+03  0.28633397450E+03  0.63174069044E+03  0.00000000000E+00 0. -1.
         22    1    1    2    0    0  0.93950047686E+03 -0.13667748097E+03 -0.12616320475E+04  0.15789418301E+04  0.00000000000E+00 0. -1.
<mgrwt>
<rscale>  0 0.24963827E+04</rscale>
<asrwt>0</asrwt>
<pdfrwt beam="1">  1        1 0.26549957E+00 0.24963827E+04</pdfrwt>
<pdfrwt beam="2">  1       -1 0.13889026E+00 0.24963827E+04</pdfrwt>
<totfact> 0.17407358E+00</totfact>
</mgrwt>
</event>
<event>
 6    1  0.1603085E-006  0.2999769E+04  0.7818608E-02  0.8243797E-01
         -2   -1    0    0    0  501 -0.00000000000E+00  0.00000000000E+00  0.10146079109E+04  0.10146079109E+04  0.00000000000E+00 0.  1.
          2   -1    0    0  501    0  0.00000000000E+00 -0.00000000000E+00 -0.22172639068E+04  0.22172639068E+04  0.00000000000E+00 0. -1.
         23    2    1    2    0    0 -0.14752936470E+04 -0.23865896726E+03 -0.48379691491E+03  0.15734967619E+04  0.91559583635E+02 0.  0.
         13    1    3    3    0    0 -0.12928221673E+03 -0.11160575857E+01 -0.59676102066E+02  0.14239513442E+03  0.00000000000E+00 0. -1.
        -13    1    3    3    0    0 -0.13460114303E+04 -0.23754290967E+03 -0.42412081285E+03  0.14311016275E+04  0.00000000000E+00 0.  1.
         22    1    1    2    0    0  0.14752936470E+04  0.23865896726E+03 -0.71885908096E+03  0.16583750558E+04  0.00000000000E+00 0. -1.
<mgrwt>
<rscale>  0 0.29997690E+04</rscale>
<asrwt>0</asrwt>
<pdfrwt beam="1">  1        2 0.34111752E+00 0.29997690E+04</pdfrwt>
<pdfrwt beam="2">  1       -2 0.15609353E+00 0.29997690E+04</pdfrwt>
<totfact> 0.11643155E+00</totfact>
</mgrwt>
</event>
<event>
 6    1  0.1603085E-006  0.1717970E+04  0.7818608E-02  0.8751181E-01
         -2   -1    0    0    0  501 -0.00000000000E+00  0.00000000000E+00  0.54278058636E+03  0.54278058636E+03  0.00000000000E+00 0.  1.
          2   -1    0    0  501    0  0.00000000000E+00 -0.00000000000E+00 -0.13593994546E+04  0.13593994546E+04  0.00000000000E+00 0. -1.
         23    2    1    2    0    0  0.12103734429E+03  0.44701501733E+03  0.38841121106E+03  0.61122304848E+03  0.90872887530E+02 0.  0.
         13    1    3    3    0    0  0.46453028281E+02  0.32707059525E+03  0.26122311560E+03  0.42115386053E+03  0.00000000000E+00 0. -1.
        -13    1    3    3    0    0  0.74584316013E+02  0.11994442208E+03  0.12718809546E+03  0.19006918795E+03  0.00000000000E+00 0.  1.
         22    1    1    2    0    0 -0.12103734429E+03 -0.44701501733E+03 -0.12050300793E+04  0.12909569925E+04  0.00000000000E+00 0. -1.
<mgrwt>
<rscale>  0 0.17179705E+04</rscale>
<asrwt>0</asrwt>
<pdfrwt beam="1">  1        2 0.20913838E+00 0.17179705E+04</pdfrwt>
<pdfrwt beam="2">  1       -2 0.83504705E-01 0.17179705E+04</pdfrwt>
<totfact> 0.18204281E+01</totfact>
</mgrwt>
</event>
<event>
 6    1  0.1603085E-006  0.1999134E+04  0.7818608E-02  0.8607026E-01
         -2   -1    0    0    0  501 -0.00000000000E+00  0.00000000000E+00  0.71391315650E+03  0.71391315650E+03  0.00000000000E+00 0.  1.
          2   -1    0    0  501    0  0.00000000000E+00 -0.00000000000E+00 -0.13995178689E+04  0.13995178689E+04  0.00000000000E+00 0. -1.
         23    2    1    2    0    0 -0.38769449306E+03 -0.17869949005E+03 -0.12965955501E+04  0.13680785374E+04  0.90765280028E+02 0.  0.
         13    1    3    3    0    0 -0.84304507608E+02 -0.38283614341E+02 -0.41552736232E+03  0.42571806864E+03  0.00000000000E+00 0.  1.
        -13    1    3    3    0    0 -0.30338998545E+03 -0.14041587571E+03 -0.88106818781E+03  0.94236046872E+03  0.00000000000E+00 0. -1.
         22    1    1    2    0    0  0.38769449306E+03  0.17869949005E+03  0.61099083771E+03  0.74535248806E+03  0.00000000000E+00 0.  1.
<mgrwt>
<rscale>  0 0.19991340E+04</rscale>
<asrwt>0</asrwt>
<pdfrwt beam="1">  1        2 0.21531044E+00 0.19991340E+04</pdfrwt>
<pdfrwt beam="2">  1       -2 0.10983279E+00 0.19991340E+04</pdfrwt>
<totfact> 0.88733705E+00</totfact>
</mgrwt>
</event>
<event>
 6    1  0.1603085E-006  0.2276015E+04  0.7818608E-02  0.8487439E-01
          2   -1    0    0  501    0  0.00000000000E+00  0.00000000000E+00  0.71429481120E+03  0.71429481120E+03  0.00000000000E+00 0. -1.
         -2   -1    0    0    0  501 -0.00000000000E+00 -0.00000000000E+00 -0.18130617607E+04  0.18130617607E+04  0.00000000000E+00 0.  1.
         23    2    1    2    0    0  0.96455257562E+03  0.59868454441E+03 -0.49853427675E+03  0.12431976580E+04  0.90659455195E+02 0.  0.
         11    1    3    3    0    0  0.73699359471E+03  0.42208037790E+03 -0.39980437636E+03  0.93869853702E+03  0.00000000000E+00 0.  1.
        -11    1    3    3    0    0  0.22755898090E+03  0.17660416651E+03 -0.98729900391E+02  0.30449912094E+03  0.00000000000E+00 0. -1.
         22    1    1    2    0    0 -0.96455257562E+03 -0.59868454441E+03 -0.60023267276E+03  0.12841589140E+04  0.00000000000E+00 0.  1.
<mgrwt>
<rscale>  0 0.22760146E+04</rscale>
<asrwt>0</asrwt>
<pdfrwt beam="1">  1        2 0.10989151E+00 0.22760146E+04</pdfrwt>
<pdfrwt beam="2">  1       -2 0.27893257E+00 0.22760146E+04</pdfrwt>
<totfact> 0.15508496E+00</totfact>
</mgrwt>
</event>
<event>
 6    1  0.1603085E-006  0.1297621E+04  0.7818608E-02  0.9031454E-01
         -1   -1    0    0    0  501 -0.00000000000E+00  0.00000000000E+00  0.24538541513E+03  0.24538541513E+03  0.00000000000E+00 0.  1.
          1   -1    0    0  501    0  0.00000000000E+00 -0.00000000000E+00 -0.17154841507E+04  0.17154841507E+04  0.00000000000E+00 0. -1.
         23    2    1    2    0    0 -0.18534815064E+03  0.21898764261E+03 -0.16127192296E+04  0.16404789762E+04  0.89433961641E+02 0.  0.
         11    1    3    3    0    0  0.18092856915E+01  0.42246170662E+02 -0.27258712752E+03  0.27584733920E+03  0.00000000000E+00 0.  1.
        -11    1    3    3    0    0 -0.18715743633E+03  0.17674147194E+03 -0.13401321020E+04  0.13646316370E+04  0.00000000000E+00 0. -1.
         22    1    1    2    0    0  0.18534815064E+03 -0.21898764261E+03  0.14262049403E+03  0.32039058956E+03  0.00000000000E+00 0.  1.
<mgrwt>
<rscale>  0 0.12976206E+04</rscale>
<asrwt>0</asrwt>
<pdfrwt beam="1">  1        1 0.26392064E+00 0.12976206E+04</pdfrwt>
<pdfrwt beam="2">  1       -1 0.37751602E-01 0.12976206E+04</pdfrwt>
<totfact> 0.30947343E+01</totfact>
</mgrwt>
</event>
<event>
 6    1  0.1603085E-006  0.3659394E+04  0.7818608E-02  0.8077021E-01
          2   -1    0    0  501    0  0.00000000000E+00  0.00000000000E+00  0.14399284608E+04  0.14399284608E+04  0.00000000000E+00 0.  1.
         -2   -1    0    0    0  501 -0.00000000000E+00 -0.00000000000E+00 -0.23249704172E+04  0.23249704172E+04  0.00000000000E+00 0. -1.
         23    2    1    2    0    0  0.16118075667E+04  0.41073629810E+03 -0.12242917640E+04  0.20673363988E+04  0.91441367890E+02 0.  0.
         11    1    3    3    0    0  0.56674818947E+03  0.16043537261E+03 -0.48468259289E+03  0.76279763693E+03  0.00000000000E+00 0.  1.
        -11    1    3    3    0    0  0.10450593773E+04  0.25030092549E+03 -0.73960917110E+03  0.13045387619E+04  0.00000000000E+00 0. -1.
         22    1    1    2    0    0 -0.16118075667E+04 -0.41073629810E+03  0.33924980766E+03  0.16975624792E+04  0.00000000000E+00 0.  1.
<mgrwt>
<rscale>  0 0.36593940E+04</rscale>
<asrwt>0</asrwt>
<pdfrwt beam="1">  1        2 0.22152746E+00 0.36593940E+04</pdfrwt>
<pdfrwt beam="2">  1       -2 0.35768775E+00 0.36593940E+04</pdfrwt>
<totfact> 0.15483700E-01</totfact>
</mgrwt>
</event>
<event>
 6    1  0.1603085E-006  0.1928996E+04  0.7818608E-02  0.8640556E-01
         -2   -1    0    0    0  501 -0.00000000000E+00  0.00000000000E+00  0.10163630930E+04  0.10163630930E+04  0.00000000000E+00 0.  1.
          2   -1    0    0  501    0  0.00000000000E+00 -0.00000000000E+00 -0.91527979929E+03  0.91527979929E+03  0.00000000000E+00 0. -1.
         23    2    1    2    0    0 -0.72252289523E+03  0.31324919557E+03 -0.50328553753E+03  0.93895659905E+03  0.90436552100E+02 0.  0.
         13    1    3    3    0    0 -0.27697394407E+03  0.12511679633E+03 -0.14307863453E+03  0.33591706428E+03  0.00000000000E+00 0.  1.
        -13    1    3    3    0    0 -0.44554895117E+03  0.18813239923E+03 -0.36020690300E+03  0.60303953477E+03  0.00000000000E+00 0. -1.
         22    1    1    2    0    0  0.72252289523E+03 -0.31324919557E+03  0.60436883127E+03  0.99268629328E+03  0.00000000000E+00 0.  1.
<mgrwt>
<rscale>  0 0.19289962E+04</rscale>
<asrwt>0</asrwt>
<pdfrwt beam="1">  1        2 0.14081228E+00 0.19289962E+04</pdfrwt>
<pdfrwt beam="2">  1       -2 0.15636355E+00 0.19289962E+04</pdfrwt>
<totfact> 0.71715543E+00</totfact>
</mgrwt>
</event>
<event>
 6    1  0.1603085E-006  0.2631055E+04  0.7818608E-02  0.8357728E-01
          2   -1    0    0  501    0  0.00000000000E+00  0.00000000000E+00  0.39634795789E+04  0.39634795789E+04  0.00000000000E+00 0. -1.
         -2   -1    0    0    0  501 -0.00000000000E+00 -0.00000000000E+00 -0.43663977375E+03  0.43663977375E+03  0.00000000000E+00 0.  1.
         23    2    1    2    0    0 -0.12490603848E+04  0.37776912104E+03  0.20167468133E+04  0.24043132003E+04  0.10292182718E+03 0.  0.
         13    1    3    3    0    0 -0.72884717280E+03  0.16864123237E+03  0.11313231553E+04  0.13563001689E+04  0.00000000000E+00 0. -1.
        -13    1    3    3    0    0 -0.52021321203E+03  0.20912788867E+03  0.88542365796E+03  0.10480130313E+04  0.00000000000E+00 0.  1.
         22    1    1    2    0    0  0.12490603848E+04 -0.37776912104E+03  0.15100929919E+04  0.19958061524E+04  0.00000000000E+00 0. -1.
<mgrwt>
<rscale>  0 0.26310552E+04</rscale>
<asrwt>0</asrwt>
<pdfrwt beam="1">  1        2 0.60976607E+00 0.26310552E+04</pdfrwt>
<pdfrwt beam="2">  1       -2 0.67175352E-01 0.26310552E+04</pdfrwt>
<totfact> 0.65806068E-01</totfact>
</mgrwt>
</event>
<event>
 6    1  0.1603085E-006  0.1417916E+04  0.7818608E-02  0.8940952E-01
          2   -1    0    0  501    0  0.00000000000E+00  0.00000000000E+00  0.16553186042E+04  0.16553186042E+04  0.00000000000E+00 0. -1.
         -2   -1    0    0    0  501 -0.00000000000E+00 -0.00000000000E+00 -0.30364010011E+03  0.30364010011E+03  0.00000000000E+00 0.  1.
         23    2    1    2    0    0  0.49742935443E+03  0.48700148353E+03  0.51605973240E+03  0.87136266752E+03  0.91372005249E+02 0.  0.
         11    1    3    3    0    0  0.89092157285E+02  0.47809889764E+02  0.56426639902E+02  0.11578930754E+03  0.00000000000E+00 0. -1.
        -11    1    3    3    0    0  0.40833719714E+03  0.43919159377E+03  0.45963309249E+03  0.75557335999E+03  0.00000000000E+00 0.  1.
         22    1    1    2    0    0 -0.49742935443E+03 -0.48700148353E+03  0.83561877171E+03  0.10875960368E+04  0.00000000000E+00 0. -1.
<mgrwt>
<rscale>  0 0.14179155E+04</rscale>
<asrwt>0</asrwt>
<pdfrwt beam="1">  1        2 0.25466439E+00 0.14179155E+04</pdfrwt>
<pdfrwt beam="2">  1       -2 0.46713863E-01 0.14179155E+04</pdfrwt>
<totfact> 0.43849273E+01</totfact>
</mgrwt>
</event>
<event>
 6    1  0.1603085E-006  0.8588029E+03  0.7818608E-02  0.9478598E-01
          1   -1    0    0  501    0  0.00000000000E+00  0.00000000000E+00  0.29731676879E+03  0.29731676879E+03  0.00000000000E+00 0. -1.
         -1   -1    0    0    0  501 -0.00000000000E+00 -0.00000000000E+00 -0.62016556041E+03  0.62016556041E+03  0.00000000000E+00 0.  1.
         23    2    1    2    0    0  0.19832172905E+03 -0.35292846375E+03 -0.26286876419E+02  0.41564672037E+03  0.90449917322E+02 0.  0.
         13    1    3    3    0    0  0.89295692728E+02 -0.20066839557E+03 -0.54407256924E+02  0.22627787193E+03  0.00000000000E+00 0.  1.
        -13    1    3    3    0    0  0.10902603633E+03 -0.15226006818E+03  0.28120380504E+02  0.18936884844E+03  0.00000000000E+00 0. -1.
         22    1    1    2    0    0 -0.19832172905E+03  0.35292846375E+03 -0.29656191520E+03  0.50183560883E+03  0.00000000000E+00 0.  1.
<mgrwt>
<rscale>  0 0.85880294E+03</rscale>
<asrwt>0</asrwt>
<pdfrwt beam="1">  1        1 0.45741042E-01 0.85880294E+03</pdfrwt>
<pdfrwt beam="2">  1       -1 0.95410086E-01 0.85880294E+03</pdfrwt>
<totfact> 0.95046290E+01</totfact>
</mgrwt>
</event>
<event>
 6    1  0.1603085E-006  0.4752862E+04  0.7818608E-02  0.7867804E-01
          2   -1    0    0  501    0  0.00000000000E+00  0.00000000000E+00  0.10652883246E+04  0.10652883246E+04  0.00000000000E+00 0.  1.
         -2   -1    0    0    0  501 -0.00000000000E+00 -0.00000000000E+00 -0.53013111212E+04  0.53013111212E+04  0.00000000000E+00 0. -1.
         23    2    1    2    0    0 -0.21427807937E+04  0.51971634026E+03 -0.33030717474E+04  0.39724373242E+04  0.91436987495E+02 0.  0.
         11    1    3    3    0    0 -0.17542830297E+04  0.45333657235E+03 -0.26722007367E+04  0.32285724049E+04  0.00000000000E+00 0.  1.
        -11    1    3    3    0    0 -0.38849776393E+03  0.66379767903E+02 -0.63087101064E+03  0.74386491934E+03  0.00000000000E+00 0. -1.
         22    1    1    2    0    0  0.21427807937E+04 -0.51971634026E+03 -0.93295104917E+03  0.23941621215E+04  0.00000000000E+00 0.  1.
<mgrwt>
<rscale>  0 0.47528622E+04</rscale>
<asrwt>0</asrwt>
<pdfrwt beam="1">  1        2 0.16389051E+00 0.47528622E+04</pdfrwt>
<pdfrwt beam="2">  1       -2 0.81558633E+00 0.47528622E+04</pdfrwt>
<totfact> 0.10449538E-03</totfact>
</mgrwt>
</event>
<event>
 6    1  0.1603085E-006  0.1513288E+04  0.7818608E-02  0.8875664E-01
          1   -1    0    0  501    0  0.00000000000E+00  0.00000000000E+00  0.13345475041E+04  0.13345475041E+04  0.00000000000E+00 0. -1.
         -1   -1    0    0    0  501 -0.00000000000E+00 -0.00000000000E+00 -0.42899189266E+03  0.42899189266E+03  0.00000000000E+00 0.  1.
         23    2    1    2    0    0  0.27299451110E+03  0.56683211046E+03 -0.29321885019E+02  0.63667623828E+03  0.93124727684E+02 0.  0.
         11    1    3    3    0    0  0.11685468043E+03  0.26272238576E+03 -0.59035999488E+02  0.29353588802E+03  0.00000000000E+00 0.  1.
        -11    1    3    3    0    0  0.15613983067E+03  0.30410972471E+03  0.29714114469E+02  0.34314035027E+03  0.00000000000E+00 0. -1.
         22    1    1    2    0    0 -0.27299451110E+03 -0.56683211046E+03  0.93487749643E+03  0.11268631585E+04  0.00000000000E+00 0. -1.
<mgrwt>
<rscale>  0 0.15132879E+04</rscale>
<asrwt>0</asrwt>
<pdfrwt beam="1">  1        1 0.20531500E+00 0.15132879E+04</pdfrwt>
<pdfrwt beam="2">  1       -1 0.65998753E-01 0.15132879E+04</pdfrwt>
<totfact> 0.19215634E+01</totfact>
</mgrwt>
</event>
<event>
 6    1  0.1603085E-006  0.4705221E+04  0.7818608E-02  0.7875662E-01
          2   -1    0    0  501    0  0.00000000000E+00  0.00000000000E+00  0.35601942740E+04  0.35601942740E+04  0.00000000000E+00 0. -1.
         -2   -1    0    0    0  501 -0.00000000000E+00 -0.00000000000E+00 -0.15546275710E+04  0.15546275710E+04  0.00000000000E+00 0.  1.
         23    2    1    2    0    0  0.15922955677E+03  0.21645812905E+04  0.18701110162E+02  0.21723057279E+04  0.88296257774E+02 0.  0.
         13    1    3    3    0    0  0.13345756648E+03  0.14985228324E+04  0.46459479672E+02  0.15051711147E+04  0.00000000000E+00 0.  1.
        -13    1    3    3    0    0  0.25771990291E+02  0.66605845808E+03 -0.27758369509E+02  0.66713461321E+03  0.00000000000E+00 0. -1.
         22    1    1    2    0    0 -0.15922955677E+03 -0.21645812905E+04  0.19868655928E+04  0.29425161170E+04  0.00000000000E+00 0.  1.
<mgrwt>
<rscale>  0 0.47052210E+04</rscale>
<asrwt>0</asrwt>
<pdfrwt beam="1">  1        2 0.54772219E+00 0.47052210E+04</pdfrwt>
<pdfrwt beam="2">  1       -2 0.23917347E+00 0.47052210E+04</pdfrwt>
<totfact> 0.41089567E-02</totfact>
</mgrwt>
</event>
<event>
 6    1  0.1603085E-006  0.3728245E+04  0.7818608E-02  0.8061731E-01
         -2   -1    0    0    0  501 -0.00000000000E+00  0.00000000000E+00  0.12520487062E+04  0.12520487062E+04  0.00000000000E+00 0.  1.
          2   -1    0    0  501    0  0.00000000000E+00 -0.00000000000E+00 -0.27754140862E+04  0.27754140862E+04  0.00000000000E+00 0. -1.
         23    2    1    2    0    0 -0.55648521996E+03 -0.15513266322E+04 -0.17005188391E+04  0.23698520215E+04  0.90245009569E+02 0.  0.
         13    1    3    3    0    0 -0.42791688716E+03 -0.11447092123E+04 -0.13113174237E+04  0.17924914026E+04  0.00000000000E+00 0. -1.
        -13    1    3    3    0    0 -0.12856833281E+03 -0.40661741995E+03 -0.38920141540E+03  0.57736061882E+03  0.00000000000E+00 0.  1.
         22    1    1    2    0    0  0.55648521996E+03  0.15513266322E+04  0.17715345910E+03  0.16576107709E+04  0.00000000000E+00 0.  1.
<mgrwt>
<rscale>  0 0.37282455E+04</rscale>
<asrwt>0</asrwt>
<pdfrwt beam="1">  1        2 0.42698678E+00 0.37282455E+04</pdfrwt>
<pdfrwt beam="2">  1       -2 0.19262288E+00 0.37282455E+04</pdfrwt>
<totfact> 0.28719136E-01</totfact>
</mgrwt>
</event>
<event>
 6    1  0.1603085E-006  0.6457673E+04  0.7818608E-02  0.7636108E-01
          1   -1    0    0  501    0  0.00000000000E+00  0.00000000000E+00  0.31175850144E+04  0.31175850144E+04  0.00000000000E+00 0. -1.
         -1   -1    0    0    0  501 -0.00000000000E+00 -0.00000000000E+00 -0.33440583768E+04  0.33440583768E+04  0.00000000000E+00 0.  1.
         23    2    1    2    0    0  0.59629596536E+03  0.20171963075E+04 -0.25635610136E+04  0.33173424338E+04  0.90917168627E+02 0.  0.
         11    1    3    3    0    0  0.46828673087E+03  0.15793381830E+04 -0.20652677937E+04  0.26417669500E+04  0.00000000000E+00 0. -1.
        -11    1    3    3    0    0  0.12800923449E+03  0.43785812456E+03 -0.49829321986E+03  0.67557548380E+03  0.00000000000E+00 0.  1.
         22    1    1    2    0    0 -0.59629596536E+03 -0.20171963075E+04  0.23370876511E+04  0.31443009574E+04  0.00000000000E+00 0. -1.
<mgrwt>
<rscale>  0 0.64576734E+04</rscale>
<asrwt>0</asrwt>
<pdfrwt beam="1">  1        1 0.47962846E+00 0.64576734E+04</pdfrwt>
<pdfrwt beam="2">  1       -1 0.51447052E+00 0.64576734E+04</pdfrwt>
<totfact> 0.38661709E-04</totfact>
</mgrwt>
</event>
<event>
 6    1  0.1603085E-006  0.3008239E+04  0.7818608E-02  0.8241382E-01
          1   -1    0    0  501    0  0.00000000000E+00  0.00000000000E+00  0.15132959626E+04  0.15132959626E+04  0.00000000000E+00 0. -1.
         -1   -1    0    0    0  501 -0.00000000000E+00 -0.00000000000E+00 -0.14949989701E+04  0.14949989701E+04  0.00000000000E+00 0.  1.
         23    2    1    2    0    0  0.14183021332E+04  0.47601533369E+03  0.15098130923E+03  0.15063706114E+04  0.90473886212E+02 0.  0.
         13    1    3    3    0    0  0.61890700880E+03  0.19520120315E+03  0.10897728331E+03  0.65804668795E+03  0.00000000000E+00 0.  1.
        -13    1    3    3    0    0  0.79939512445E+03  0.28081413055E+03  0.42004025917E+02  0.84832392346E+03  0.00000000000E+00 0. -1.
         22    1    1    2    0    0 -0.14183021332E+04 -0.47601533369E+03 -0.13268431673E+03  0.15019243213E+04  0.00000000000E+00 0.  1.
<mgrwt>
<rscale>  0 0.30082393E+04</rscale>
<asrwt>0</asrwt>
<pdfrwt beam="1">  1        1 0.23281476E+00 0.30082393E+04</pdfrwt>
<pdfrwt beam="2">  1       -1 0.22999984E+00 0.30082393E+04</pdfrwt>
<totfact> 0.51412992E-01</totfact>
</mgrwt>
</event>
<event>
 6    1  0.1603085E-006  0.6734247E+03  0.7818608E-02  0.9763791E-01
         -2   -1    0    0    0  501 -0.00000000000E+00  0.00000000000E+00  0.88824686487E+02  0.88824686487E+02  0.00000000000E+00 0. -1.
          2   -1    0    0  501    0  0.00000000000E+00 -0.00000000000E+00 -0.12763930426E+04  0.12763930426E+04  0.00000000000E+00 0.  1.
         23    2    1    2    0    0 -0.26851679204E+03  0.95942538816E+02 -0.26562391116E+03  0.40018519184E+03  0.91026848945E+02 0.  0.
         11    1    3    3    0    0 -0.12926433345E+03  0.71202794309E+02 -0.18749460050E+03  0.23860706410E+03  0.00000000000E+00 0.  1.
        -11    1    3    3    0    0 -0.13925245859E+03  0.24739744507E+02 -0.78129310656E+02  0.16157812775E+03  0.00000000000E+00 0. -1.
         22    1    1    2    0    0  0.26851679204E+03 -0.95942538816E+02 -0.92194444491E+03  0.96503253720E+03  0.00000000000E+00 0.  1.
<mgrwt>
<rscale>  0 0.67342472E+03</rscale>
<asrwt>0</asrwt>
<pdfrwt beam="1">  1        2 0.19636815E+00 0.67342472E+03</pdfrwt>
<pdfrwt beam="2">  1       -2 0.13665337E-01 0.67342472E+03</pdfrwt>
<totfact> 0.70765121E+02</totfact>
</mgrwt>
</event>
<event>
 6    1  0.1603085E-006  0.3712385E+04  0.7818608E-02  0.8065223E-01
         -2   -1    0    0    0  501 -0.00000000000E+00  0.00000000000E+00  0.10299120723E+04  0.10299120723E+04  0.00000000000E+00 0.  1.
          2   -1    0    0  501    0  0.00000000000E+00 -0.00000000000E+00 -0.33453830137E+04  0.33453830137E+04  0.00000000000E+00 0. -1.
         23    2    1    2    0    0  0.61843423673E+03  0.88875050863E+02  0.90035015381E+03  0.10993425533E+04  0.86971088711E+02 0.  0.
         13    1    3    3    0    0  0.46549155211E+03  0.10119498918E+03  0.70696531437E+03  0.85248036144E+03  0.00000000000E+00 0.  1.
        -13    1    3    3    0    0  0.15294268462E+03 -0.12319938317E+02  0.19338483944E+03  0.24686219189E+03  0.00000000000E+00 0. -1.
         22    1    1    2    0    0 -0.61843423673E+03 -0.88875050863E+02 -0.32158210952E+04  0.32759525327E+04  0.00000000000E+00 0. -1.
<mgrwt>
<rscale>  0 0.37123849E+04</rscale>
<asrwt>0</asrwt>
<pdfrwt beam="1">  1        2 0.51467431E+00 0.37123849E+04</pdfrwt>
<pdfrwt beam="2">  1       -2 0.15844801E+00 0.37123849E+04</pdfrwt>
<totfact> 0.21661754E-01</totfact>
</mgrwt>
</event>
<event>
 6    1  0.1603085E-006  0.1171680E+04  0.7818608E-02  0.9138013E-01
          2   -1    0    0  501    0  0.00000000000E+00  0.00000000000E+00  0.13154898500E+04  0.13154898500E+04  0.00000000000E+00 0. -1.
         -2   -1    0    0    0  501 -0.00000000000E+00 -0.00000000000E+00 -0.26089784941E+03  0.26089784941E+03  0.00000000000E+00 0.  1.
         23    2    1    2    0    0  0.24930000031E+03 -0.25139341536E+03  0.11526370536E+04  0.12090159914E+04  0.88308270956E+02 0.  0.
         11    1    3    3    0    0  0.16006444649E+03 -0.21571064303E+03  0.86526685488E+03  0.90600134586E+03  0.00000000000E+00 0. -1.
        -11    1    3    3    0    0  0.89235553818E+02 -0.35682772324E+02  0.28737019874E+03  0.30301464557E+03  0.00000000000E+00 0.  1.
         22    1    1    2    0    0 -0.24930000031E+03  0.25139341536E+03 -0.98045052985E+02  0.36737170802E+03  0.00000000000E+00 0.  1.
<mgrwt>
<rscale>  0 0.11716799E+04</rscale>
<asrwt>0</asrwt>
<pdfrwt beam="1">  1        2 0.20238305E+00 0.11716799E+04</pdfrwt>
<pdfrwt beam="2">  1       -2 0.40138131E-01 0.11716799E+04</pdfrwt>
<totfact> 0.93960132E+01</totfact>
</mgrwt>
</event>
<event>
 6    1  0.1603085E-006  0.7893559E+03  0.7818608E-02  0.9575553E-01
          2   -1    0    0  501    0  0.00000000000E+00  0.00000000000E+00  0.11913005760E+04  0.11913005760E+04  0.00000000000E+00 0. -1.
         -2   -1    0    0    0  501 -0.00000000000E+00 -0.00000000000E+00 -0.13075682680E+03  0.13075682680E+03  0.00000000000E+00 0.  1.
         23    2    1    2    0    0 -0.90559817890E+02  0.23903047362E+03  0.44861973909E+02  0.27470544831E+03  0.90076848816E+02 0.  0.
         13    1    3    3    0    0 -0.14035438831E+02  0.11168415104E+03  0.55990736739E+02  0.12571915422E+03  0.00000000000E+00 0.  1.
        -13    1    3    3    0    0 -0.76524379058E+02  0.12734632258E+03 -0.11128762830E+02  0.14898629409E+03  0.00000000000E+00 0. -1.
         22    1    1    2    0    0  0.90559817890E+02 -0.23903047362E+03  0.10156817753E+04  0.10473519545E+04  0.00000000000E+00 0. -1.
<mgrwt>
<rscale>  0 0.78935590E+03</rscale>
<asrwt>0</asrwt>
<pdfrwt beam="1">  1        2 0.18327700E+00 0.78935590E+03</pdfrwt>
<pdfrwt beam="2">  1       -2 0.20116436E-01 0.78935590E+03</pdfrwt>
<totfact> 0.40747777E+02</totfact>
</mgrwt>
</event>
<event>
 6    1  0.1603085E-006  0.3113255E+04  0.7818608E-02  0.8212110E-01
         -2   -1    0    0    0  501 -0.00000000000E+00  0.00000000000E+00  0.92329982867E+03  0.92329982867E+03  0.00000000000E+00 0.  1.
          2   -1    0    0  501    0  0.00000000000E+00 -0.00000000000E+00 -0.26243790947E+04  0.26243790947E+04  0.00000000000E+00 0. -1.
         23    2    1    2    0    0  0.22837645398E+03 -0.57545451243E+03 -0.24772458375E+04  0.25548354074E+04  0.84458976055E+02 0.  0.
         11    1    3    3    0    0  0.10949263286E+03 -0.35314745240E+03 -0.15938511659E+04  0.16361733706E+04  0.00000000000E+00 0. -1.
        -11    1    3    3    0    0  0.11888382112E+03 -0.22230706003E+03 -0.88339467164E+03  0.91866203674E+03  0.00000000000E+00 0.  1.
         22    1    1    2    0    0 -0.22837645398E+03  0.57545451243E+03  0.77616657148E+03  0.99284351602E+03  0.00000000000E+00 0.  1.
<mgrwt>
<rscale>  0 0.31132547E+04</rscale>
<asrwt>0</asrwt>
<pdfrwt beam="1">  1        2 0.40375063E+00 0.31132547E+04</pdfrwt>
<pdfrwt beam="2">  1       -2 0.14204613E+00 0.31132547E+04</pdfrwt>
<totfact> 0.86329005E-01</totfact>
</mgrwt>
</event>
<event>
 6    1  0.1603085E-006  0.1125089E+04  0.7818608E-02  0.9181078E-01
          2   -1    0    0  501    0  0.00000000000E+00  0.00000000000E+00  0.18054759380E+04  0.18054759380E+04  0.00000000000E+00 0. -1.
         -2   -1    0    0    0  501 -0.00000000000E+00 -0.00000000000E+00 -0.17527588281E+03  0.17527588281E+03  0.00000000000E+00 0.  1.
         23    2    1    2    0    0  0.52361019579E+03  0.38240186078E+02  0.11565970489E+04  0.12736947110E+04  0.94612548376E+02 0.  0.
         11    1    3    3    0    0  0.50062122029E+03  0.16200956092E+02  0.10701750387E+04  0.11815915921E+04  0.00000000000E+00 0.  1.
        -11    1    3    3    0    0  0.22988975503E+02  0.22039229986E+02  0.86422010199E+02  0.92103118839E+02  0.00000000000E+00 0. -1.
         22    1    1    2    0    0 -0.52361019579E+03 -0.38240186078E+02  0.47360300629E+03  0.70705710981E+03  0.00000000000E+00 0. -1.
<mgrwt>
<rscale>  0 0.11250891E+04</rscale>
<asrwt>0</asrwt>
<pdfrwt beam="1">  1        2 0.27776552E+00 0.11250891E+04</pdfrwt>
<pdfrwt beam="2">  1       -2 0.26965522E-01 0.11250891E+04</pdfrwt>
<totfact> 0.10618750E+02</totfact>
</mgrwt>
</event>
<event>
 6    1  0.1603085E-006  0.2624554E+04  0.7818608E-02  0.8359908E-01
          2   -1    0    0  501    0  0.00000000000E+00  0.00000000000E+00  0.20112831967E+04  0.20112831967E+04  0.00000000000E+00 0. -1.
         -2   -1    0    0    0  501 -0.00000000000E+00 -0.00000000000E+00 -0.85620518343E+03  0.85620518343E+03  0.00000000000E+00 0.  1.
         23    2    1    2    0    0  0.53236914694E+03  0.90615208406E+03 -0.27743868753E+03  0.10907969027E+04  0.91307992227E+02 0.  0.
         13    1    3    3    0    0  0.35096248367E+03  0.50901772510E+03 -0.15814340245E+03  0.63818731196E+03  0.00000000000E+00 0. -1.
        -13    1    3    3    0    0  0.18140666327E+03  0.39713435896E+03 -0.11929528508E+03  0.45260959069E+03  0.00000000000E+00 0.  1.
         22    1    1    2    0    0 -0.53236914694E+03 -0.90615208406E+03  0.14325167008E+04  0.17766914775E+04  0.00000000000E+00 0. -1.
<mgrwt>
<rscale>  0 0.26245541E+04</rscale>
<asrwt>0</asrwt>
<pdfrwt beam="1">  1        2 0.30942818E+00 0.26245541E+04</pdfrwt>
<pdfrwt beam="2">  1       -2 0.13172387E+00 0.26245541E+04</pdfrwt>
<totfact> 0.24417585E+00</totfact>
</mgrwt>
</event>
<event>
 6    1  0.1603085E-006  0.2713117E+04  0.7818608E-02  0.8330761E-01
         -2   -1    0    0    0  501 -0.00000000000E+00  0.00000000000E+00  0.12827736821E+04  0.12827736821E+04  0.00000000000E+00 0. -1.
          2   -1    0    0  501    0  0.00000000000E+00 -0.00000000000E+00 -0.14345878666E+04  0.14345878666E+04  0.00000000000E+00 0.  1.
         23    2    1    2    0    0 -0.42511097529E+03 -0.16886557344E+03  0.12014663142E+04  0.12888647754E+04  0.91739751316E+02 0.  0.
         13    1    3    3    0    0 -0.14277514528E+03 -0.84900790972E+02  0.33950589511E+03  0.37796446821E+03  0.00000000000E+00 0.  1.
        -13    1    3    3    0    0 -0.28233583001E+03 -0.83964782468E+02  0.86196041909E+03  0.91090030721E+03  0.00000000000E+00 0. -1.
         22    1    1    2    0    0  0.42511097529E+03  0.16886557344E+03 -0.13532804987E+04  0.14284967733E+04  0.00000000000E+00 0.  1.
<mgrwt>
<rscale>  0 0.27131174E+04</rscale>
<asrwt>0</asrwt>
<pdfrwt beam="1">  1        2 0.22070583E+00 0.27131174E+04</pdfrwt>
<pdfrwt beam="2">  1       -2 0.19734980E+00 0.27131174E+04</pdfrwt>
<totfact> 0.16779027E+00</totfact>
</mgrwt>
</event>
<event>
 6    1  0.1603085E-006  0.3240847E+04  0.7818608E-02  0.8178112E-01
         -1   -1    0    0    0  501 -0.00000000000E+00  0.00000000000E+00  0.74769679776E+03  0.74769679776E+03  0.00000000000E+00 0.  1.
          1   -1    0    0  501    0  0.00000000000E+00 -0.00000000000E+00 -0.35118140817E+04  0.35118140817E+04  0.00000000000E+00 0. -1.
         23    2    1    2    0    0 -0.88422357815E+03 -0.24093934257E+03 -0.31375005250E+04  0.32699058331E+04  0.92040806697E+02 0.  0.
         13    1    3    3    0    0 -0.45933311295E+03 -0.79351539605E+02 -0.16338862925E+04  0.16990785716E+04  0.00000000000E+00 0. -1.
        -13    1    3    3    0    0 -0.42489046520E+03 -0.16158780296E+03 -0.15036142325E+04  0.15708272615E+04  0.00000000000E+00 0.  1.
         22    1    1    2    0    0  0.88422357815E+03  0.24093934257E+03  0.37338324110E+03  0.98960504631E+03  0.00000000000E+00 0.  1.
<mgrwt>
<rscale>  0 0.32408469E+04</rscale>
<asrwt>0</asrwt>
<pdfrwt beam="1">  1        1 0.54027909E+00 0.32408469E+04</pdfrwt>
<pdfrwt beam="2">  1       -1 0.11503028E+00 0.32408469E+04</pdfrwt>
<totfact> 0.13969451E-01</totfact>
</mgrwt>
</event>
<event>
 6    1  0.1603085E-006  0.1875348E+04  0.7818608E-02  0.8667225E-01
          2   -1    0    0  501    0  0.00000000000E+00  0.00000000000E+00  0.11773948416E+04  0.11773948416E+04  0.00000000000E+00 0. -1.
         -2   -1    0    0    0  501 -0.00000000000E+00 -0.00000000000E+00 -0.74676103217E+03  0.74676103217E+03  0.00000000000E+00 0.  1.
         23    2    1    2    0    0 -0.89368407352E+03  0.71695278049E+02  0.49025472132E+03  0.10256203490E+04  0.87954376012E+02 0.  0.
         13    1    3    3    0    0 -0.40747343423E+03  0.75919892463E+02  0.23476515618E+03  0.47635397367E+03  0.00000000000E+00 0. -1.
        -13    1    3    3    0    0 -0.48621063928E+03 -0.42246144140E+01  0.25548956515E+03  0.54926637529E+03  0.00000000000E+00 0.  1.
         22    1    1    2    0    0  0.89368407352E+03 -0.71695278049E+02 -0.59620911926E+02  0.89853552478E+03  0.00000000000E+00 0. -1.
<mgrwt>
<rscale>  0 0.18753481E+04</rscale>
<asrwt>0</asrwt>
<pdfrwt beam="1">  1        2 0.18113767E+00 0.18753481E+04</pdfrwt>
<pdfrwt beam="2">  1       -2 0.11488631E+00 0.18753481E+04</pdfrwt>
<totfact> 0.10841294E+01</totfact>
</mgrwt>
</event>
<event>
 6    1  0.1603085E-006  0.3536841E+04  0.7818608E-02  0.8105114E-01
          1   -1    0    0  501    0  0.00000000000E+00  0.00000000000E+00  0.28825010658E+04  0.28825010658E+04  0.00000000000E+00 0. -1.
         -1   -1    0    0    0  501 -0.00000000000E+00 -0.00000000000E+00 -0.10849299618E+04  0.10849299618E+04  0.00000000000E+00 0.  1.
         23    2    1    2    0    0 -0.15761517047E+04 -0.34741553375E+03  0.17069828366E+04  0.23509045096E+04  0.89497818431E+02 0.  0.
         11    1    3    3    0    0 -0.12091193642E+04 -0.25242566771E+03  0.13563352931E+04  0.18344846093E+04  0.00000000000E+00 0.  1.
        -11    1    3    3    0    0 -0.36703234053E+03 -0.94989866039E+02  0.35064754352E+03  0.51641990029E+03  0.00000000000E+00 0. -1.
         22    1    1    2    0    0  0.15761517047E+04  0.34741553375E+03  0.90588267469E+02  0.16165265180E+04  0.00000000000E+00 0. -1.
<mgrwt>
<rscale>  0 0.35368414E+04</rscale>
<asrwt>0</asrwt>
<pdfrwt beam="1">  1        1 0.44346170E+00 0.35368414E+04</pdfrwt>
<pdfrwt beam="2">  1       -1 0.16691230E+00 0.35368414E+04</pdfrwt>
<totfact> 0.15332149E-01</totfact>
</mgrwt>
</event>
<event>
 6    1  0.1799892E-006  0.2287811E+04  0.7818608E-02  0.8482743E-01
         -1   -1    0    0    0  501 -0.00000000000E+00  0.00000000000E+00  0.17799747736E+04  0.17799747736E+04  0.00000000000E+00 0.  1.
          1   -1    0    0  501    0  0.00000000000E+00 -0.00000000000E+00 -0.73513374319E+03  0.73513374319E+03  0.00000000000E+00 0. -1.
         23    2    1    2    0    0  0.23161509402E+03 -0.11183208656E+04  0.47553616293E+03  0.12390226488E+04  0.68959202641E+02 0.  0.
         13    1    3    3    0    0  0.15231918870E+03 -0.60171338190E+03  0.28095759896E+03  0.68132026362E+03  0.00000000000E+00 0. -1.
        -13    1    3    3    0    0  0.79295905326E+02 -0.51660748375E+03  0.19457856396E+03  0.55770238517E+03  0.00000000000E+00 0.  1.
         22    1    1    2    0    0 -0.23161509402E+03  0.11183208656E+04  0.56930486744E+03  0.12760858680E+04  0.00000000000E+00 0.  1.
<mgrwt>
<rscale>  0 0.22878108E+04</rscale>
<asrwt>0</asrwt>
<pdfrwt beam="1">  1        1 0.11309750E+00 0.22878108E+04</pdfrwt>
<pdfrwt beam="2">  1       -1 0.27384227E+00 0.22878108E+04</pdfrwt>
<totfact> 0.11155496E+00</totfact>
</mgrwt>
</event>
<event>
 6    1  0.1603085E-006  0.2905384E+04  0.7818608E-02  0.8271277E-01
          2   -1    0    0  501    0  0.00000000000E+00  0.00000000000E+00  0.23370715789E+04  0.23370715789E+04  0.00000000000E+00 0. -1.
         -2   -1    0    0    0  501 -0.00000000000E+00 -0.00000000000E+00 -0.90297395476E+03  0.90297395476E+03  0.00000000000E+00 0.  1.
         23    2    1    2    0    0  0.14016221936E+04  0.28198104463E+03  0.43997519413E+03  0.14986847184E+04  0.91758544814E+02 0.  0.
         13    1    3    3    0    0  0.82606134170E+03  0.13594313718E+03  0.29301782916E+03  0.88697087044E+03  0.00000000000E+00 0. -1.
        -13    1    3    3    0    0  0.57556085189E+03  0.14603790745E+03  0.14695736497E+03  0.61171384794E+03  0.00000000000E+00 0.  1.
         22    1    1    2    0    0 -0.14016221936E+04 -0.28198104463E+03  0.99412242998E+03  0.17413608153E+04  0.00000000000E+00 0.  1.
<mgrwt>
<rscale>  0 0.29053845E+04</rscale>
<asrwt>0</asrwt>
<pdfrwt beam="1">  1        2 0.35954947E+00 0.29053845E+04</pdfrwt>
<pdfrwt beam="2">  1       -2 0.13891907E+00 0.29053845E+04</pdfrwt>
<totfact> 0.13651988E+00</totfact>
</mgrwt>
</event>
<event>
 6    1  0.1603085E-006  0.1986574E+04  0.7818608E-02  0.8612924E-01
          2   -1    0    0  501    0  0.00000000000E+00  0.00000000000E+00  0.89315465297E+03  0.89315465297E+03  0.00000000000E+00 0. -1.
         -2   -1    0    0    0  501 -0.00000000000E+00 -0.00000000000E+00 -0.11046453443E+04  0.11046453443E+04  0.00000000000E+00 0.  1.
         23    2    1    2    0    0 -0.47915845739E+03 -0.35259415345E+03  0.69142152158E+03  0.91652023301E+03  0.89611119126E+02 0.  0.
         11    1    3    3    0    0 -0.38962117758E+03 -0.28440943619E+03  0.50210681409E+03  0.69627914098E+03  0.00000000000E+00 0.  1.
        -11    1    3    3    0    0 -0.89537279814E+02 -0.68184717264E+02  0.18931470750E+03  0.22024109203E+03  0.00000000000E+00 0. -1.
         22    1    1    2    0    0  0.47915845739E+03  0.35259415345E+03 -0.90291221290E+03  0.10812797642E+04  0.00000000000E+00 0.  1.
<mgrwt>
<rscale>  0 0.19865741E+04</rscale>
<asrwt>0</asrwt>
<pdfrwt beam="1">  1        2 0.13740841E+00 0.19865741E+04</pdfrwt>
<pdfrwt beam="2">  1       -2 0.16994544E+00 0.19865741E+04</pdfrwt>
<totfact> 0.58781826E+00</totfact>
</mgrwt>
</event>
<event>
 6    1  0.1603085E-006  0.2528176E+04  0.7818608E-02  0.8393016E-01
         -1   -1    0    0    0  501 -0.00000000000E+00  0.00000000000E+00  0.71808221051E+03  0.71808221051E+03  0.00000000000E+00 0.  1.
          1   -1    0    0  501    0  0.00000000000E+00 -0.00000000000E+00 -0.22252590221E+04  0.22252590221E+04  0.00000000000E+00 0. -1.
         23    2    1    2    0    0  0.36097738270E+03 -0.71631477395E+03 -0.18896704138E+04  0.20546833221E+04  0.86358296024E+02 0.  0.
         11    1    3    3    0    0  0.81584973255E+02 -0.14240168570E+03 -0.30637931286E+03  0.34756672928E+03  0.00000000000E+00 0.  1.
        -11    1    3    3    0    0  0.27939240945E+03 -0.57391308825E+03 -0.15832911009E+04  0.17071165928E+04  0.00000000000E+00 0. -1.
         22    1    1    2    0    0 -0.36097738270E+03  0.71631477395E+03  0.38249360218E+03  0.88865791051E+03  0.00000000000E+00 0.  1.
<mgrwt>
<rscale>  0 0.25281764E+04</rscale>
<asrwt>0</asrwt>
<pdfrwt beam="1">  1        1 0.34234754E+00 0.25281764E+04</pdfrwt>
<pdfrwt beam="2">  1       -1 0.11047419E+00 0.25281764E+04</pdfrwt>
<totfact> 0.14013580E+00</totfact>
</mgrwt>
</event>
<event>
 6    1  0.1603085E-006  0.1411528E+04  0.7818608E-02  0.8945516E-01
          2   -1    0    0  501    0  0.00000000000E+00  0.00000000000E+00  0.17514940902E+04  0.17514940902E+04  0.00000000000E+00 0. -1.
         -2   -1    0    0    0  501 -0.00000000000E+00 -0.00000000000E+00 -0.28438719173E+03  0.28438719173E+03  0.00000000000E+00 0.  1.
         23    2    1    2    0    0 -0.27953541753E+03  0.64459263627E+03  0.71537834163E+03  0.10069325274E+04  0.92234627930E+02 0.  0.
         13    1    3    3    0    0 -0.10812775744E+03  0.15889769667E+03  0.16716588641E+03  0.25472440699E+03  0.00000000000E+00 0. -1.
        -13    1    3    3    0    0 -0.17140766009E+03  0.48569493959E+03  0.54821245522E+03  0.75220812037E+03  0.00000000000E+00 0.  1.
         22    1    1    2    0    0  0.27953541753E+03 -0.64459263627E+03  0.75172855686E+03  0.10289487546E+04  0.00000000000E+00 0.  1.
<mgrwt>
<rscale>  0 0.14115275E+04</rscale>
<asrwt>0</asrwt>
<pdfrwt beam="1">  1        2 0.26946062E+00 0.14115275E+04</pdfrwt>
<pdfrwt beam="2">  1       -2 0.43751877E-01 0.14115275E+04</pdfrwt>
<totfact> 0.44228462E+01</totfact>
</mgrwt>
</event>
<event>
 6    1  0.1603085E-006  0.2709799E+04  0.7818608E-02  0.8331832E-01
          1   -1    0    0  501    0  0.00000000000E+00  0.00000000000E+00  0.71344072913E+03  0.71344072913E+03  0.00000000000E+00 0. -1.
         -1   -1    0    0    0  501 -0.00000000000E+00 -0.00000000000E+00 -0.25730985241E+04  0.25730985241E+04  0.00000000000E+00 0.  1.
         23    2    1    2    0    0 -0.58860177583E+03 -0.10959448082E+04 -0.15775004715E+04  0.20109375017E+04  0.88401500177E+02 0.  0.
         13    1    3    3    0    0 -0.63725915418E+02 -0.10221424933E+03 -0.19603004005E+03  0.23007938122E+03  0.00000000000E+00 0.  1.
        -13    1    3    3    0    0 -0.52487586041E+03 -0.99373055888E+03 -0.13814704314E+04  0.17808581205E+04  0.00000000000E+00 0. -1.
         22    1    1    2    0    0  0.58860177583E+03  0.10959448082E+04 -0.28215732346E+03  0.12756017515E+04  0.00000000000E+00 0. -1.
<mgrwt>
<rscale>  0 0.27097995E+04</rscale>
<asrwt>0</asrwt>
<pdfrwt beam="1">  1        1 0.10976011E+00 0.27097995E+04</pdfrwt>
<pdfrwt beam="2">  1       -1 0.39586131E+00 0.27097995E+04</pdfrwt>
<totfact> 0.17621181E-01</totfact>
</mgrwt>
</event>
<event>
 6    1  0.1603085E-006  0.4189020E+04  0.7818608E-02  0.7967464E-01
         -2   -1    0    0    0  501 -0.00000000000E+00  0.00000000000E+00  0.12510540154E+04  0.12510540154E+04  0.00000000000E+00 0.  1.
          2   -1    0    0  501    0  0.00000000000E+00 -0.00000000000E+00 -0.35066210935E+04  0.35066210935E+04  0.00000000000E+00 0. -1.
         23    2    1    2    0    0  0.20025123249E+04 -0.37653611315E+03 -0.58219776797E+03  0.21210105674E+04  0.88862421943E+02 0.  0.
         13    1    3    3    0    0  0.11539251500E+04 -0.18586051561E+03 -0.30093064567E+03  0.12069161680E+04  0.00000000000E+00 0. -1.
        -13    1    3    3    0    0  0.84858717490E+03 -0.19067559754E+03 -0.28126712230E+03  0.91409439939E+03  0.00000000000E+00 0.  1.
         22    1    1    2    0    0 -0.20025123249E+04  0.37653611315E+03 -0.16733693102E+04  0.26366645415E+04  0.00000000000E+00 0.  1.
<mgrwt>
<rscale>  0 0.41890201E+04</rscale>
<asrwt>0</asrwt>
<pdfrwt beam="1">  1        2 0.53948016E+00 0.41890201E+04</pdfrwt>
<pdfrwt beam="2">  1       -2 0.19246985E+00 0.41890201E+04</pdfrwt>
<totfact> 0.93068921E-02</totfact>
</mgrwt>
</event>
<event>
 6    1  0.1603085E-006  0.5276908E+04  0.7818608E-02  0.7787156E-01
          2   -1    0    0  501    0  0.00000000000E+00  0.00000000000E+00  0.39477884081E+04  0.39477884081E+04  0.00000000000E+00 0. -1.
         -2   -1    0    0    0  501 -0.00000000000E+00 -0.00000000000E+00 -0.17633772382E+04  0.17633772382E+04  0.00000000000E+00 0.  1.
         23    2    1    2    0    0  0.52966550354E+03 -0.12144865621E+04  0.35609567257E+04  0.38005634316E+04  0.91358854791E+02 0.  0.
         11    1    3    3    0    0  0.33260241654E+03 -0.85304948999E+03  0.25182371203E+04  0.26795215979E+04  0.00000000000E+00 0.  1.
        -11    1    3    3    0    0  0.19706308700E+03 -0.36143707212E+03  0.10427196054E+04  0.11210418337E+04  0.00000000000E+00 0. -1.
         22    1    1    2    0    0 -0.52966550354E+03  0.12144865621E+04 -0.13765455558E+04  0.19106022146E+04  0.00000000000E+00 0.  1.
<mgrwt>
<rscale>  0 0.52769083E+04</rscale>
<asrwt>0</asrwt>
<pdfrwt beam="1">  1        2 0.60735206E+00 0.52769083E+04</pdfrwt>
<pdfrwt beam="2">  1       -2 0.27128881E+00 0.52769083E+04</pdfrwt>
<totfact> 0.12716652E-02</totfact>
</mgrwt>
</event>
<event>
 6    1  0.1603085E-006  0.4082311E+04  0.7818608E-02  0.7988145E-01
          1   -1    0    0  501    0  0.00000000000E+00  0.00000000000E+00  0.28045582480E+04  0.28045582480E+04  0.00000000000E+00 0. -1.
         -1   -1    0    0    0  501 -0.00000000000E+00 -0.00000000000E+00 -0.14855515711E+04  0.14855515711E+04  0.00000000000E+00 0.  1.
         23    2    1    2    0    0 -0.16122375652E+04 -0.11625416623E+04  0.17660168617E+03  0.19975343578E+04  0.90234537500E+02 0.  0.
         11    1    3    3    0    0 -0.10243825282E+04 -0.78818495016E+03  0.13024377265E+03  0.12990606298E+04  0.00000000000E+00 0. -1.
        -11    1    3    3    0    0 -0.58785503708E+03 -0.37435671211E+03  0.46357913518E+02  0.69847372797E+03  0.00000000000E+00 0.  1.
         22    1    1    2    0    0  0.16122375652E+04  0.11625416623E+04  0.11424049907E+04  0.22925754614E+04  0.00000000000E+00 0. -1.
<mgrwt>
<rscale>  0 0.40823111E+04</rscale>
<asrwt>0</asrwt>
<pdfrwt beam="1">  1        1 0.43147050E+00 0.40823111E+04</pdfrwt>
<pdfrwt beam="2">  1       -1 0.22854640E+00 0.40823111E+04</pdfrwt>
<totfact> 0.62051026E-02</totfact>
</mgrwt>
</event>
<event>
 6    1  0.1603085E-006  0.2926217E+04  0.7818608E-02  0.8265119E-01
         -2   -1    0    0    0  501 -0.00000000000E+00  0.00000000000E+00  0.87580977821E+03  0.87580977821E+03  0.00000000000E+00 0.  1.
          2   -1    0    0  501    0  0.00000000000E+00 -0.00000000000E+00 -0.24442375554E+04  0.24442375554E+04  0.00000000000E+00 0. -1.
         23    2    1    2    0    0 -0.19650216826E+03  0.13304007609E+04 -0.14346303099E+04  0.19685736753E+04  0.92406180393E+02 0.  0.
         11    1    3    3    0    0 -0.21029481507E+02  0.39338409287E+03 -0.44978273567E+03  0.59791119150E+03  0.00000000000E+00 0. -1.
        -11    1    3    3    0    0 -0.17547268675E+03  0.93701666805E+03 -0.98484757420E+03  0.13706624838E+04  0.00000000000E+00 0.  1.
         22    1    1    2    0    0  0.19650216826E+03 -0.13304007609E+04 -0.13379746728E+03  0.13514736583E+04  0.00000000000E+00 0. -1.
<mgrwt>
<rscale>  0 0.29262175E+04</rscale>
<asrwt>0</asrwt>
<pdfrwt beam="1">  1        2 0.37603655E+00 0.29262175E+04</pdfrwt>
<pdfrwt beam="2">  1       -2 0.13473997E+00 0.29262175E+04</pdfrwt>
<totfact> 0.12799547E+00</totfact>
</mgrwt>
</event>
<event>
 6    1  0.1603085E-006  0.3437652E+04  0.7818608E-02  0.8128727E-01
          1   -1    0    0  501    0  0.00000000000E+00  0.00000000000E+00  0.18116109788E+04  0.18116109788E+04  0.00000000000E+00 0. -1.
         -1   -1    0    0    0  501 -0.00000000000E+00 -0.00000000000E+00 -0.16307930212E+04  0.16307930212E+04  0.00000000000E+00 0.  1.
         23    2    1    2    0    0  0.15282896645E+04  0.64921814615E+03  0.53089238965E+03  0.17454344635E+04  0.86840296049E+02 0.  0.
         13    1    3    3    0    0  0.48943685923E+03  0.23107315911E+03  0.13676566462E+03  0.55825450384E+03  0.00000000000E+00 0. -1.
        -13    1    3    3    0    0  0.10388528053E+04  0.41814498704E+03  0.39412672503E+03  0.11871799596E+04  0.00000000000E+00 0.  1.
         22    1    1    2    0    0 -0.15282896645E+04 -0.64921814615E+03 -0.35007443206E+03  0.16969695365E+04  0.00000000000E+00 0.  1.
<mgrwt>
<rscale>  0 0.34376518E+04</rscale>
<asrwt>0</asrwt>
<pdfrwt beam="1">  1        1 0.27870938E+00 0.34376518E+04</pdfrwt>
<pdfrwt beam="2">  1       -1 0.25089124E+00 0.34376518E+04</pdfrwt>
<totfact> 0.22570780E-01</totfact>
</mgrwt>
</event>
<event>
 6    1  0.1603085E-006  0.3433959E+04  0.7818608E-02  0.8129622E-01
          3   -1    0    0  501    0  0.00000000000E+00  0.00000000000E+00  0.52371239455E+03  0.52371239455E+03  0.00000000000E+00 0. -1.
         -3   -1    0    0    0  501 -0.00000000000E+00 -0.00000000000E+00 -0.56290796061E+04  0.56290796061E+04  0.00000000000E+00 0.  1.
         23    2    1    2    0    0  0.18477613218E+03  0.16341807237E+04 -0.34308255478E+04  0.38057132546E+04  0.90557053511E+02 0.  0.
         11    1    3    3    0    0  0.74325432796E+02  0.10201733870E+04 -0.21686975044E+04  0.23978171062E+04  0.00000000000E+00 0.  1.
        -11    1    3    3    0    0  0.11045069939E+03  0.61400733670E+03 -0.12621280434E+04  0.14078961484E+04  0.00000000000E+00 0. -1.
         22    1    1    2    0    0 -0.18477613218E+03 -0.16341807237E+04 -0.16745416638E+04  0.23470787461E+04  0.00000000000E+00 0. -1.
<mgrwt>
<rscale>  0 0.34339591E+04</rscale>
<asrwt>0</asrwt>
<pdfrwt beam="1">  1        3 0.80571133E-01 0.34339591E+04</pdfrwt>
<pdfrwt beam="2">  1       -3 0.86601230E+00 0.34339591E+04</pdfrwt>
<totfact> 0.23578549E-05</totfact>
</mgrwt>
</event>
<event>
 6    1  0.1603085E-006  0.1728265E+04  0.7818608E-02  0.8745406E-01
          2   -1    0    0  501    0  0.00000000000E+00  0.00000000000E+00  0.13521108908E+04  0.13521108908E+04  0.00000000000E+00 0. -1.
         -2   -1    0    0    0  501 -0.00000000000E+00 -0.00000000000E+00 -0.55226601580E+03  0.55226601580E+03  0.00000000000E+00 0.  1.
         23    2    1    2    0    0 -0.73937724895E+02 -0.14732334439E+03  0.13330830452E+04  0.13462426027E+04  0.89932113764E+02 0.  0.
         13    1    3    3    0    0  0.14569571481E+02 -0.23269481695E+00  0.16052282661E+03  0.16118282918E+03  0.00000000000E+00 0. -1.
        -13    1    3    3    0    0 -0.88507296376E+02 -0.14709064957E+03  0.11725602186E+04  0.11850597735E+04  0.00000000000E+00 0.  1.
         22    1    1    2    0    0  0.73937724895E+02  0.14732334439E+03 -0.53323817020E+03  0.55813430384E+03  0.00000000000E+00 0.  1.
<mgrwt>
<rscale>  0 0.17282649E+04</rscale>
<asrwt>0</asrwt>
<pdfrwt beam="1">  1        2 0.20801706E+00 0.17282649E+04</pdfrwt>
<pdfrwt beam="2">  1       -2 0.84964003E-01 0.17282649E+04</pdfrwt>
<totfact> 0.17657127E+01</totfact>
</mgrwt>
</event>
<event>
 6    1  0.1603085E-006  0.2549113E+04  0.7818608E-02  0.8385695E-01
          1   -1    0    0  501    0  0.00000000000E+00  0.00000000000E+00  0.19513056488E+04  0.19513056488E+04  0.00000000000E+00 0. -1.
         -1   -1    0    0    0  501 -0.00000000000E+00 -0.00000000000E+00 -0.83251674007E+03  0.83251674007E+03  0.00000000000E+00 0.  1.
         23    2    1    2    0    0  0.35859771794E+03  0.24328682115E+03 -0.74692267265E+03  0.86844761991E+03  0.92341696672E+02 0.  0.
         13    1    3    3    0    0  0.15104860240E+03  0.49130590492E+02 -0.26364328250E+03  0.30779420985E+03  0.00000000000E+00 0.  1.
        -13    1    3    3    0    0  0.20754911554E+03  0.19415623066E+03 -0.48327939015E+03  0.56065341006E+03  0.00000000000E+00 0. -1.
         22    1    1    2    0    0 -0.35859771794E+03 -0.24328682115E+03  0.18657115813E+04  0.19153747689E+04  0.00000000000E+00 0. -1.
<mgrwt>
<rscale>  0 0.25491133E+04</rscale>
<asrwt>0</asrwt>
<pdfrwt beam="1">  1        1 0.30020087E+00 0.25491133E+04</pdfrwt>
<pdfrwt beam="2">  1       -1 0.12807950E+00 0.25491133E+04</pdfrwt>
<totfact> 0.14976327E+00</totfact>
</mgrwt>
</event>
<event>
 6    1  0.1603085E-006  0.1436632E+04  0.7818608E-02  0.8927721E-01
          1   -1    0    0  501    0  0.00000000000E+00  0.00000000000E+00  0.16224866327E+04  0.16224866327E+04  0.00000000000E+00 0.  1.
         -1   -1    0    0    0  501 -0.00000000000E+00 -0.00000000000E+00 -0.31801690977E+03  0.31801690977E+03  0.00000000000E+00 0. -1.
         23    2    1    2    0    0 -0.28778068246E+03 -0.17291702409E+03  0.15081586805E+04  0.15478112840E+04  0.91973621788E+02 0.  0.
         13    1    3    3    0    0 -0.93283650675E+02 -0.24759304929E+02  0.58072049411E+03  0.58868595613E+03  0.00000000000E+00 0.  1.
        -13    1    3    3    0    0 -0.19449703179E+03 -0.14815771916E+03  0.92743818636E+03  0.95912532791E+03  0.00000000000E+00 0. -1.
         22    1    1    2    0    0  0.28778068246E+03  0.17291702409E+03 -0.20368895754E+03  0.39269225844E+03  0.00000000000E+00 0. -1.
<mgrwt>
<rscale>  0 0.14366324E+04</rscale>
<asrwt>0</asrwt>
<pdfrwt beam="1">  1        1 0.24961332E+00 0.14366324E+04</pdfrwt>
<pdfrwt beam="2">  1       -1 0.48925679E-01 0.14366324E+04</pdfrwt>
<totfact> 0.21903171E+01</totfact>
</mgrwt>
</event>
<event>
 6    1  0.1603085E-006  0.7420036E+03  0.7818608E-02  0.9647980E-01
         -1   -1    0    0    0  501 -0.00000000000E+00  0.00000000000E+00  0.13036327435E+04  0.13036327435E+04  0.00000000000E+00 0.  1.
          1   -1    0    0  501    0  0.00000000000E+00 -0.00000000000E+00 -0.10558367480E+03  0.10558367480E+03  0.00000000000E+00 0. -1.
         23    2    1    2    0    0  0.20988027671E+02 -0.32270700578E+03  0.93135690274E+03  0.99004459164E+03  0.90456090297E+02 0.  0.
         13    1    3    3    0    0  0.11014188194E+02 -0.16630478388E+03  0.34567948790E+03  0.38376151688E+03  0.00000000000E+00 0. -1.
        -13    1    3    3    0    0  0.99738394771E+01 -0.15640222190E+03  0.58567741484E+03  0.60628307476E+03  0.00000000000E+00 0.  1.
         22    1    1    2    0    0 -0.20988027671E+02  0.32270700578E+03  0.26669216599E+03  0.41917182668E+03  0.00000000000E+00 0. -1.
<mgrwt>
<rscale>  0 0.74200360E+03</rscale>
<asrwt>0</asrwt>
<pdfrwt beam="1">  1        1 0.16243643E-01 0.74200360E+03</pdfrwt>
<pdfrwt beam="2">  1       -1 0.20055887E+00 0.74200360E+03</pdfrwt>
<totfact> 0.52889254E+01</totfact>
</mgrwt>
</event>
<event>
 6    1  0.1603085E-006  0.1750093E+04  0.7818608E-02  0.8733299E-01
         -1   -1    0    0    0  501 -0.00000000000E+00  0.00000000000E+00  0.22507600265E+03  0.22507600265E+03  0.00000000000E+00 0.  1.
          1   -1    0    0  501    0  0.00000000000E+00 -0.00000000000E+00 -0.34019895769E+04  0.34019895769E+04  0.00000000000E+00 0. -1.
         23    2    1    2    0    0  0.17402680527E+03  0.44925114108E+03 -0.31007848878E+04  0.31393079619E+04  0.90970556938E+02 0.  0.
         13    1    3    3    0    0  0.13494737103E+03  0.30332747242E+03 -0.23637807785E+04  0.23869809210E+04  0.00000000000E+00 0. -1.
        -13    1    3    3    0    0  0.39079434237E+02  0.14592366865E+03 -0.73700410937E+03  0.75232704091E+03  0.00000000000E+00 0.  1.
         22    1    1    2    0    0 -0.17402680527E+03 -0.44925114108E+03 -0.76128686433E+02  0.48775761768E+03  0.00000000000E+00 0.  1.
<mgrwt>
<rscale>  0 0.17500928E+04</rscale>
<asrwt>0</asrwt>
<pdfrwt beam="1">  1        1 0.52338299E+00 0.17500928E+04</pdfrwt>
<pdfrwt beam="2">  1       -1 0.34627079E-01 0.17500928E+04</pdfrwt>
<totfact> 0.22491920E+00</totfact>
</mgrwt>
</event>
<event>
 6    1  0.1603085E-006  0.7363098E+03  0.7818608E-02  0.9657076E-01
         -1   -1    0    0    0  501 -0.00000000000E+00  0.00000000000E+00  0.26004390724E+03  0.26004390724E+03  0.00000000000E+00 0.  1.
          1   -1    0    0  501    0  0.00000000000E+00 -0.00000000000E+00 -0.52121203827E+03  0.52121203827E+03  0.00000000000E+00 0. -1.
         23    2    1    2    0    0  0.95385922889E+02 -0.24441425226E+03  0.13245464102E+03  0.30820659537E+03  0.92791554084E+02 0.  0.
         13    1    3    3    0    0  0.40739424511E+02 -0.20002010479E+03  0.11976005531E+03  0.23666477109E+03  0.00000000000E+00 0. -1.
        -13    1    3    3    0    0  0.54646498378E+02 -0.44394147474E+02  0.12694585710E+02  0.71541824280E+02  0.00000000000E+00 0.  1.
         22    1    1    2    0    0 -0.95385922889E+02  0.24441425226E+03 -0.39362277204E+03  0.47304935014E+03  0.00000000000E+00 0. -1.
<mgrwt>
<rscale>  0 0.73630976E+03</rscale>
<asrwt>0</asrwt>
<pdfrwt beam="1">  1        1 0.80186466E-01 0.73630976E+03</pdfrwt>
<pdfrwt beam="2">  1       -1 0.40006756E-01 0.73630976E+03</pdfrwt>
<totfact> 0.25783756E+02</totfact>
</mgrwt>
</event>
<event>
 6    1  0.1603085E-006  0.1492579E+04  0.7818608E-02  0.8889403E-01
         -1   -1    0    0    0  501 -0.00000000000E+00  0.00000000000E+00  0.25179687966E+03  0.25179687966E+03  0.00000000000E+00 0.  1.
          1   -1    0    0  501    0  0.00000000000E+00 -0.00000000000E+00 -0.22118950635E+04  0.22118950635E+04  0.00000000000E+00 0. -1.
         23    2    1    2    0    0  0.95060252208E+02 -0.67989995116E+03 -0.14545697159E+04  0.16111314309E+04  0.93118388095E+02 0.  0.
         13    1    3    3    0    0  0.69405522751E+02 -0.35005167076E+03 -0.65700609337E+03  0.74766991748E+03  0.00000000000E+00 0. -1.
        -13    1    3    3    0    0  0.25654729457E+02 -0.32984828040E+03 -0.79756362249E+03  0.86346151342E+03  0.00000000000E+00 0.  1.
         22    1    1    2    0    0 -0.95060252208E+02  0.67989995116E+03 -0.50552846798E+03  0.85256051226E+03  0.00000000000E+00 0.  1.
<mgrwt>
<rscale>  0 0.14925793E+04</rscale>
<asrwt>0</asrwt>
<pdfrwt beam="1">  1        1 0.34029154E+00 0.14925793E+04</pdfrwt>
<pdfrwt beam="2">  1       -1 0.38737983E-01 0.14925793E+04</pdfrwt>
<totfact> 0.13384753E+01</totfact>
</mgrwt>
</event>
<event>
 6    1  0.1603085E-006  0.2446140E+04  0.7818608E-02  0.8422429E-01
          1   -1    0    0  501    0  0.00000000000E+00  0.00000000000E+00  0.14356799176E+04  0.14356799176E+04  0.00000000000E+00 0. -1.
         -1   -1    0    0    0  501 -0.00000000000E+00 -0.00000000000E+00 -0.10419456364E+04  0.10419456364E+04  0.00000000000E+00 0.  1.
         23    2    1    2    0    0  0.55841283208E+03  0.10638489603E+04  0.41967065590E+03  0.12758467902E+04  0.89789037459E+02 0.  0.
         11    1    3    3    0    0  0.26115189963E+03  0.58662694213E+03  0.24183471209E+03  0.68615997544E+03  0.00000000000E+00 0.  1.
        -11    1    3    3    0    0  0.29726093245E+03  0.47722201820E+03  0.17783594381E+03  0.58968681478E+03  0.00000000000E+00 0. -1.
         22    1    1    2    0    0 -0.55841283208E+03 -0.10638489603E+04 -0.25936374731E+02  0.12017787637E+04  0.00000000000E+00 0.  1.
<mgrwt>
<rscale>  0 0.24461402E+04</rscale>
<asrwt>0</asrwt>
<pdfrwt beam="1">  1        1 0.22087383E+00 0.24461402E+04</pdfrwt>
<pdfrwt beam="2">  1       -1 0.16029933E+00 0.24461402E+04</pdfrwt>
<totfact> 0.18820376E+00</totfact>
</mgrwt>
</event>
<event>
 6    1  0.1603085E-006  0.1701677E+04  0.7818608E-02  0.8760409E-01
         -2   -1    0    0    0  501 -0.00000000000E+00  0.00000000000E+00  0.78127911975E+03  0.78127911975E+03  0.00000000000E+00 0.  1.
          2   -1    0    0  501    0  0.00000000000E+00 -0.00000000000E+00 -0.92659044242E+03  0.92659044242E+03  0.00000000000E+00 0. -1.
         23    2    1    2    0    0 -0.13724443164E+03  0.45339050202E+03 -0.77931811938E+03  0.91643820089E+03  0.90129149095E+02 0.  0.
         13    1    3    3    0    0  0.32294297960E+01  0.21975206677E+02 -0.78437168978E+02  0.81521337100E+02  0.00000000000E+00 0.  1.
        -13    1    3    3    0    0 -0.14047386144E+03  0.43141529534E+03 -0.70088095040E+03  0.83491686379E+03  0.00000000000E+00 0. -1.
         22    1    1    2    0    0  0.13724443164E+03 -0.45339050202E+03  0.63400679671E+03  0.79143136127E+03  0.00000000000E+00 0.  1.
<mgrwt>
<rscale>  0 0.17016765E+04</rscale>
<asrwt>0</asrwt>
<pdfrwt beam="1">  1        2 0.14255238E+00 0.17016765E+04</pdfrwt>
<pdfrwt beam="2">  1       -2 0.12019679E+00 0.17016765E+04</pdfrwt>
<totfact> 0.14158225E+01</totfact>
</mgrwt>
</event>
<event>
 6    1  0.1603085E-006  0.2856704E+04  0.7818608E-02  0.8285877E-01
         -1   -1    0    0    0  501 -0.00000000000E+00  0.00000000000E+00  0.17340391943E+04  0.17340391943E+04  0.00000000000E+00 0.  1.
          1   -1    0    0  501    0  0.00000000000E+00 -0.00000000000E+00 -0.11765529259E+04  0.11765529259E+04  0.00000000000E+00 0. -1.
         23    2    1    2    0    0  0.14145081615E+03 -0.10023145035E+04  0.13037110199E+04  0.16530174397E+04  0.90341216600E+02 0.  0.
         11    1    3    3    0    0  0.14211245154E+03 -0.75582819458E+03  0.96032007558E+03  0.12303198186E+04  0.00000000000E+00 0. -1.
        -11    1    3    3    0    0 -0.66163538674E+00 -0.24648630888E+03  0.34339094434E+03  0.42269762109E+03  0.00000000000E+00 0.  1.
         22    1    1    2    0    0 -0.14145081615E+03  0.10023145035E+04 -0.74622475153E+03  0.12575746805E+04  0.00000000000E+00 0. -1.
<mgrwt>
<rscale>  0 0.28567036E+04</rscale>
<asrwt>0</asrwt>
<pdfrwt beam="1">  1        1 0.18100814E+00 0.28567036E+04</pdfrwt>
<pdfrwt beam="2">  1       -1 0.26677526E+00 0.28567036E+04</pdfrwt>
<totfact> 0.51932028E-01</totfact>
</mgrwt>
</event>
<event>
 6    1  0.1603085E-006  0.3071676E+04  0.7818608E-02  0.8223555E-01
         -1   -1    0    0    0  501 -0.00000000000E+00  0.00000000000E+00  0.13843972947E+04  0.13843972947E+04  0.00000000000E+00 0.  1.
          1   -1    0    0  501    0  0.00000000000E+00 -0.00000000000E+00 -0.17038444490E+04  0.17038444490E+04  0.00000000000E+00 0. -1.
         23    2    1    2    0    0 -0.31610557619E+03  0.75003081628E+03  0.11479912670E+04  0.14101939253E+04  0.91071384436E+02 0.  0.
         11    1    3    3    0    0 -0.95006535799E+02  0.32051251633E+03  0.42634174370E+03  0.54177651979E+03  0.00000000000E+00 0.  1.
        -11    1    3    3    0    0 -0.22109904039E+03  0.42951829995E+03  0.72164952330E+03  0.86841740548E+03  0.00000000000E+00 0. -1.
         22    1    1    2    0    0  0.31610557619E+03 -0.75003081628E+03 -0.14674384213E+04  0.16780478184E+04  0.00000000000E+00 0. -1.
<mgrwt>
<rscale>  0 0.30716755E+04</rscale>
<asrwt>0</asrwt>
<pdfrwt beam="1">  1        1 0.26212992E+00 0.30716755E+04</pdfrwt>
<pdfrwt beam="2">  1       -1 0.21298420E+00 0.30716755E+04</pdfrwt>
<totfact> 0.49171737E-01</totfact>
</mgrwt>
</event>
<event>
 6    1  0.1603085E-006  0.1597641E+04  0.7818608E-02  0.8821999E-01
         -1   -1    0    0    0  501 -0.00000000000E+00  0.00000000000E+00  0.87200454079E+03  0.87200454079E+03  0.00000000000E+00 0.  1.
          1   -1    0    0  501    0  0.00000000000E+00 -0.00000000000E+00 -0.73177836638E+03  0.73177836638E+03  0.00000000000E+00 0. -1.
         23    2    1    2    0    0 -0.18898292488E+03 -0.57286719891E+03 -0.45147121889E+03  0.75879936962E+03  0.89771088754E+02 0.  0.
         13    1    3    3    0    0 -0.17938305141E+03 -0.43729353294E+03 -0.37081290915E+03  0.60075463101E+03  0.00000000000E+00 0. -1.
        -13    1    3    3    0    0 -0.95998734741E+01 -0.13557366597E+03 -0.80658309735E+02  0.15804473862E+03  0.00000000000E+00 0.  1.
         22    1    1    2    0    0  0.18898292488E+03  0.57286719891E+03  0.59169739330E+03  0.84498353754E+03  0.00000000000E+00 0.  1.
<mgrwt>
<rscale>  0 0.15976408E+04</rscale>
<asrwt>0</asrwt>
<pdfrwt beam="1">  1        1 0.11258129E+00 0.15976408E+04</pdfrwt>
<pdfrwt beam="2">  1       -1 0.13415455E+00 0.15976408E+04</pdfrwt>
<totfact> 0.11435186E+01</totfact>
</mgrwt>
</event>
<event>
 6    1  0.1603085E-006  0.1153829E+04  0.7818608E-02  0.9154259E-01
         -1   -1    0    0    0  501 -0.00000000000E+00  0.00000000000E+00  0.13544868806E+04  0.13544868806E+04  0.00000000000E+00 0.  1.
          1   -1    0    0  501    0  0.00000000000E+00 -0.00000000000E+00 -0.24572414616E+03  0.24572414616E+03  0.00000000000E+00 0. -1.
         23    2    1    2    0    0 -0.93691968438E+02  0.34413133396E+03 -0.64666081928E+02  0.37377727516E+03  0.91231514889E+02 0.  0.
         13    1    3    3    0    0 -0.53948738334E+02  0.10614598085E+03 -0.57902532426E+02  0.13240143081E+03  0.00000000000E+00 0. -1.
        -13    1    3    3    0    0 -0.39743230104E+02  0.23798535311E+03 -0.67635495020E+01  0.24137584435E+03  0.00000000000E+00 0.  1.
         22    1    1    2    0    0  0.93691968438E+02 -0.34413133396E+03  0.11734288164E+04  0.12264337516E+04  0.00000000000E+00 0.  1.
<mgrwt>
<rscale>  0 0.11538286E+04</rscale>
<asrwt>0</asrwt>
<pdfrwt beam="1">  1        1 0.37803716E-01 0.11538286E+04</pdfrwt>
<pdfrwt beam="2">  1       -1 0.20838259E+00 0.11538286E+04</pdfrwt>
<totfact> 0.14902479E+01</totfact>
</mgrwt>
</event>
<event>
 6    1  0.1603085E-006  0.1816948E+04  0.7818608E-02  0.8697338E-01
         -2   -1    0    0    0  501 -0.00000000000E+00  0.00000000000E+00  0.13553576506E+04  0.13553576506E+04  0.00000000000E+00 0.  1.
          2   -1    0    0  501    0  0.00000000000E+00 -0.00000000000E+00 -0.60893524050E+03  0.60893524050E+03  0.00000000000E+00 0. -1.
         23    2    1    2    0    0  0.70046460459E+03 -0.56693238529E+03  0.47541678373E+03  0.10232790542E+04  0.94952159895E+02 0.  0.
         13    1    3    3    0    0  0.12517734895E+03 -0.14932405958E+03  0.89879076939E+02  0.21458166728E+03  0.00000000000E+00 0. -1.
        -13    1    3    3    0    0  0.57528725564E+03 -0.41760832571E+03  0.38553770679E+03  0.80869738689E+03  0.00000000000E+00 0.  1.
         22    1    1    2    0    0 -0.70046460459E+03  0.56693238529E+03  0.27100562638E+03  0.94101383694E+03  0.00000000000E+00 0. -1.
<mgrwt>
<rscale>  0 0.18169480E+04</rscale>
<asrwt>0</asrwt>
<pdfrwt beam="1">  1        2 0.93682345E-01 0.18169480E+04</pdfrwt>
<pdfrwt beam="2">  1       -2 0.20851656E+00 0.18169480E+04</pdfrwt>
<totfact> 0.53719848E+00</totfact>
</mgrwt>
</event>
<event>
 6    1  0.1603085E-006  0.2660967E+04  0.7818608E-02  0.8347782E-01
         -2   -1    0    0    0  501 -0.00000000000E+00  0.00000000000E+00  0.11549539166E+04  0.11549539166E+04  0.00000000000E+00 0.  1.
          2   -1    0    0  501    0  0.00000000000E+00 -0.00000000000E+00 -0.15326904326E+04  0.15326904326E+04  0.00000000000E+00 0. -1.
         23    2    1    2    0    0  0.43967021353E+03  0.12416318316E+04 -0.36671772680E+03  0.13704196471E+04  0.92782628648E+02 0.  0.
         13    1    3    3    0    0  0.25028462719E+03  0.79146817599E+03 -0.26682823975E+03  0.87192980093E+03  0.00000000000E+00 0. -1.
        -13    1    3    3    0    0  0.18938558634E+03  0.45016365562E+03 -0.99889487048E+02  0.49848984621E+03  0.00000000000E+00 0.  1.
         22    1    1    2    0    0 -0.43967021353E+03 -0.12416318316E+04 -0.11018789228E+02  0.13172247020E+04  0.00000000000E+00 0.  1.
<mgrwt>
<rscale>  0 0.26609674E+04</rscale>
<asrwt>0</asrwt>
<pdfrwt beam="1">  1        2 0.23579853E+00 0.26609674E+04</pdfrwt>
<pdfrwt beam="2">  1       -2 0.17768522E+00 0.26609674E+04</pdfrwt>
<totfact> 0.20150375E+00</totfact>
</mgrwt>
</event>
<event>
 6    1  0.1603085E-006  0.5191509E+04  0.7818608E-02  0.7799626E-01
         -2   -1    0    0    0  501 -0.00000000000E+00  0.00000000000E+00  0.38228468032E+04  0.38228468032E+04  0.00000000000E+00 0.  1.
          2   -1    0    0  501    0  0.00000000000E+00 -0.00000000000E+00 -0.17625455163E+04  0.17625455163E+04  0.00000000000E+00 0. -1.
         23    2    1    2    0    0 -0.85875498396E+03 -0.24218169727E+04  0.64069464298E+03  0.26497594072E+04  0.89876131345E+02 0.  0.
         13    1    3    3    0    0 -0.73708639027E+03 -0.20179530342E+04  0.50818904920E+03  0.22076428390E+04  0.00000000000E+00 0. -1.
        -13    1    3    3    0    0 -0.12166859369E+03 -0.40386393851E+03  0.13250559378E+03  0.44211656823E+03  0.00000000000E+00 0.  1.
         22    1    1    2    0    0  0.85875498396E+03  0.24218169727E+04  0.14196066440E+04  0.29356329122E+04  0.00000000000E+00 0. -1.
<mgrwt>
<rscale>  0 0.51915090E+04</rscale>
<asrwt>0</asrwt>
<pdfrwt beam="1">  1        2 0.27116085E+00 0.51915090E+04</pdfrwt>
<pdfrwt beam="2">  1       -2 0.58813027E+00 0.51915090E+04</pdfrwt>
<totfact> 0.37286187E-03</totfact>
</mgrwt>
</event>
<event>
 6    1  0.1603085E-006  0.4699373E+04  0.7818608E-02  0.7876633E-01
          1   -1    0    0  501    0  0.00000000000E+00  0.00000000000E+00  0.38323732301E+04  0.38323732301E+04  0.00000000000E+00 0. -1.
         -1   -1    0    0    0  501 -0.00000000000E+00 -0.00000000000E+00 -0.14406289251E+04  0.14406289251E+04  0.00000000000E+00 0.  1.
         23    2    1    2    0    0 -0.20953818100E+04 -0.86610225182E+03  0.50847686646E+03  0.23255533795E+04  0.94296111614E+02 0.  0.
         11    1    3    3    0    0 -0.10278018968E+04 -0.47555806266E+03  0.24862304264E+03  0.11594591961E+04  0.00000000000E+00 0.  1.
        -11    1    3    3    0    0 -0.10675799132E+04 -0.39054418916E+03  0.25985382382E+03  0.11660941834E+04  0.00000000000E+00 0. -1.
         22    1    1    2    0    0  0.20953818100E+04  0.86610225182E+03  0.18832674386E+04  0.29474487757E+04  0.00000000000E+00 0. -1.
<mgrwt>
<rscale>  0 0.46993735E+04</rscale>
<asrwt>0</asrwt>
<pdfrwt beam="1">  1        1 0.58959588E+00 0.46993735E+04</pdfrwt>
<pdfrwt beam="2">  1       -1 0.22163522E+00 0.46993735E+04</pdfrwt>
<totfact> 0.10592807E-02</totfact>
</mgrwt>
</event>
<event>
 6    1  0.1603085E-006  0.3392918E+04  0.7818608E-02  0.8139647E-01
          2   -1    0    0  501    0  0.00000000000E+00  0.00000000000E+00  0.31009144495E+04  0.31009144495E+04  0.00000000000E+00 0. -1.
         -2   -1    0    0    0  501 -0.00000000000E+00 -0.00000000000E+00 -0.92810484597E+03  0.92810484597E+03  0.00000000000E+00 0.  1.
         23    2    1    2    0    0  0.32755605970E+03  0.13630716637E+04 -0.44724911735E+02  0.14055260786E+04  0.90806976896E+02 0.  0.
         11    1    3    3    0    0  0.14083285910E+03  0.65520856654E+03 -0.63783979228E+02  0.67320172005E+03  0.00000000000E+00 0. -1.
        -11    1    3    3    0    0  0.18672320060E+03  0.70786309720E+03  0.19059067493E+02  0.73232435852E+03  0.00000000000E+00 0.  1.
         22    1    1    2    0    0 -0.32755605970E+03 -0.13630716637E+04  0.22175345153E+04  0.26234932169E+04  0.00000000000E+00 0. -1.
<mgrwt>
<rscale>  0 0.33929183E+04</rscale>
<asrwt>0</asrwt>
<pdfrwt beam="1">  1        2 0.47706376E+00 0.33929183E+04</pdfrwt>
<pdfrwt beam="2">  1       -2 0.14278536E+00 0.33929183E+04</pdfrwt>
<totfact> 0.42462968E-01</totfact>
</mgrwt>
</event>
<event>
 6    1  0.1603085E-006  0.1173399E+04  0.7818608E-02  0.9136464E-01
          2   -1    0    0  501    0  0.00000000000E+00  0.00000000000E+00  0.15338743532E+04  0.15338743532E+04  0.00000000000E+00 0. -1.
         -2   -1    0    0    0  501 -0.00000000000E+00 -0.00000000000E+00 -0.22440964944E+03  0.22440964944E+03  0.00000000000E+00 0.  1.
         23    2    1    2    0    0 -0.45972836606E+03  0.15401852133E+03  0.11446422878E+04  0.12461919169E+04  0.87843333062E+02 0.  0.
         13    1    3    3    0    0 -0.17357206598E+03  0.16714401454E+02  0.44389386383E+03  0.47691550158E+03  0.00000000000E+00 0. -1.
        -13    1    3    3    0    0 -0.28615630008E+03  0.13730411988E+03  0.70074842402E+03  0.76927641532E+03  0.00000000000E+00 0.  1.
         22    1    1    2    0    0  0.45972836606E+03 -0.15401852133E+03  0.16482241591E+03  0.51209208572E+03  0.00000000000E+00 0.  1.
<mgrwt>
<rscale>  0 0.11733988E+04</rscale>
<asrwt>0</asrwt>
<pdfrwt beam="1">  1        2 0.23598066E+00 0.11733988E+04</pdfrwt>
<pdfrwt beam="2">  1       -2 0.34524563E-01 0.11733988E+04</pdfrwt>
<totfact> 0.94365732E+01</totfact>
</mgrwt>
</event>
<event>
 6    1  0.1603085E-006  0.2372410E+04  0.7818608E-02  0.8449905E-01
         -1   -1    0    0    0  501 -0.00000000000E+00  0.00000000000E+00  0.16694229865E+04  0.16694229865E+04  0.00000000000E+00 0.  1.
          1   -1    0    0  501    0  0.00000000000E+00 -0.00000000000E+00 -0.84285571687E+03  0.84285571687E+03  0.00000000000E+00 0. -1.
         23    2    1    2    0    0  0.39577933555E+03 -0.47142196948E+02 -0.76754140515E+03  0.86909699212E+03  0.85709415514E+02 0.  0.
         13    1    3    3    0    0  0.17118649792E+03 -0.63259645389E+02 -0.34754774503E+03  0.39255067810E+03  0.00000000000E+00 0.  1.
        -13    1    3    3    0    0  0.22459283763E+03  0.16117448441E+02 -0.41999366012E+03  0.47654631402E+03  0.00000000000E+00 0. -1.
         22    1    1    2    0    0 -0.39577933555E+03  0.47142196948E+02  0.15941086748E+04  0.16431817113E+04  0.00000000000E+00 0.  1.
<mgrwt>
<rscale>  0 0.23724103E+04</rscale>
<asrwt>0</asrwt>
<pdfrwt beam="1">  1        1 0.12967011E+00 0.23724103E+04</pdfrwt>
<pdfrwt beam="2">  1       -1 0.25683431E+00 0.23724103E+04</pdfrwt>
<totfact> 0.11477128E+00</totfact>
</mgrwt>
</event>
<event>
 6    1  0.1603085E-006  0.1122818E+04  0.7818608E-02  0.9183233E-01
          1   -1    0    0  501    0  0.00000000000E+00  0.00000000000E+00  0.14416434822E+04  0.14416434822E+04  0.00000000000E+00 0. -1.
         -1   -1    0    0    0  501 -0.00000000000E+00 -0.00000000000E+00 -0.21862541344E+03  0.21862541344E+03  0.00000000000E+00 0.  1.
         23    2    1    2    0    0  0.60447272465E+02  0.34351567715E+03 -0.28009893385E+02  0.36152802262E+03  0.90890394549E+02 0.  0.
         13    1    3    3    0    0  0.68893743582E+02  0.14778991052E+03 -0.28999655885E+02  0.16561758843E+03  0.00000000000E+00 0.  1.
        -13    1    3    3    0    0 -0.84464711165E+01  0.19572576663E+03  0.98976250020E+00  0.19591043420E+03  0.00000000000E+00 0. -1.
         22    1    1    2    0    0 -0.60447272465E+02 -0.34351567715E+03  0.12510279621E+04  0.12987408730E+04  0.00000000000E+00 0. -1.
<mgrwt>
<rscale>  0 0.11228177E+04</rscale>
<asrwt>0</asrwt>
<pdfrwt beam="1">  1        1 0.22179130E+00 0.11228177E+04</pdfrwt>
<pdfrwt beam="2">  1       -1 0.33634680E-01 0.11228177E+04</pdfrwt>
<totfact> 0.59532963E+01</totfact>
</mgrwt>
</event>
<event>
 6    1  0.1603085E-006  0.2289007E+04  0.7818608E-02  0.8482268E-01
          2   -1    0    0  501    0  0.00000000000E+00  0.00000000000E+00  0.12860614856E+04  0.12860614856E+04  0.00000000000E+00 0. -1.
         -2   -1    0    0    0  501 -0.00000000000E+00 -0.00000000000E+00 -0.10185265228E+04  0.10185265228E+04  0.00000000000E+00 0.  1.
         23    2    1    2    0    0  0.71987568751E+03  0.45182819952E+03 -0.63494936668E+03  0.10648913953E+04  0.91995968683E+02 0.  0.
         13    1    3    3    0    0  0.43692759190E+03  0.31066724307E+03 -0.43873552098E+03  0.69275443978E+03  0.00000000000E+00 0.  1.
        -13    1    3    3    0    0  0.28294809561E+03  0.14116095645E+03 -0.19621384571E+03  0.37213695555E+03  0.00000000000E+00 0. -1.
         22    1    1    2    0    0 -0.71987568751E+03 -0.45182819952E+03  0.90248432952E+03  0.12396966130E+04  0.00000000000E+00 0. -1.
<mgrwt>
<rscale>  0 0.22890065E+04</rscale>
<asrwt>0</asrwt>
<pdfrwt beam="1">  1        2 0.19785561E+00 0.22890065E+04</pdfrwt>
<pdfrwt beam="2">  1       -2 0.15669639E+00 0.22890065E+04</pdfrwt>
<totfact> 0.40751310E+00</totfact>
</mgrwt>
</event>
<event>
 6    1  0.1603085E-006  0.9591396E+03  0.7818608E-02  0.9354531E-01
          3   -1    0    0  501    0  0.00000000000E+00  0.00000000000E+00  0.23259693844E+03  0.23259693844E+03  0.00000000000E+00 0. -1.
         -3   -1    0    0    0  501 -0.00000000000E+00 -0.00000000000E+00 -0.98877988876E+03  0.98877988876E+03  0.00000000000E+00 0.  1.
         23    2    1    2    0    0 -0.31257353941E+03  0.26657124962E+03 -0.68569699791E+03  0.80456665680E+03  0.91567918175E+02 0.  0.
         11    1    3    3    0    0 -0.22026985594E+03  0.21596617586E+03 -0.57019975477E+03  0.64829619688E+03  0.00000000000E+00 0. -1.
        -11    1    3    3    0    0 -0.92303683467E+02  0.50605073757E+02 -0.11549724314E+03  0.15627045992E+03  0.00000000000E+00 0.  1.
         22    1    1    2    0    0  0.31257353941E+03 -0.26657124962E+03 -0.70485952411E+02  0.41681017040E+03  0.00000000000E+00 0. -1.
<mgrwt>
<rscale>  0 0.95913956E+03</rscale>
<asrwt>0</asrwt>
<pdfrwt beam="1">  1        3 0.35784144E-01 0.95913956E+03</pdfrwt>
<pdfrwt beam="2">  1       -3 0.15211998E+00 0.95913956E+03</pdfrwt>
<totfact> 0.63035845E+00</totfact>
</mgrwt>
</event>
<event>
 6    1  0.1603085E-006  0.1992584E+04  0.7818608E-02  0.8610096E-01
         -2   -1    0    0    0  501 -0.00000000000E+00  0.00000000000E+00  0.63176422571E+03  0.63176422571E+03  0.00000000000E+00 0.  1.
          2   -1    0    0  501    0  0.00000000000E+00 -0.00000000000E+00 -0.15711525731E+04  0.15711525731E+04  0.00000000000E+00 0. -1.
         23    2    1    2    0    0  0.89002150061E+03  0.15907681188E+03 -0.14774446225E+02  0.90972131094E+03  0.99653779067E+02 0.  0.
         11    1    3    3    0    0  0.41146351652E+03  0.42260485610E+02 -0.45684626235E+02  0.41614331563E+03  0.00000000000E+00 0.  1.
        -11    1    3    3    0    0  0.47855798410E+03  0.11681632627E+03  0.30910180010E+02  0.49357799531E+03  0.00000000000E+00 0. -1.
         22    1    1    2    0    0 -0.89002150061E+03 -0.15907681188E+03 -0.92461390120E+03  0.12931954879E+04  0.00000000000E+00 0. -1.
<mgrwt>
<rscale>  0 0.19925842E+04</rscale>
<asrwt>0</asrwt>
<pdfrwt beam="1">  1        2 0.24171578E+00 0.19925842E+04</pdfrwt>
<pdfrwt beam="2">  1       -2 0.97194497E-01 0.19925842E+04</pdfrwt>
<totfact> 0.95063391E+00</totfact>
</mgrwt>
</event>
<event>
 6    1  0.1603085E-006  0.1364166E+04  0.7818608E-02  0.8980173E-01
          1   -1    0    0  501    0  0.00000000000E+00  0.00000000000E+00  0.30064292321E+04  0.30064292321E+04  0.00000000000E+00 0. -1.
         -1   -1    0    0    0  501 -0.00000000000E+00 -0.00000000000E+00 -0.15474740122E+03  0.15474740122E+03  0.00000000000E+00 0.  1.
         23    2    1    2    0    0 -0.47780261116E+03 -0.47793796491E+03  0.12810479623E+04  0.14513196853E+04  0.92330459450E+02 0.  0.
         11    1    3    3    0    0 -0.26923036590E+03 -0.21740767549E+03  0.71163417078E+03  0.79131174660E+03  0.00000000000E+00 0. -1.
        -11    1    3    3    0    0 -0.20857224525E+03 -0.26053028942E+03  0.56941379156E+03  0.66000793875E+03  0.00000000000E+00 0.  1.
         22    1    1    2    0    0  0.47780261116E+03  0.47793796491E+03  0.15706338686E+04  0.17098569480E+04  0.00000000000E+00 0. -1.
<mgrwt>
<rscale>  0 0.13641658E+04</rscale>
<asrwt>0</asrwt>
<pdfrwt beam="1">  1        1 0.46252753E+00 0.13641658E+04</pdfrwt>
<pdfrwt beam="2">  1       -1 0.23807295E-01 0.13641658E+04</pdfrwt>
<totfact> 0.88830559E+00</totfact>
</mgrwt>
</event>
<event>
 6    1  0.1603085E-006  0.2480939E+04  0.7818608E-02  0.8409808E-01
         -2   -1    0    0    0  501 -0.00000000000E+00  0.00000000000E+00  0.74131719533E+03  0.74131719533E+03  0.00000000000E+00 0.  1.
          2   -1    0    0  501    0  0.00000000000E+00 -0.00000000000E+00 -0.20757160760E+04  0.20757160760E+04  0.00000000000E+00 0. -1.
         23    2    1    2    0    0  0.26279686634E+02  0.12259317109E+04 -0.86863191765E+03  0.15053404545E+04  0.89046582366E+02 0.  0.
         11    1    3    3    0    0  0.56430649539E+02  0.66293562064E+03 -0.48692012134E+03  0.82447514207E+03  0.00000000000E+00 0. -1.
        -11    1    3    3    0    0 -0.30150962905E+02  0.56299609029E+03 -0.38171179631E+03  0.68086531244E+03  0.00000000000E+00 0.  1.
         22    1    1    2    0    0 -0.26279686634E+02 -0.12259317109E+04 -0.46576696299E+03  0.13116928168E+04  0.00000000000E+00 0.  1.
<mgrwt>
<rscale>  0 0.24809385E+04</rscale>
<asrwt>0</asrwt>
<pdfrwt beam="1">  1        2 0.31934093E+00 0.24809385E+04</pdfrwt>
<pdfrwt beam="2">  1       -2 0.11404880E+00 0.24809385E+04</pdfrwt>
<totfact> 0.32584312E+00</totfact>
</mgrwt>
</event>
<event>
 6    1  0.1603085E-006  0.7445995E+03  0.7818608E-02  0.9643861E-01
         -1   -1    0    0    0  501 -0.00000000000E+00  0.00000000000E+00  0.48801294006E+03  0.48801294006E+03  0.00000000000E+00 0.  1.
          1   -1    0    0  501    0  0.00000000000E+00 -0.00000000000E+00 -0.28402342384E+03  0.28402342384E+03  0.00000000000E+00 0. -1.
         23    2    1    2    0    0  0.12715307389E+03 -0.10771354517E+03  0.44193447208E+03  0.48154038453E+03  0.93834707368E+02 0.  0.
         13    1    3    3    0    0  0.18313393022E+02 -0.75299958820E+02  0.18979997711E+03  0.20501096428E+03  0.00000000000E+00 0. -1.
        -13    1    3    3    0    0  0.10883968087E+03 -0.32413586352E+02  0.25213449497E+03  0.27652942025E+03  0.00000000000E+00 0.  1.
         22    1    1    2    0    0 -0.12715307389E+03  0.10771354517E+03 -0.23794495585E+03  0.29049597937E+03  0.00000000000E+00 0. -1.
<mgrwt>
<rscale>  0 0.74459951E+03</rscale>
<asrwt>0</asrwt>
<pdfrwt beam="1">  1        1 0.43695911E-01 0.74459951E+03</pdfrwt>
<pdfrwt beam="2">  1       -1 0.75078914E-01 0.74459951E+03</pdfrwt>
<totfact> 0.17034754E+02</totfact>
</mgrwt>
</event>
<event>
 6    1  0.1603085E-006  0.1894818E+04  0.7818608E-02  0.8657440E-01
         -1   -1    0    0    0  501 -0.00000000000E+00  0.00000000000E+00  0.13884177197E+04  0.13884177197E+04  0.00000000000E+00 0.  1.
          1   -1    0    0  501    0  0.00000000000E+00 -0.00000000000E+00 -0.64647939943E+03  0.64647939943E+03  0.00000000000E+00 0. -1.
         23    2    1    2    0    0  0.55640255083E+03 -0.76405377972E+03  0.37212218666E+03  0.10199459136E+04  0.91938936294E+02 0.  0.
         13    1    3    3    0    0  0.21602577874E+02 -0.48769799488E+02  0.25758717829E+01  0.53402245537E+02  0.00000000000E+00 0. -1.
        -13    1    3    3    0    0  0.53479997295E+03 -0.71528398023E+03  0.36954631488E+03  0.96654366807E+03  0.00000000000E+00 0.  1.
         22    1    1    2    0    0 -0.55640255083E+03  0.76405377972E+03  0.36981613358E+03  0.10149512055E+04  0.00000000000E+00 0.  1.
<mgrwt>
<rscale>  0 0.18948176E+04</rscale>
<asrwt>0</asrwt>
<pdfrwt beam="1">  1        1 0.99458370E-01 0.18948176E+04</pdfrwt>
<pdfrwt beam="2">  1       -1 0.21360273E+00 0.18948176E+04</pdfrwt>
<totfact> 0.34919678E+00</totfact>
</mgrwt>
</event>
<event>
 6    1  0.1603085E-006  0.9811378E+03  0.7818608E-02  0.9329478E-01
          2   -1    0    0  501    0  0.00000000000E+00  0.00000000000E+00  0.30890311774E+03  0.30890311774E+03  0.00000000000E+00 0. -1.
         -2   -1    0    0    0  501 -0.00000000000E+00 -0.00000000000E+00 -0.77907217909E+03  0.77907217909E+03  0.00000000000E+00 0.  1.
         23    2    1    2    0    0  0.36589767059E+01 -0.48424049234E+03 -0.18694316450E+03  0.52697694462E+03  0.90855439446E+02 0.  0.
         13    1    3    3    0    0 -0.36631069818E+02 -0.12770233706E+03 -0.65931204300E+02  0.14831266253E+03  0.00000000000E+00 0.  1.
        -13    1    3    3    0    0  0.40290046524E+02 -0.35653815528E+03 -0.12101196020E+03  0.37866428209E+03  0.00000000000E+00 0. -1.
         22    1    1    2    0    0 -0.36589767059E+01  0.48424049234E+03 -0.28322589685E+03  0.56099835221E+03  0.00000000000E+00 0. -1.
<mgrwt>
<rscale>  0 0.98113776E+03</rscale>
<asrwt>0</asrwt>
<pdfrwt beam="1">  1        2 0.47523557E-01 0.98113776E+03</pdfrwt>
<pdfrwt beam="2">  1       -2 0.11985726E+00 0.98113776E+03</pdfrwt>
<totfact> 0.56533766E+01</totfact>
</mgrwt>
</event>
<event>
 6    1  0.1603085E-006  0.1022718E+04  0.7818608E-02  0.9283974E-01
          2   -1    0    0  501    0  0.00000000000E+00  0.00000000000E+00  0.85076494078E+03  0.85076494078E+03  0.00000000000E+00 0. -1.
         -2   -1    0    0    0  501 -0.00000000000E+00 -0.00000000000E+00 -0.30735612589E+03  0.30735612589E+03  0.00000000000E+00 0.  1.
         23    2    1    2    0    0  0.17081401583E+03  0.57245425249E+02 -0.26310183321E+03  0.33173502359E+03  0.91493631026E+02 0.  0.
         13    1    3    3    0    0  0.10739278923E+02  0.36831630515E+02 -0.72253989183E+02  0.81807946258E+02  0.00000000000E+00 0. -1.
        -13    1    3    3    0    0  0.16007473690E+03  0.20413794733E+02 -0.19084784403E+03  0.24992707733E+03  0.00000000000E+00 0.  1.
         22    1    1    2    0    0 -0.17081401583E+03 -0.57245425249E+02  0.80651064810E+03  0.82638604309E+03  0.00000000000E+00 0. -1.
<mgrwt>
<rscale>  0 0.10227176E+04</rscale>
<asrwt>0</asrwt>
<pdfrwt beam="1">  1        2 0.13088691E+00 0.10227176E+04</pdfrwt>
<pdfrwt beam="2">  1       -2 0.47285558E-01 0.10227176E+04</pdfrwt>
<totfact> 0.13396262E+02</totfact>
</mgrwt>
</event>
<event>
 6    1  0.1603085E-006  0.1587375E+04  0.7818608E-02  0.8828342E-01
          1   -1    0    0  501    0  0.00000000000E+00  0.00000000000E+00  0.14090533999E+04  0.14090533999E+04  0.00000000000E+00 0. -1.
         -1   -1    0    0    0  501 -0.00000000000E+00 -0.00000000000E+00 -0.44706600276E+03  0.44706600276E+03  0.00000000000E+00 0.  1.
         23    2    1    2    0    0 -0.48513929272E+03 -0.43129440695E+03  0.10113540132E+04  0.12051109068E+04  0.89890816630E+02 0.  0.
         11    1    3    3    0    0 -0.13741540149E+03 -0.15083335302E+03  0.38556637876E+03  0.43622829502E+03  0.00000000000E+00 0.  1.
        -11    1    3    3    0    0 -0.34772389124E+03 -0.28046105394E+03  0.62578763446E+03  0.76888261182E+03  0.00000000000E+00 0. -1.
         22    1    1    2    0    0  0.48513929272E+03  0.43129440695E+03 -0.49366616107E+02  0.65100849580E+03  0.00000000000E+00 0.  1.
<mgrwt>
<rscale>  0 0.15873750E+04</rscale>
<asrwt>0</asrwt>
<pdfrwt beam="1">  1        1 0.21677744E+00 0.15873750E+04</pdfrwt>
<pdfrwt beam="2">  1       -1 0.68779386E-01 0.15873750E+04</pdfrwt>
<totfact> 0.15555585E+01</totfact>
</mgrwt>
</event>
<event>
 6    1  0.1693539E-006  0.3338977E+04  0.7818608E-02  0.8153048E-01
         -2   -1    0    0    0  501 -0.00000000000E+00  0.00000000000E+00  0.13925115327E+04  0.13925115327E+04  0.00000000000E+00 0.  1.
          2   -1    0    0  501    0  0.00000000000E+00 -0.00000000000E+00 -0.20015573126E+04  0.20015573126E+04  0.00000000000E+00 0. -1.
         23    2    1    2    0    0 -0.70735615929E+03 -0.14315460001E+04  0.18569293992E+03  0.16104527658E+04  0.96951309962E+02 0.  0.
         13    1    3    3    0    0 -0.13822419051E+03 -0.37028689329E+03  0.57720504523E+02  0.39943706241E+03  0.00000000000E+00 0. -1.
        -13    1    3    3    0    0 -0.56913196878E+03 -0.10612591068E+04  0.12797243540E+03  0.12110157034E+04  0.00000000000E+00 0.  1.
         22    1    1    2    0    0  0.70735615929E+03  0.14315460001E+04 -0.79473871981E+03  0.17836160795E+04  0.00000000000E+00 0. -1.
<mgrwt>
<rscale>  0 0.33389769E+04</rscale>
<asrwt>0</asrwt>
<pdfrwt beam="1">  1        2 0.30793189E+00 0.33389769E+04</pdfrwt>
<pdfrwt beam="2">  1       -2 0.21423254E+00 0.33389769E+04</pdfrwt>
<totfact> 0.59715494E-01</totfact>
</mgrwt>
</event>
<event>
 6    1  0.1603085E-006  0.1715313E+04  0.7818608E-02  0.8752679E-01
         -2   -1    0    0    0  501 -0.00000000000E+00  0.00000000000E+00  0.70798743206E+03  0.70798743206E+03  0.00000000000E+00 0.  1.
          2   -1    0    0  501    0  0.00000000000E+00 -0.00000000000E+00 -0.10389658291E+04  0.10389658291E+04  0.00000000000E+00 0. -1.
         23    2    1    2    0    0  0.39120653449E+02 -0.66279125673E+03  0.38332895334E+03  0.77173140624E+03  0.88349314527E+02 0.  0.
         11    1    3    3    0    0  0.29035885524E+02 -0.32479172191E+03  0.23784930997E+03  0.40361496445E+03  0.00000000000E+00 0. -1.
        -11    1    3    3    0    0  0.10084767925E+02 -0.33799953482E+03  0.14547964337E+03  0.36811644179E+03  0.00000000000E+00 0.  1.
         22    1    1    2    0    0 -0.39120653449E+02  0.66279125673E+03 -0.71430735038E+03  0.97522185493E+03  0.00000000000E+00 0. -1.
<mgrwt>
<rscale>  0 0.17153131E+04</rscale>
<asrwt>0</asrwt>
<pdfrwt beam="1">  1        2 0.15984090E+00 0.17153131E+04</pdfrwt>
<pdfrwt beam="2">  1       -2 0.10892114E+00 0.17153131E+04</pdfrwt>
<totfact> 0.15214475E+01</totfact>
</mgrwt>
</event>
<event>
 6    1  0.1603085E-006  0.1924631E+04  0.7818608E-02  0.8642692E-01
         -2   -1    0    0    0  501 -0.00000000000E+00  0.00000000000E+00  0.66946621564E+03  0.66946621564E+03  0.00000000000E+00 0.  1.
          2   -1    0    0  501    0  0.00000000000E+00 -0.00000000000E+00 -0.13832684679E+04  0.13832684679E+04  0.00000000000E+00 0. -1.
         23    2    1    2    0    0  0.83280679349E+03 -0.41199679454E+03 -0.10045536044E+03  0.93940502720E+03  0.95299589120E+02 0.  0.
         11    1    3    3    0    0  0.44601296165E+03 -0.18825074592E+03 -0.90175215540E+02  0.49244032613E+03  0.00000000000E+00 0.  1.
        -11    1    3    3    0    0  0.38679383184E+03 -0.22374604861E+03 -0.10280144902E+02  0.44696470107E+03  0.00000000000E+00 0. -1.
         22    1    1    2    0    0 -0.83280679349E+03  0.41199679454E+03 -0.61334689185E+03  0.11133296564E+04  0.00000000000E+00 0.  1.
<mgrwt>
<rscale>  0 0.19246314E+04</rscale>
<asrwt>0</asrwt>
<pdfrwt beam="1">  1        2 0.21281053E+00 0.19246314E+04</pdfrwt>
<pdfrwt beam="2">  1       -2 0.10299480E+00 0.19246314E+04</pdfrwt>
<totfact> 0.10647605E+01</totfact>
</mgrwt>
</event>
<event>
 6    1  0.1603085E-006  0.2204274E+04  0.7818608E-02  0.8516651E-01
         -2   -1    0    0    0  501 -0.00000000000E+00  0.00000000000E+00  0.58876338132E+03  0.58876338132E+03  0.00000000000E+00 0.  1.
          2   -1    0    0  501    0  0.00000000000E+00 -0.00000000000E+00 -0.20631474521E+04  0.20631474521E+04  0.00000000000E+00 0. -1.
         23    2    1    2    0    0  0.38543391488E+03 -0.10125381874E+04 -0.50887039901E+03  0.12007011539E+04  0.94558417141E+02 0.  0.
         13    1    3    3    0    0  0.17316523651E+03 -0.57350380550E+03 -0.30341903854E+03  0.67153252118E+03  0.00000000000E+00 0.  1.
        -13    1    3    3    0    0  0.21226867838E+03 -0.43903438188E+03 -0.20545136047E+03  0.52916863268E+03  0.00000000000E+00 0. -1.
         22    1    1    2    0    0 -0.38543391488E+03  0.10125381874E+04 -0.96551367174E+03  0.14512096795E+04  0.00000000000E+00 0. -1.
<mgrwt>
<rscale>  0 0.22042737E+04</rscale>
<asrwt>0</asrwt>
<pdfrwt beam="1">  1        2 0.31740730E+00 0.22042737E+04</pdfrwt>
<pdfrwt beam="2">  1       -2 0.90578981E-01 0.22042737E+04</pdfrwt>
<totfact> 0.58612076E+00</totfact>
</mgrwt>
</event>
<event>
 6    1  0.1603085E-006  0.5306309E+04  0.7818608E-02  0.7782918E-01
         -2   -1    0    0    0  501 -0.00000000000E+00  0.00000000000E+00  0.16572456082E+04  0.16572456082E+04  0.00000000000E+00 0.  1.
          2   -1    0    0  501    0  0.00000000000E+00 -0.00000000000E+00 -0.42475464548E+04  0.42475464548E+04  0.00000000000E+00 0. -1.
         23    2    1    2    0    0  0.13128505207E+04  0.54439283206E+03 -0.37875653451E+04  0.40464642329E+04  0.91002743926E+02 0.  0.
         13    1    3    3    0    0  0.28268502071E+03  0.92895921263E+02 -0.71160584818E+03  0.77131274868E+03  0.00000000000E+00 0. -1.
        -13    1    3    3    0    0  0.10301654999E+04  0.45149691080E+03 -0.30759594969E+04  0.32751514842E+04  0.00000000000E+00 0.  1.
         22    1    1    2    0    0 -0.13128505207E+04 -0.54439283206E+03  0.11972644985E+04  0.18583278302E+04  0.00000000000E+00 0.  1.
<mgrwt>
<rscale>  0 0.53063086E+04</rscale>
<asrwt>0</asrwt>
<pdfrwt beam="1">  1        2 0.65346867E+00 0.53063086E+04</pdfrwt>
<pdfrwt beam="2">  1       -2 0.25496087E+00 0.53063086E+04</pdfrwt>
<totfact> 0.89283092E-03</totfact>
</mgrwt>
</event>
<event>
 6    1  0.1603085E-006  0.1401026E+04  0.7818608E-02  0.8953076E-01
          2   -1    0    0  501    0  0.00000000000E+00  0.00000000000E+00  0.36632443446E+03  0.36632443446E+03  0.00000000000E+00 0. -1.
         -2   -1    0    0    0  501 -0.00000000000E+00 -0.00000000000E+00 -0.13395733473E+04  0.13395733473E+04  0.00000000000E+00 0.  1.
         23    2    1    2    0    0 -0.37593056763E+03 -0.16467215209E+03 -0.11754558171E+04  0.12483736387E+04  0.91102440712E+02 0.  0.
         11    1    3    3    0    0 -0.26285454047E+03 -0.11821597071E+03 -0.69027164289E+03  0.74802571223E+03  0.00000000000E+00 0. -1.
        -11    1    3    3    0    0 -0.11307602717E+03 -0.46456181385E+02 -0.48518417417E+03  0.50034792652E+03  0.00000000000E+00 0.  1.
         22    1    1    2    0    0  0.37593056763E+03  0.16467215209E+03  0.20220690420E+03  0.45752414304E+03  0.00000000000E+00 0. -1.
<mgrwt>
<rscale>  0 0.14010260E+04</rscale>
<asrwt>0</asrwt>
<pdfrwt beam="1">  1        2 0.56357604E-01 0.14010260E+04</pdfrwt>
<pdfrwt beam="2">  1       -2 0.20608821E+00 0.14010260E+04</pdfrwt>
<totfact> 0.10362392E+01</totfact>
</mgrwt>
</event>
<event>
 6    1  0.1603085E-006  0.8397045E+03  0.7818608E-02  0.9504260E-01
          1   -1    0    0  501    0  0.00000000000E+00  0.00000000000E+00  0.17554436641E+03  0.17554436641E+03  0.00000000000E+00 0. -1.
         -1   -1    0    0    0  501 -0.00000000000E+00 -0.00000000000E+00 -0.10041673249E+04  0.10041673249E+04  0.00000000000E+00 0.  1.
         23    2    1    2    0    0  0.23577128170E+03 -0.25244173375E+03 -0.96646434999E+02  0.37032639545E+03  0.92120462193E+02 0.  0.
         11    1    3    3    0    0  0.53146629974E+02 -0.88930621358E+02 -0.67080225200E+02  0.12342194418E+03  0.00000000000E+00 0. -1.
        -11    1    3    3    0    0  0.18262465172E+03 -0.16351111239E+03 -0.29566209799E+02  0.24690445127E+03  0.00000000000E+00 0.  1.
         22    1    1    2    0    0 -0.23577128170E+03  0.25244173375E+03 -0.73197652353E+03  0.80938529590E+03  0.00000000000E+00 0.  1.
<mgrwt>
<rscale>  0 0.83970451E+03</rscale>
<asrwt>0</asrwt>
<pdfrwt beam="1">  1        1 0.27006826E-01 0.83970451E+03</pdfrwt>
<pdfrwt beam="2">  1       -1 0.15448728E+00 0.83970451E+03</pdfrwt>
<totfact> 0.57539056E+01</totfact>
</mgrwt>
</event>
<event>
 6    1  0.1603085E-006  0.9390938E+03  0.7818608E-02  0.9377990E-01
         -1   -1    0    0    0  501 -0.00000000000E+00  0.00000000000E+00  0.16944188551E+03  0.16944188551E+03  0.00000000000E+00 0.  1.
          1   -1    0    0  501    0  0.00000000000E+00 -0.00000000000E+00 -0.13011794406E+04  0.13011794406E+04  0.00000000000E+00 0. -1.
         23    2    1    2    0    0  0.29063142058E+03  0.57761150996E+02 -0.11327267739E+04  0.11743040101E+04  0.90094343240E+02 0.  0.
         11    1    3    3    0    0  0.12803828204E+03  0.63539752176E+02 -0.62546173894E+03  0.64158669613E+03  0.00000000000E+00 0. -1.
        -11    1    3    3    0    0  0.16259313854E+03 -0.57786011794E+01 -0.50726503497E+03  0.53271731400E+03  0.00000000000E+00 0.  1.
         22    1    1    2    0    0 -0.29063142058E+03 -0.57761150996E+02  0.98921882855E+00  0.29631731597E+03  0.00000000000E+00 0.  1.
<mgrwt>
<rscale>  0 0.93909381E+03</rscale>
<asrwt>0</asrwt>
<pdfrwt beam="1">  1        1 0.20018145E+00 0.93909381E+03</pdfrwt>
<pdfrwt beam="2">  1       -1 0.26067982E-01 0.93909381E+03</pdfrwt>
<totfact> 0.11826552E+02</totfact>
</mgrwt>
</event>
<event>
 6    1  0.1603085E-006  0.3766991E+04  0.7818608E-02  0.8053276E-01
          2   -1    0    0  501    0  0.00000000000E+00  0.00000000000E+00  0.34402407318E+04  0.34402407318E+04  0.00000000000E+00 0.  1.
         -2   -1    0    0    0  501 -0.00000000000E+00 -0.00000000000E+00 -0.10311937507E+04  0.10311937507E+04  0.00000000000E+00 0. -1.
         23    2    1    2    0    0  0.21401690873E+02 -0.23051038375E+03  0.34226723350E+04  0.34317088325E+04  0.91359341477E+02 0.  0.
         11    1    3    3    0    0 -0.30947398424E+02 -0.13026486150E+03  0.20638722132E+04  0.20682106247E+04  0.00000000000E+00 0. -1.
        -11    1    3    3    0    0  0.52349089297E+02 -0.10024552225E+03  0.13588001217E+04  0.13634982078E+04  0.00000000000E+00 0.  1.
         22    1    1    2    0    0 -0.21401690873E+02  0.23051038375E+03 -0.10136253538E+04  0.10397256500E+04  0.00000000000E+00 0. -1.
<mgrwt>
<rscale>  0 0.37669907E+04</rscale>
<asrwt>0</asrwt>
<pdfrwt beam="1">  1        2 0.52926780E+00 0.37669907E+04</pdfrwt>
<pdfrwt beam="2">  1       -2 0.15864519E+00 0.37669907E+04</pdfrwt>
<totfact> 0.18511856E-01</totfact>
</mgrwt>
</event>
<event>
 6    1  0.1603085E-006  0.2446276E+04  0.7818608E-02  0.8422379E-01
          2   -1    0    0  501    0  0.00000000000E+00  0.00000000000E+00  0.24277391859E+04  0.24277391859E+04  0.00000000000E+00 0. -1.
         -2   -1    0    0    0  501 -0.00000000000E+00 -0.00000000000E+00 -0.61623849912E+03  0.61623849912E+03  0.00000000000E+00 0.  1.
         23    2    1    2    0    0 -0.11061496485E+04 -0.13622019068E+03  0.28527429545E+03  0.11541390721E+04  0.92372014150E+02 0.  0.
         13    1    3    3    0    0 -0.65018655136E+03 -0.11758537137E+03  0.14186163122E+03  0.67579108720E+03  0.00000000000E+00 0. -1.
        -13    1    3    3    0    0 -0.45596309711E+03 -0.18634819308E+02  0.14341266422E+03  0.47834798492E+03  0.00000000000E+00 0.  1.
         22    1    1    2    0    0  0.11061496485E+04  0.13622019068E+03  0.15262263913E+04  0.18898386129E+04  0.00000000000E+00 0. -1.
<mgrwt>
<rscale>  0 0.24462758E+04</rscale>
<asrwt>0</asrwt>
<pdfrwt beam="1">  1        2 0.37349833E+00 0.24462758E+04</pdfrwt>
<pdfrwt beam="2">  1       -2 0.94805924E-01 0.24462758E+04</pdfrwt>
<totfact> 0.32144841E+00</totfact>
</mgrwt>
</event>
<event>
 6    1  0.1603085E-006  0.2148258E+04  0.7818608E-02  0.8540278E-01
          2   -1    0    0  501    0  0.00000000000E+00  0.00000000000E+00  0.45437006330E+03  0.45437006330E+03  0.00000000000E+00 0.  1.
         -2   -1    0    0    0  501 -0.00000000000E+00 -0.00000000000E+00 -0.25392358926E+04  0.25392358926E+04  0.00000000000E+00 0. -1.
         23    2    1    2    0    0  0.23874125182E+03 -0.50400355881E+03  0.23205152287E+03  0.61051489817E+03  0.88676710646E+02 0.  0.
         13    1    3    3    0    0  0.10628894507E+03 -0.22839155692E+03  0.57412283622E+02  0.25837223811E+03  0.00000000000E+00 0. -1.
        -13    1    3    3    0    0  0.13245230675E+03 -0.27561200189E+03  0.17463923925E+03  0.35214266006E+03  0.00000000000E+00 0.  1.
         22    1    1    2    0    0 -0.23874125182E+03  0.50400355881E+03 -0.23169173521E+04  0.23830910577E+04  0.00000000000E+00 0. -1.
<mgrwt>
<rscale>  0 0.21482577E+04</rscale>
<asrwt>0</asrwt>
<pdfrwt beam="1">  1        2 0.69903086E-01 0.21482577E+04</pdfrwt>
<pdfrwt beam="2">  1       -2 0.39065168E+00 0.21482577E+04</pdfrwt>
<totfact> 0.54031581E-01</totfact>
</mgrwt>
</event>
<event>
 6    1  0.1603085E-006  0.5777482E+04  0.7818608E-02  0.7718620E-01
         -2   -1    0    0    0  501 -0.00000000000E+00  0.00000000000E+00  0.29821907468E+04  0.29821907468E+04  0.00000000000E+00 0.  1.
          2   -1    0    0  501    0  0.00000000000E+00 -0.00000000000E+00 -0.27982192777E+04  0.27982192777E+04  0.00000000000E+00 0. -1.
         23    2    1    2    0    0 -0.14485272229E+04 -0.16263971688E+04  0.19895993509E+04  0.29513305074E+04  0.91909306228E+02 0.  0.
         13    1    3    3    0    0 -0.34573196877E+03 -0.43719933982E+03  0.54078275724E+03  0.77660791105E+03  0.00000000000E+00 0.  1.
        -13    1    3    3    0    0 -0.11027952541E+04 -0.11891978290E+04  0.14488165937E+04  0.21747225964E+04  0.00000000000E+00 0. -1.
         22    1    1    2    0    0  0.14485272229E+04  0.16263971688E+04 -0.18056278818E+04  0.28290795170E+04  0.00000000000E+00 0. -1.
<mgrwt>
<rscale>  0 0.57774817E+04</rscale>
<asrwt>0</asrwt>
<pdfrwt beam="1">  1        2 0.43049527E+00 0.57774817E+04</pdfrwt>
<pdfrwt beam="2">  1       -2 0.45879858E+00 0.57774817E+04</pdfrwt>
<totfact> 0.48449051E-03</totfact>
</mgrwt>
</event>
<event>
 6    1  0.1603085E-006  0.3537322E+04  0.7818608E-02  0.8105002E-01
          1   -1    0    0  501    0  0.00000000000E+00  0.00000000000E+00  0.28237992946E+04  0.28237992946E+04  0.00000000000E+00 0. -1.
         -1   -1    0    0    0  501 -0.00000000000E+00 -0.00000000000E+00 -0.11077849753E+04  0.11077849753E+04  0.00000000000E+00 0.  1.
         23    2    1    2    0    0 -0.11342642910E+04 -0.10846345194E+04 -0.45010493513E+02  0.15727294813E+04  0.92003012699E+02 0.  0.
         13    1    3    3    0    0 -0.22555240614E+03 -0.25798970896E+03 -0.32379052660E+02  0.34421066354E+03  0.00000000000E+00 0. -1.
        -13    1    3    3    0    0 -0.90871188486E+03 -0.82664481044E+03 -0.12631440853E+02  0.12285188178E+04  0.00000000000E+00 0.  1.
         22    1    1    2    0    0  0.11342642910E+04  0.10846345194E+04  0.17610248128E+04  0.23588547886E+04  0.00000000000E+00 0. -1.
<mgrwt>
<rscale>  0 0.35373224E+04</rscale>
<asrwt>0</asrwt>
<pdfrwt beam="1">  1        1 0.43443066E+00 0.35373224E+04</pdfrwt>
<pdfrwt beam="2">  1       -1 0.17042846E+00 0.35373224E+04</pdfrwt>
<totfact> 0.15913814E-01</totfact>
</mgrwt>
</event>
<event>
 6    1  0.1603085E-006  0.3587770E+04  0.7818608E-02  0.8093299E-01
         -2   -1    0    0    0  501 -0.00000000000E+00  0.00000000000E+00  0.13833789883E+04  0.13833789883E+04  0.00000000000E+00 0.  1.
          2   -1    0    0  501    0  0.00000000000E+00 -0.00000000000E+00 -0.23262048141E+04  0.23262048141E+04  0.00000000000E+00 0. -1.
         23    2    1    2    0    0 -0.93649849480E+03 -0.14740432703E+04 -0.89039319137E+03  0.19624197647E+04  0.91969038808E+02 0.  0.
         13    1    3    3    0    0 -0.65329051927E+03 -0.10576923984E+04 -0.58998896789E+03  0.13760772851E+04  0.00000000000E+00 0. -1.
        -13    1    3    3    0    0 -0.28320797553E+03 -0.41635087189E+03 -0.30040422348E+03  0.58634247962E+03  0.00000000000E+00 0.  1.
         22    1    1    2    0    0  0.93649849480E+03  0.14740432703E+04 -0.52432634344E+02  0.17471640377E+04  0.00000000000E+00 0.  1.
<mgrwt>
<rscale>  0 0.35877697E+04</rscale>
<asrwt>0</asrwt>
<pdfrwt beam="1">  1        2 0.35787766E+00 0.35877697E+04</pdfrwt>
<pdfrwt beam="2">  1       -2 0.21282754E+00 0.35877697E+04</pdfrwt>
<totfact> 0.39247542E-01</totfact>
</mgrwt>
</event>
<event>
 6    1  0.1603085E-006  0.1910094E+04  0.7818608E-02  0.8649848E-01
          1   -1    0    0  501    0  0.00000000000E+00  0.00000000000E+00  0.12930665748E+04  0.12930665748E+04  0.00000000000E+00 0. -1.
         -1   -1    0    0    0  501 -0.00000000000E+00 -0.00000000000E+00 -0.70538880760E+03  0.70538880760E+03  0.00000000000E+00 0.  1.
         23    2    1    2    0    0 -0.12655651589E+03 -0.40766711136E+02  0.12817229850E+04  0.12917890956E+04  0.90701602786E+02 0.  0.
         13    1    3    3    0    0 -0.81480358476E+02  0.12524668976E+02  0.89747041885E+03  0.90124861656E+03  0.00000000000E+00 0.  1.
        -13    1    3    3    0    0 -0.45076157413E+02 -0.53291380112E+02  0.38425256619E+03  0.39054047906E+03  0.00000000000E+00 0. -1.
         22    1    1    2    0    0  0.12655651589E+03  0.40766711136E+02 -0.69404521784E+03  0.70666628677E+03  0.00000000000E+00 0.  1.
<mgrwt>
<rscale>  0 0.19100939E+04</rscale>
<asrwt>0</asrwt>
<pdfrwt beam="1">  1        1 0.19893332E+00 0.19100939E+04</pdfrwt>
<pdfrwt beam="2">  1       -1 0.10852136E+00 0.19100939E+04</pdfrwt>
<totfact> 0.67401592E+00</totfact>
</mgrwt>
</event>
<event>
 6    1  0.1603085E-006  0.1964582E+04  0.7818608E-02  0.8623361E-01
         -1   -1    0    0    0  501 -0.00000000000E+00  0.00000000000E+00  0.10242951891E+04  0.10242951891E+04  0.00000000000E+00 0.  1.
          1   -1    0    0  501    0  0.00000000000E+00 -0.00000000000E+00 -0.94200905623E+03  0.94200905623E+03  0.00000000000E+00 0. -1.
         23    2    1    2    0    0 -0.14018897177E+03 -0.77390237550E+03  0.62641272282E+03  0.10099300609E+04  0.94805031910E+02 0.  0.
         11    1    3    3    0    0 -0.14592461030E+03 -0.61552933297E+03  0.52192687315E+03  0.82010853706E+03  0.00000000000E+00 0. -1.
        -11    1    3    3    0    0  0.57356385286E+01 -0.15837304252E+03  0.10448584967E+03  0.18982152388E+03  0.00000000000E+00 0.  1.
         22    1    1    2    0    0  0.14018897177E+03  0.77390237550E+03 -0.54412658998E+03  0.95637418437E+03  0.00000000000E+00 0.  1.
<mgrwt>
<rscale>  0 0.19645817E+04</rscale>
<asrwt>0</asrwt>
<pdfrwt beam="1">  1        1 0.14492447E+00 0.19645817E+04</pdfrwt>
<pdfrwt beam="2">  1       -1 0.15758387E+00 0.19645817E+04</pdfrwt>
<totfact> 0.47722169E+00</totfact>
</mgrwt>
</event>
<event>
 6    1  0.1603085E-006  0.8909933E+03  0.7818608E-02  0.9436911E-01
         -1   -1    0    0    0  501 -0.00000000000E+00  0.00000000000E+00  0.21810059278E+03  0.21810059278E+03  0.00000000000E+00 0.  1.
          1   -1    0    0  501    0  0.00000000000E+00 -0.00000000000E+00 -0.90998036230E+03  0.90998036230E+03  0.00000000000E+00 0. -1.
         23    2    1    2    0    0 -0.41587163224E+03  0.43347170527E+02 -0.17266867840E+03  0.46144136067E+03  0.91024530429E+02 0.  0.
         11    1    3    3    0    0 -0.11756392987E+03 -0.23535639274E+02 -0.70601843560E+02  0.13913958544E+03  0.00000000000E+00 0. -1.
        -11    1    3    3    0    0 -0.29830770238E+03  0.66882809802E+02 -0.10206683484E+03  0.32230177524E+03  0.00000000000E+00 0.  1.
         22    1    1    2    0    0  0.41587163224E+03 -0.43347170527E+02 -0.51921109111E+03  0.66663959440E+03  0.00000000000E+00 0.  1.
<mgrwt>
<rscale>  0 0.89099328E+03</rscale>
<asrwt>0</asrwt>
<pdfrwt beam="1">  1        1 0.13999698E+00 0.89099328E+03</pdfrwt>
<pdfrwt beam="2">  1       -1 0.33553938E-01 0.89099328E+03</pdfrwt>
<totfact> 0.15043735E+02</totfact>
</mgrwt>
</event>
<event>
 6    1  0.1603085E-006  0.1269150E+04  0.7818608E-02  0.9054394E-01
          2   -1    0    0  501    0  0.00000000000E+00  0.00000000000E+00  0.23830066342E+04  0.23830066342E+04  0.00000000000E+00 0. -1.
         -2   -1    0    0    0  501 -0.00000000000E+00 -0.00000000000E+00 -0.16898195948E+03  0.16898195948E+03  0.00000000000E+00 0.  1.
         23    2    1    2    0    0 -0.18761224485E+03 -0.59224674164E+03  0.13390392816E+04  0.14788837547E+04  0.90091091037E+02 0.  0.
         13    1    3    3    0    0 -0.99137670055E+02 -0.29237227104E+03  0.56026646502E+03  0.63969393800E+03  0.00000000000E+00 0.  1.
        -13    1    3    3    0    0 -0.88474574791E+02 -0.29987447060E+03  0.77877281662E+03  0.83918981667E+03  0.00000000000E+00 0. -1.
         22    1    1    2    0    0  0.18761224485E+03  0.59224674164E+03  0.87498539312E+03  0.10731048390E+04  0.00000000000E+00 0.  1.
<mgrwt>
<rscale>  0 0.12691495E+04</rscale>
<asrwt>0</asrwt>
<pdfrwt beam="1">  1        2 0.36661638E+00 0.12691495E+04</pdfrwt>
<pdfrwt beam="2">  1       -2 0.25997226E-01 0.12691495E+04</pdfrwt>
<totfact> 0.53562153E+01</totfact>
</mgrwt>
</event>
<event>
 6    1  0.1603085E-006  0.1881924E+04  0.7818608E-02  0.8663907E-01
         -2   -1    0    0    0  501 -0.00000000000E+00  0.00000000000E+00  0.21918418810E+04  0.21918418810E+04  0.00000000000E+00 0. -1.
          2   -1    0    0  501    0  0.00000000000E+00 -0.00000000000E+00 -0.40395667190E+03  0.40395667190E+03  0.00000000000E+00 0.  1.
         23    2    1    2    0    0  0.44098243318E+03  0.39277223104E+03 -0.10967780741E+03  0.60846845111E+03  0.97309314573E+02 0.  0.
         13    1    3    3    0    0  0.37278319472E+03  0.37016754559E+03 -0.83195579619E+02  0.53189550341E+03  0.00000000000E+00 0.  1.
        -13    1    3    3    0    0  0.68199238458E+02  0.22604685451E+02 -0.26482227794E+02  0.76572947701E+02  0.00000000000E+00 0. -1.
         22    1    1    2    0    0 -0.44098243318E+03 -0.39277223104E+03  0.18975630165E+04  0.19873301018E+04  0.00000000000E+00 0. -1.
<mgrwt>
<rscale>  0 0.18819236E+04</rscale>
<asrwt>0</asrwt>
<pdfrwt beam="1">  1        2 0.62147182E-01 0.18819236E+04</pdfrwt>
<pdfrwt beam="2">  1       -2 0.33720644E+00 0.18819236E+04</pdfrwt>
<totfact> 0.13843892E+00</totfact>
</mgrwt>
</event>
<event>
 6    1  0.1603085E-006  0.1476475E+04  0.7818608E-02  0.8900249E-01
          1   -1    0    0  501    0  0.00000000000E+00  0.00000000000E+00  0.93466202875E+03  0.93466202875E+03  0.00000000000E+00 0. -1.
         -1   -1    0    0    0  501 -0.00000000000E+00 -0.00000000000E+00 -0.58309265762E+03  0.58309265762E+03  0.00000000000E+00 0.  1.
         23    2    1    2    0    0  0.36215203007E+03  0.63207540979E+01  0.83437212287E+03  0.91418816817E+03  0.91482908731E+02 0.  0.
         13    1    3    3    0    0  0.22166408637E+03  0.22207928165E+01  0.61421582671E+03  0.65299385977E+03  0.00000000000E+00 0. -1.
        -13    1    3    3    0    0  0.14048794370E+03  0.40999612814E+01  0.22015629616E+03  0.26119430840E+03  0.00000000000E+00 0.  1.
         22    1    1    2    0    0 -0.36215203007E+03 -0.63207540979E+01 -0.48280275173E+03  0.60356651820E+03  0.00000000000E+00 0.  1.
<mgrwt>
<rscale>  0 0.14764749E+04</rscale>
<asrwt>0</asrwt>
<pdfrwt beam="1">  1        1 0.14379416E+00 0.14764749E+04</pdfrwt>
<pdfrwt beam="2">  1       -1 0.89706563E-01 0.14764749E+04</pdfrwt>
<totfact> 0.20113682E+01</totfact>
</mgrwt>
</event>
<event>
 6    1  0.2102965E-006  0.3084543E+04  0.7818608E-02  0.8219993E-01
          1   -1    0    0  501    0  0.00000000000E+00  0.00000000000E+00  0.15013560489E+04  0.15013560489E+04  0.00000000000E+00 0. -1.
         -1   -1    0    0    0  501 -0.00000000000E+00 -0.00000000000E+00 -0.15843019980E+04  0.15843019980E+04  0.00000000000E+00 0.  1.
         23    2    1    2    0    0 -0.33442263827E+03  0.37456580541E+03 -0.14977551063E+04  0.15843842562E+04  0.12192239129E+03 0.  0.
         13    1    3    3    0    0 -0.85743878326E+02  0.18446451752E+03 -0.61596029007E+03  0.64868039113E+03  0.00000000000E+00 0. -1.
        -13    1    3    3    0    0 -0.24867875995E+03  0.19010128789E+03 -0.88179481619E+03  0.93570386510E+03  0.00000000000E+00 0.  1.
         22    1    1    2    0    0  0.33442263827E+03 -0.37456580541E+03  0.14148091571E+04  0.15012737907E+04  0.00000000000E+00 0. -1.
<mgrwt>
<rscale>  0 0.30845430E+04</rscale>
<asrwt>0</asrwt>
<pdfrwt beam="1">  1        1 0.23097785E+00 0.30845430E+04</pdfrwt>
<pdfrwt beam="2">  1       -1 0.24373877E+00 0.30845430E+04</pdfrwt>
<totfact> 0.42258216E-01</totfact>
</mgrwt>
</event>
<event>
 6    1  0.1603085E-006  0.5030535E+04  0.7818608E-02  0.7823814E-01
          2   -1    0    0  501    0  0.00000000000E+00  0.00000000000E+00  0.27940294506E+04  0.27940294506E+04  0.00000000000E+00 0. -1.
         -2   -1    0    0    0  501 -0.00000000000E+00 -0.00000000000E+00 -0.22643175066E+04  0.22643175066E+04  0.00000000000E+00 0.  1.
         23    2    1    2    0    0 -0.18016668824E+04 -0.17219534625E+04  0.60052317519E+03  0.25651278508E+04  0.90141691851E+02 0.  0.
         11    1    3    3    0    0 -0.15962932703E+04 -0.15188058842E+04  0.55989085463E+03  0.22734118166E+04  0.00000000000E+00 0. -1.
        -11    1    3    3    0    0 -0.20537361206E+03 -0.20314757832E+03  0.40632320557E+02  0.29171603415E+03  0.00000000000E+00 0.  1.
         22    1    1    2    0    0  0.18016668824E+04  0.17219534625E+04 -0.70811231167E+02  0.24932191064E+04  0.00000000000E+00 0.  1.
<mgrwt>
<rscale>  0 0.50305347E+04</rscale>
<asrwt>0</asrwt>
<pdfrwt beam="1">  1        2 0.42985068E+00 0.50305347E+04</pdfrwt>
<pdfrwt beam="2">  1       -2 0.34835654E+00 0.50305347E+04</pdfrwt>
<totfact> 0.26980663E-02</totfact>
</mgrwt>
</event>
<event>
 6    1  0.1603085E-006  0.7838402E+03  0.7818608E-02  0.9583707E-01
         -2   -1    0    0    0  501 -0.00000000000E+00  0.00000000000E+00  0.60634814119E+02  0.60634814119E+02  0.00000000000E+00 0.  1.
          2   -1    0    0  501    0  0.00000000000E+00 -0.00000000000E+00 -0.25332203672E+04  0.25332203672E+04  0.00000000000E+00 0. -1.
         23    2    1    2    0    0  0.42919608731E+02  0.20154596442E+03 -0.23355495455E+04  0.23463845043E+04  0.90915864161E+02 0.  0.
         11    1    3    3    0    0 -0.11918303233E+02  0.51941897619E+02 -0.99003952944E+03  0.99147278154E+03  0.00000000000E+00 0. -1.
        -11    1    3    3    0    0  0.54837911965E+02  0.14960406680E+03 -0.13455100160E+04  0.13549117228E+04  0.00000000000E+00 0.  1.
         22    1    1    2    0    0 -0.42919608731E+02 -0.20154596442E+03 -0.13703600767E+03  0.24747067702E+03  0.00000000000E+00 0.  1.
<mgrwt>
<rscale>  0 0.78384015E+03</rscale>
<asrwt>0</asrwt>
<pdfrwt beam="1">  1        2 0.38972635E+00 0.78384015E+03</pdfrwt>
<pdfrwt beam="2">  1       -2 0.93284295E-02 0.78384015E+03</pdfrwt>
<totfact> 0.26498789E+02</totfact>
</mgrwt>
</event>
<event>
 6    1  0.1603085E-006  0.4941532E+04  0.7818608E-02  0.7837590E-01
         -2   -1    0    0    0  501 -0.00000000000E+00  0.00000000000E+00  0.14586096016E+04  0.14586096016E+04  0.00000000000E+00 0. -1.
          2   -1    0    0  501    0  0.00000000000E+00 -0.00000000000E+00 -0.41852772893E+04  0.41852772893E+04  0.00000000000E+00 0.  1.
         23    2    1    2    0    0 -0.73106051376E+03 -0.13128667847E+04  0.87503810082E+03  0.17412783714E+04  0.91049544475E+02 0.  0.
         13    1    3    3    0    0 -0.31458820814E+03 -0.61132699677E+03  0.35476237300E+03  0.77365546529E+03  0.00000000000E+00 0.  1.
        -13    1    3    3    0    0 -0.41647230562E+03 -0.70153978793E+03  0.52027572782E+03  0.96762290607E+03  0.00000000000E+00 0. -1.
         22    1    1    2    0    0  0.73106051376E+03  0.13128667847E+04 -0.36017057885E+04  0.39026085195E+04  0.00000000000E+00 0.  1.
<mgrwt>
<rscale>  0 0.49415324E+04</rscale>
<asrwt>0</asrwt>
<pdfrwt beam="1">  1        2 0.64388882E+00 0.49415324E+04</pdfrwt>
<pdfrwt beam="2">  1       -2 0.22440148E+00 0.49415324E+04</pdfrwt>
<totfact> 0.16137296E-02</totfact>
</mgrwt>
</event>
<event>
 6    1  0.1603085E-006  0.2708135E+04  0.7818608E-02  0.8332370E-01
          2   -1    0    0  501    0  0.00000000000E+00  0.00000000000E+00  0.35629568319E+04  0.35629568319E+04  0.00000000000E+00 0. -1.
         -2   -1    0    0    0  501 -0.00000000000E+00 -0.00000000000E+00 -0.51460045387E+03  0.51460045387E+03  0.00000000000E+00 0.  1.
         23    2    1    2    0    0 -0.83454301285E+03 -0.89451220335E+03  0.65702328464E+03  0.13914656854E+04  0.88786455797E+02 0.  0.
         11    1    3    3    0    0 -0.33122943015E+03 -0.38985256688E+03  0.23299557768E+03  0.56212534058E+03  0.00000000000E+00 0.  1.
        -11    1    3    3    0    0 -0.50331358270E+03 -0.50465963647E+03  0.42402770696E+03  0.82934034478E+03  0.00000000000E+00 0. -1.
         22    1    1    2    0    0  0.83454301285E+03  0.89451220335E+03  0.23913330934E+04  0.26860916004E+04  0.00000000000E+00 0. -1.
<mgrwt>
<rscale>  0 0.27081353E+04</rscale>
<asrwt>0</asrwt>
<pdfrwt beam="1">  1        2 0.54814719E+00 0.27081353E+04</pdfrwt>
<pdfrwt beam="2">  1       -2 0.79169303E-01 0.27081353E+04</pdfrwt>
<totfact> 0.91072351E-01</totfact>
</mgrwt>
</event>
<event>
 6    1  0.1603085E-006  0.1737791E+04  0.7818608E-02  0.8740100E-01
         -2   -1    0    0    0  501 -0.00000000000E+00  0.00000000000E+00  0.26421414447E+03  0.26421414447E+03  0.00000000000E+00 0.  1.
          2   -1    0    0  501    0  0.00000000000E+00 -0.00000000000E+00 -0.28574512082E+04  0.28574512082E+04  0.00000000000E+00 0. -1.
         23    2    1    2    0    0  0.35232663742E+03 -0.56640293286E+03 -0.30648223565E+03  0.73960868132E+03  0.90240228926E+02 0.  0.
         13    1    3    3    0    0  0.99405020753E+02 -0.18043506001E+03 -0.51302022534E+02  0.21229711856E+03  0.00000000000E+00 0.  1.
        -13    1    3    3    0    0  0.25292161667E+03 -0.38596787285E+03 -0.25518021312E+03  0.52731156276E+03  0.00000000000E+00 0. -1.
         22    1    1    2    0    0 -0.35232663742E+03  0.56640293286E+03 -0.22867548281E+04  0.23820566714E+04  0.00000000000E+00 0. -1.
<mgrwt>
<rscale>  0 0.17377906E+04</rscale>
<asrwt>0</asrwt>
<pdfrwt beam="1">  1        2 0.43960788E+00 0.17377906E+04</pdfrwt>
<pdfrwt beam="2">  1       -2 0.40648330E-01 0.17377906E+04</pdfrwt>
<totfact> 0.11639418E+01</totfact>
</mgrwt>
</event>
<event>
 6    1  0.1603085E-006  0.9882139E+03  0.7818608E-02  0.9321567E-01
         -1   -1    0    0    0  501 -0.00000000000E+00  0.00000000000E+00  0.42342233682E+03  0.42342233682E+03  0.00000000000E+00 0.  1.
          1   -1    0    0  501    0  0.00000000000E+00 -0.00000000000E+00 -0.57659144061E+03  0.57659144061E+03  0.00000000000E+00 0. -1.
         23    2    1    2    0    0 -0.46771208338E+02 -0.44637674809E+03  0.12154875238E+03  0.47379172575E+03  0.90910687024E+02 0.  0.
         11    1    3    3    0    0  0.99063662505E+00 -0.32044639735E+03  0.61353655504E+02  0.32626851822E+03  0.00000000000E+00 0.  1.
        -11    1    3    3    0    0 -0.47761844963E+02 -0.12593035074E+03  0.60195096879E+02  0.14752320753E+03  0.00000000000E+00 0. -1.
         22    1    1    2    0    0  0.46771208338E+02  0.44637674809E+03 -0.27471785617E+03  0.52622205168E+03  0.00000000000E+00 0. -1.
<mgrwt>
<rscale>  0 0.98821393E+03</rscale>
<asrwt>0</asrwt>
<pdfrwt beam="1">  1        1 0.88706376E-01 0.98821393E+03</pdfrwt>
<pdfrwt beam="2">  1       -1 0.65141898E-01 0.98821393E+03</pdfrwt>
<totfact> 0.86965863E+01</totfact>
</mgrwt>
</event>
<event>
 6    1  0.1603085E-006  0.9266435E+03  0.7818608E-02  0.9392875E-01
         -2   -1    0    0    0  501 -0.00000000000E+00  0.00000000000E+00  0.23007640490E+03  0.23007640490E+03  0.00000000000E+00 0.  1.
          2   -1    0    0  501    0  0.00000000000E+00 -0.00000000000E+00 -0.93302500742E+03  0.93302500742E+03  0.00000000000E+00 0. -1.
         23    2    1    2    0    0 -0.22251426187E+03 -0.10331645089E+03 -0.84105470897E+03  0.88156956262E+03  0.98005022882E+02 0.  0.
         11    1    3    3    0    0 -0.12412302787E+03 -0.49646438958E+02 -0.61369109567E+03  0.62808284156E+03  0.00000000000E+00 0. -1.
        -11    1    3    3    0    0 -0.98391233991E+02 -0.53670011927E+02 -0.22736361330E+03  0.25348672107E+03  0.00000000000E+00 0.  1.
         22    1    1    2    0    0  0.22251426187E+03  0.10331645089E+03  0.13810610645E+03  0.28153184970E+03  0.00000000000E+00 0.  1.
<mgrwt>
<rscale>  0 0.92664349E+03</rscale>
<asrwt>0</asrwt>
<pdfrwt beam="1">  1        2 0.14354231E+00 0.92664349E+03</pdfrwt>
<pdfrwt beam="2">  1       -2 0.35396371E-01 0.92664349E+03</pdfrwt>
<totfact> 0.20900106E+02</totfact>
</mgrwt>
</event>
<event>
 6    1  0.1603085E-006  0.2562710E+04  0.7818608E-02  0.8380979E-01
          1   -1    0    0  501    0  0.00000000000E+00  0.00000000000E+00  0.13786524353E+04  0.13786524353E+04  0.00000000000E+00 0. -1.
         -1   -1    0    0    0  501 -0.00000000000E+00 -0.00000000000E+00 -0.11909246137E+04  0.11909246137E+04  0.00000000000E+00 0.  1.
         23    2    1    2    0    0 -0.26223628301E+03  0.11005755214E+02 -0.11618760923E+04  0.11946880647E+04  0.91839661171E+02 0.  0.
         11    1    3    3    0    0 -0.36841554661E+02  0.31821109944E+02 -0.28151603604E+03  0.28569417519E+03  0.00000000000E+00 0. -1.
        -11    1    3    3    0    0 -0.22539472835E+03 -0.20815354730E+02 -0.88036005622E+03  0.90899388951E+03  0.00000000000E+00 0.  1.
         22    1    1    2    0    0  0.26223628301E+03 -0.11005755214E+02  0.13496039138E+04  0.13748889843E+04  0.00000000000E+00 0. -1.
<mgrwt>
<rscale>  0 0.25627104E+04</rscale>
<asrwt>0</asrwt>
<pdfrwt beam="1">  1        1 0.21210038E+00 0.25627104E+04</pdfrwt>
<pdfrwt beam="2">  1       -1 0.18321917E+00 0.25627104E+04</pdfrwt>
<totfact> 0.13869916E+00</totfact>
</mgrwt>
</event>
<event>
 6    1  0.1603085E-006  0.2228455E+03  0.7818608E-02  0.1131779E+00
         -1   -1    0    0    0  501 -0.00000000000E+00  0.00000000000E+00  0.86281839617E+02  0.86281839617E+02  0.00000000000E+00 0.  1.
          1   -1    0    0  501    0  0.00000000000E+00 -0.00000000000E+00 -0.14388925487E+03  0.14388925487E+03  0.00000000000E+00 0. -1.
         23    2    1    2    0    0  0.10106355296E+02 -0.10923599018E+02 -0.12819387711E+03  0.15803294901E+03  0.91210083935E+02 0.  0.
         13    1    3    3    0    0 -0.31422664341E+02 -0.10165774278E+02 -0.12849389468E+02  0.35437742742E+02  0.00000000000E+00 0.  1.
        -13    1    3    3    0    0  0.41529019637E+02 -0.75782473926E+00 -0.11534448765E+03  0.12259520627E+03  0.00000000000E+00 0. -1.
         22    1    1    2    0    0 -0.10106355296E+02  0.10923599018E+02  0.70586461866E+02  0.72138145468E+02  0.00000000000E+00 0.  1.
<mgrwt>
<rscale>  0 0.22284550E+03</rscale>
<asrwt>0</asrwt>
<pdfrwt beam="1">  1        1 0.22136808E-01 0.22284550E+03</pdfrwt>
<pdfrwt beam="2">  1       -1 0.13274129E-01 0.22284550E+03</pdfrwt>
<totfact> 0.85460756E+03</totfact>
</mgrwt>
</event>
<event>
 6    1  0.1603085E-006  0.1733532E+04  0.7818608E-02  0.8742467E-01
          2   -1    0    0  501    0  0.00000000000E+00  0.00000000000E+00  0.89292977151E+03  0.89292977151E+03  0.00000000000E+00 0. -1.
         -2   -1    0    0    0  501 -0.00000000000E+00 -0.00000000000E+00 -0.84136913833E+03  0.84136913833E+03  0.00000000000E+00 0.  1.
         23    2    1    2    0    0  0.70034670818E+03  0.49989037975E+03 -0.46514902112E+02  0.86827655791E+03  0.10660507243E+03 0.  0.
         11    1    3    3    0    0  0.61012319546E+03  0.38717492127E+03 -0.42199334982E+02  0.72383390165E+03  0.00000000000E+00 0.  1.
        -11    1    3    3    0    0  0.90223512714E+02  0.11271545848E+03 -0.43155671303E+01  0.14444265626E+03  0.00000000000E+00 0. -1.
         22    1    1    2    0    0 -0.70034670818E+03 -0.49989037975E+03  0.98075535292E+02  0.86602235193E+03  0.00000000000E+00 0. -1.
<mgrwt>
<rscale>  0 0.17335323E+04</rscale>
<asrwt>0</asrwt>
<pdfrwt beam="1">  1        2 0.13737381E+00 0.17335323E+04</pdfrwt>
<pdfrwt beam="2">  1       -2 0.12944141E+00 0.17335323E+04</pdfrwt>
<totfact> 0.12352895E+01</totfact>
</mgrwt>
</event>
<event>
 6    1  0.1603085E-006  0.2039066E+04  0.7818608E-02  0.8588571E-01
          3   -1    0    0  501    0  0.00000000000E+00  0.00000000000E+00  0.17143680220E+04  0.17143680220E+04  0.00000000000E+00 0. -1.
         -3   -1    0    0    0  501 -0.00000000000E+00 -0.00000000000E+00 -0.60631515985E+03  0.60631515985E+03  0.00000000000E+00 0.  1.
         23    2    1    2    0    0  0.44206982986E+03  0.57986281562E+03 -0.25237880938E+03  0.77716740533E+03  0.92884299372E+02 0.  0.
         13    1    3    3    0    0  0.14120577596E+03  0.25917115759E+03 -0.10969242527E+03  0.31486693737E+03  0.00000000000E+00 0. -1.
        -13    1    3    3    0    0  0.30086405390E+03  0.32069165804E+03 -0.14268638411E+03  0.46230046796E+03  0.00000000000E+00 0.  1.
         22    1    1    2    0    0 -0.44206982986E+03 -0.57986281562E+03  0.13604316715E+04  0.15435157765E+04  0.00000000000E+00 0. -1.
<mgrwt>
<rscale>  0 0.20390658E+04</rscale>
<asrwt>0</asrwt>
<pdfrwt beam="1">  1        3 0.26374893E+00 0.20390658E+04</pdfrwt>
<pdfrwt beam="2">  1       -3 0.93279256E-01 0.20390658E+04</pdfrwt>
<totfact> 0.15327950E-01</totfact>
</mgrwt>
</event>
<event>
 6    1  0.1603085E-006  0.3492143E+04  0.7818608E-02  0.8115654E-01
         -2   -1    0    0    0  501 -0.00000000000E+00  0.00000000000E+00  0.18683404876E+04  0.18683404876E+04  0.00000000000E+00 0.  1.
          2   -1    0    0  501    0  0.00000000000E+00 -0.00000000000E+00 -0.16318044467E+04  0.16318044467E+04  0.00000000000E+00 0. -1.
         23    2    1    2    0    0  0.16140184653E+04  0.32467379362E+03 -0.46114687261E+03  0.17120649232E+04  0.89672652115E+02 0.  0.
         13    1    3    3    0    0  0.11584615635E+04  0.20099919160E+03 -0.35554399532E+03  0.12283506835E+04  0.00000000000E+00 0.  1.
        -13    1    3    3    0    0  0.45555690182E+03  0.12367460202E+03 -0.10560287729E+03  0.48371423969E+03  0.00000000000E+00 0. -1.
         22    1    1    2    0    0 -0.16140184653E+04 -0.32467379362E+03  0.69768291352E+03  0.17880800112E+04  0.00000000000E+00 0.  1.
<mgrwt>
<rscale>  0 0.34921434E+04</rscale>
<asrwt>0</asrwt>
<pdfrwt beam="1">  1        2 0.25104684E+00 0.34921434E+04</pdfrwt>
<pdfrwt beam="2">  1       -2 0.28743700E+00 0.34921434E+04</pdfrwt>
<totfact> 0.33385503E-01</totfact>
</mgrwt>
</event>
<event>
 6    1  0.1603085E-006  0.2103207E+04  0.7818608E-02  0.8559832E-01
          1   -1    0    0  501    0  0.00000000000E+00  0.00000000000E+00  0.16184491628E+04  0.16184491628E+04  0.00000000000E+00 0. -1.
         -1   -1    0    0    0  501 -0.00000000000E+00 -0.00000000000E+00 -0.68328974359E+03  0.68328974359E+03  0.00000000000E+00 0.  1.
         23    2    1    2    0    0 -0.13225463767E+03 -0.64673658885E+03 -0.42456535568E+03  0.79024594644E+03  0.92051127544E+02 0.  0.
         11    1    3    3    0    0 -0.20878103084E+02 -0.31926635078E+03 -0.22169244956E+03  0.38924855828E+03  0.00000000000E+00 0. -1.
        -11    1    3    3    0    0 -0.11137653458E+03 -0.32747023807E+03 -0.20287290612E+03  0.40099738816E+03  0.00000000000E+00 0.  1.
         22    1    1    2    0    0  0.13225463767E+03  0.64673658885E+03  0.13597247749E+04  0.15114929600E+04  0.00000000000E+00 0. -1.
<mgrwt>
<rscale>  0 0.21032068E+04</rscale>
<asrwt>0</asrwt>
<pdfrwt beam="1">  1        1 0.24899218E+00 0.21032068E+04</pdfrwt>
<pdfrwt beam="2">  1       -1 0.10512150E+00 0.21032068E+04</pdfrwt>
<totfact> 0.42305602E+00</totfact>
</mgrwt>
</event>
<event>
 6    1  0.1603085E-006  0.1809380E+04  0.7818608E-02  0.8701327E-01
          2   -1    0    0  501    0  0.00000000000E+00  0.00000000000E+00  0.17022576631E+04  0.17022576631E+04  0.00000000000E+00 0. -1.
         -2   -1    0    0    0  501 -0.00000000000E+00 -0.00000000000E+00 -0.48081108703E+03  0.48081108703E+03  0.00000000000E+00 0.  1.
         23    2    1    2    0    0  0.73501700866E+03 -0.15831219641E+03  0.12144051862E+04  0.14311629477E+04  0.90192417329E+02 0.  0.
         11    1    3    3    0    0  0.10631378861E+03 -0.41090232278E+02  0.23906073875E+03  0.26484158595E+03  0.00000000000E+00 0.  1.
        -11    1    3    3    0    0  0.62870322005E+03 -0.11722196413E+03  0.97534444742E+03  0.11663213618E+04  0.00000000000E+00 0. -1.
         22    1    1    2    0    0 -0.73501700866E+03  0.15831219641E+03  0.70413898996E+01  0.75190580243E+03  0.00000000000E+00 0.  1.
<mgrwt>
<rscale>  0 0.18093804E+04</rscale>
<asrwt>0</asrwt>
<pdfrwt beam="1">  1        2 0.26188579E+00 0.18093804E+04</pdfrwt>
<pdfrwt beam="2">  1       -2 0.73970937E-01 0.18093804E+04</pdfrwt>
<totfact> 0.15186680E+01</totfact>
</mgrwt>
</event>
<event>
 6    1  0.1603085E-006  0.8139362E+03  0.7818608E-02  0.9540061E-01
          2   -1    0    0  501    0  0.00000000000E+00  0.00000000000E+00  0.19270768378E+03  0.19270768378E+03  0.00000000000E+00 0. -1.
         -2   -1    0    0    0  501 -0.00000000000E+00 -0.00000000000E+00 -0.85945217484E+03  0.85945217484E+03  0.00000000000E+00 0.  1.
         23    2    1    2    0    0  0.48011397918E+02  0.30406701208E+03 -0.22772164661E+01  0.31984940454E+03  0.86813672337E+02 0.  0.
         11    1    3    3    0    0  0.15403063206E+02  0.21372614432E+03 -0.37522666814E+02  0.21754096085E+03  0.00000000000E+00 0. -1.
        -11    1    3    3    0    0  0.32608334712E+02  0.90340867753E+02  0.35245450348E+02  0.10230844368E+03  0.00000000000E+00 0.  1.
         22    1    1    2    0    0 -0.48011397918E+02 -0.30406701208E+03 -0.66446727459E+03  0.73231045409E+03  0.00000000000E+00 0.  1.
<mgrwt>
<rscale>  0 0.81393621E+03</rscale>
<asrwt>0</asrwt>
<pdfrwt beam="1">  1        2 0.29647336E-01 0.81393621E+03</pdfrwt>
<pdfrwt beam="2">  1       -2 0.13222341E+00 0.81393621E+03</pdfrwt>
<totfact> 0.75552971E+01</totfact>
</mgrwt>
</event>
<event>
 6    1  0.1603085E-006  0.1288783E+04  0.7818608E-02  0.9038508E-01
          2   -1    0    0  501    0  0.00000000000E+00  0.00000000000E+00  0.11929483704E+04  0.11929483704E+04  0.00000000000E+00 0. -1.
         -2   -1    0    0    0  501 -0.00000000000E+00 -0.00000000000E+00 -0.34807922971E+03  0.34807922971E+03  0.00000000000E+00 0.  1.
         23    2    1    2    0    0 -0.49398447222E+03 -0.89107194510E+02  0.90177650819E+03  0.10358551549E+04  0.88511470336E+02 0.  0.
         11    1    3    3    0    0 -0.35999035982E+03 -0.32153242871E+02  0.68887400967E+03  0.77792948998E+03  0.00000000000E+00 0.  1.
        -11    1    3    3    0    0 -0.13399411240E+03 -0.56953951639E+02  0.21290249852E+03  0.25792566495E+03  0.00000000000E+00 0. -1.
         22    1    1    2    0    0  0.49398447222E+03  0.89107194510E+02 -0.56907367484E+02  0.50517244519E+03  0.00000000000E+00 0.  1.
<mgrwt>
<rscale>  0 0.12887832E+04</rscale>
<asrwt>0</asrwt>
<pdfrwt beam="1">  1        2 0.18353052E+00 0.12887832E+04</pdfrwt>
<pdfrwt beam="2">  1       -2 0.53550651E-01 0.12887832E+04</pdfrwt>
<totfact> 0.61644342E+01</totfact>
</mgrwt>
</event>
<event>
 6    1  0.1603085E-006  0.1620395E+04  0.7818608E-02  0.8808116E-01
         -1   -1    0    0    0  501 -0.00000000000E+00  0.00000000000E+00  0.12470531860E+04  0.12470531860E+04  0.00000000000E+00 0.  1.
          1   -1    0    0  501    0  0.00000000000E+00 -0.00000000000E+00 -0.52637694446E+03  0.52637694446E+03  0.00000000000E+00 0. -1.
         23    2    1    2    0    0  0.45179259195E+03 -0.30561508156E+03 -0.29037884878E+03  0.62462661381E+03  0.91221744380E+02 0.  0.
         11    1    3    3    0    0  0.27428045072E+03 -0.13074971076E+03 -0.15993358494E+03  0.34337152489E+03  0.00000000000E+00 0.  1.
        -11    1    3    3    0    0  0.17751214123E+03 -0.17486537080E+03 -0.13044526384E+03  0.28125508892E+03  0.00000000000E+00 0. -1.
         22    1    1    2    0    0 -0.45179259195E+03  0.30561508156E+03  0.10110550904E+04  0.11488035167E+04  0.00000000000E+00 0.  1.
<mgrwt>
<rscale>  0 0.16203951E+04</rscale>
<asrwt>0</asrwt>
<pdfrwt beam="1">  1        1 0.80981069E-01 0.16203951E+04</pdfrwt>
<pdfrwt beam="2">  1       -1 0.19185434E+00 0.16203951E+04</pdfrwt>
<totfact> 0.67770503E+00</totfact>
</mgrwt>
</event>
<event>
 6    1  0.1603085E-006  0.4514215E+04  0.7818608E-02  0.7908153E-01
          1   -1    0    0  501    0  0.00000000000E+00  0.00000000000E+00  0.21105128866E+04  0.21105128866E+04  0.00000000000E+00 0.  1.
         -1   -1    0    0    0  501 -0.00000000000E+00 -0.00000000000E+00 -0.24138848400E+04  0.24138848400E+04  0.00000000000E+00 0. -1.
         23    2    1    2    0    0  0.21916226740E+04 -0.47519532622E+02  0.38346863978E+03  0.22271780915E+04  0.88351583303E+02 0.  0.
         13    1    3    3    0    0  0.59196313987E+03  0.32535912180E+01  0.67334167836E+02  0.59578925383E+03  0.00000000000E+00 0.  1.
        -13    1    3    3    0    0  0.15996595342E+04 -0.50773123840E+02  0.31613447194E+03  0.16313888377E+04  0.00000000000E+00 0. -1.
         22    1    1    2    0    0 -0.21916226740E+04  0.47519532622E+02 -0.68684059326E+03  0.22972196351E+04  0.00000000000E+00 0.  1.
<mgrwt>
<rscale>  0 0.45142154E+04</rscale>
<asrwt>0</asrwt>
<pdfrwt beam="1">  1        1 0.32469429E+00 0.45142154E+04</pdfrwt>
<pdfrwt beam="2">  1       -1 0.37136690E+00 0.45142154E+04</pdfrwt>
<totfact> 0.21045829E-02</totfact>
</mgrwt>
</event>
<event>
 6    1  0.1603085E-006  0.2657367E+04  0.7818608E-02  0.8348972E-01
         -2   -1    0    0    0  501 -0.00000000000E+00  0.00000000000E+00  0.15005499624E+04  0.15005499624E+04  0.00000000000E+00 0.  1.
          2   -1    0    0  501    0  0.00000000000E+00 -0.00000000000E+00 -0.11765020639E+04  0.11765020639E+04  0.00000000000E+00 0. -1.
         23    2    1    2    0    0  0.91071334261E+03 -0.40950905813E+03  0.10428675770E+04  0.14466869621E+04  0.90740961056E+02 0.  0.
         13    1    3    3    0    0  0.31543775162E+03 -0.15280875253E+03  0.42800169319E+03  0.55320605508E+03  0.00000000000E+00 0. -1.
        -13    1    3    3    0    0  0.59527559099E+03 -0.25670030559E+03  0.61486588383E+03  0.89348090703E+03  0.00000000000E+00 0.  1.
         22    1    1    2    0    0 -0.91071334261E+03  0.40950905813E+03 -0.71881967850E+03  0.12303650642E+04  0.00000000000E+00 0.  1.
<mgrwt>
<rscale>  0 0.26573672E+04</rscale>
<asrwt>0</asrwt>
<pdfrwt beam="1">  1        2 0.18100032E+00 0.26573672E+04</pdfrwt>
<pdfrwt beam="2">  1       -2 0.23085384E+00 0.26573672E+04</pdfrwt>
<totfact> 0.14547190E+00</totfact>
</mgrwt>
</event>
<event>
 6    1  0.1603085E-006  0.2299529E+04  0.7818608E-02  0.8478107E-01
          2   -1    0    0  501    0  0.00000000000E+00  0.00000000000E+00  0.44864695155E+04  0.44864695155E+04  0.00000000000E+00 0. -1.
         -2   -1    0    0    0  501 -0.00000000000E+00 -0.00000000000E+00 -0.29465458656E+03  0.29465458656E+03  0.00000000000E+00 0.  1.
         23    2    1    2    0    0 -0.71676871924E+03 -0.50434415951E+03  0.36407054356E+04  0.37458260282E+04  0.91411906971E+02 0.  0.
         11    1    3    3    0    0 -0.44907993428E+03 -0.35420027915E+03  0.22373239069E+04  0.23092745375E+04  0.00000000000E+00 0. -1.
        -11    1    3    3    0    0 -0.26768878495E+03 -0.15014388036E+03  0.14033815287E+04  0.14365514907E+04  0.00000000000E+00 0.  1.
         22    1    1    2    0    0  0.71676871924E+03  0.50434415951E+03  0.55110949341E+03  0.10352980739E+04  0.00000000000E+00 0.  1.
<mgrwt>
<rscale>  0 0.22995294E+04</rscale>
<asrwt>0</asrwt>
<pdfrwt beam="1">  1        2 0.69022603E+00 0.22995294E+04</pdfrwt>
<pdfrwt beam="2">  1       -2 0.45331478E-01 0.22995294E+04</pdfrwt>
<totfact> 0.53590056E-01</totfact>
</mgrwt>
</event>
<event>
 6    1  0.1603085E-006  0.1935428E+04  0.7818608E-02  0.8637420E-01
         -1   -1    0    0    0  501 -0.00000000000E+00  0.00000000000E+00  0.47570316864E+03  0.47570316864E+03  0.00000000000E+00 0.  1.
          1   -1    0    0  501    0  0.00000000000E+00 -0.00000000000E+00 -0.19686019186E+04  0.19686019186E+04  0.00000000000E+00 0. -1.
         23    2    1    2    0    0 -0.54247441909E+03 -0.57422616041E+03 -0.48195153838E+02  0.79773815592E+03  0.10024576744E+03 0.  0.
         11    1    3    3    0    0 -0.48379548115E+03 -0.47978140260E+03 -0.14338075759E+02  0.68150850492E+03  0.00000000000E+00 0.  1.
        -11    1    3    3    0    0 -0.58678937940E+02 -0.94444757805E+02 -0.33857078079E+02  0.11622965100E+03  0.00000000000E+00 0. -1.
         22    1    1    2    0    0  0.54247441909E+03  0.57422616041E+03 -0.14447035961E+04  0.16465669313E+04  0.00000000000E+00 0. -1.
<mgrwt>
<rscale>  0 0.19354278E+04</rscale>
<asrwt>0</asrwt>
<pdfrwt beam="1">  1        1 0.30286183E+00 0.19354278E+04</pdfrwt>
<pdfrwt beam="2">  1       -1 0.73185103E-01 0.19354278E+04</pdfrwt>
<totfact> 0.54935947E+00</totfact>
</mgrwt>
</event>
<event>
 6    1  0.1603085E-006  0.6387631E+04  0.7818608E-02  0.7644114E-01
          2   -1    0    0  501    0  0.00000000000E+00  0.00000000000E+00  0.54837835447E+04  0.54837835447E+04  0.00000000000E+00 0. -1.
         -2   -1    0    0    0  501 -0.00000000000E+00 -0.00000000000E+00 -0.18601132372E+04  0.18601132372E+04  0.00000000000E+00 0.  1.
         23    2    1    2    0    0  0.22974330006E+04 -0.81154612715E+03 -0.56038264461E+03  0.25020887915E+04  0.98051535772E+02 0.  0.
         11    1    3    3    0    0  0.16107523769E+04 -0.52159832090E+03 -0.38229975058E+03  0.17357249573E+04  0.00000000000E+00 0.  1.
        -11    1    3    3    0    0  0.68668062368E+03 -0.28994780626E+03 -0.17808289404E+03  0.76636383425E+03  0.00000000000E+00 0. -1.
         22    1    1    2    0    0 -0.22974330006E+04  0.81154612715E+03  0.41840529521E+04  0.48418079903E+04  0.00000000000E+00 0. -1.
<mgrwt>
<rscale>  0 0.63876313E+04</rscale>
<asrwt>0</asrwt>
<pdfrwt beam="1">  1        2 0.84365900E+00 0.63876313E+04</pdfrwt>
<pdfrwt beam="2">  1       -2 0.28617127E+00 0.63876313E+04</pdfrwt>
<totfact> 0.15555117E-04</totfact>
</mgrwt>
</event>
<event>
 6    1  0.1603085E-006  0.4766252E+04  0.7818608E-02  0.7865613E-01
         -2   -1    0    0    0  501 -0.00000000000E+00  0.00000000000E+00  0.17896333603E+04  0.17896333603E+04  0.00000000000E+00 0.  1.
          2   -1    0    0  501    0  0.00000000000E+00 -0.00000000000E+00 -0.31734380952E+04  0.31734380952E+04  0.00000000000E+00 0. -1.
         23    2    1    2    0    0  0.21036970982E+04 -0.24453831699E+02 -0.18558442687E+04  0.28069265642E+04  0.92408418459E+02 0.  0.
         11    1    3    3    0    0  0.10305072822E+04 -0.44055285096E+01 -0.96979418241E+03  0.14150849528E+04  0.00000000000E+00 0.  1.
        -11    1    3    3    0    0  0.10731898160E+04 -0.20048303189E+02 -0.88605008632E+03  0.13918416114E+04  0.00000000000E+00 0. -1.
         22    1    1    2    0    0 -0.21036970982E+04  0.24453831699E+02  0.47203953382E+03  0.21561448914E+04  0.00000000000E+00 0.  1.
<mgrwt>
<rscale>  0 0.47662525E+04</rscale>
<asrwt>0</asrwt>
<pdfrwt beam="1">  1        2 0.48822124E+00 0.47662525E+04</pdfrwt>
<pdfrwt beam="2">  1       -2 0.27532821E+00 0.47662525E+04</pdfrwt>
<totfact> 0.44965698E-02</totfact>
</mgrwt>
</event>
<event>
 6    1  0.1603085E-006  0.2158869E+04  0.7818608E-02  0.8535746E-01
          1   -1    0    0  501    0  0.00000000000E+00  0.00000000000E+00  0.15142431528E+04  0.15142431528E+04  0.00000000000E+00 0. -1.
         -1   -1    0    0    0  501 -0.00000000000E+00 -0.00000000000E+00 -0.76947900920E+03  0.76947900920E+03  0.00000000000E+00 0.  1.
         23    2    1    2    0    0 -0.69788435582E+03  0.76377082819E+03  0.54670589760E+02  0.10400913626E+04  0.91720865203E+02 0.  0.
         11    1    3    3    0    0 -0.28232755930E+03  0.24504068515E+03  0.10910574474E+02  0.37399576034E+03  0.00000000000E+00 0.  1.
        -11    1    3    3    0    0 -0.41555679652E+03  0.51873014304E+03  0.43760015285E+02  0.66609560227E+03  0.00000000000E+00 0. -1.
         22    1    1    2    0    0  0.69788435582E+03 -0.76377082819E+03  0.69009355381E+03  0.12436307993E+04  0.00000000000E+00 0. -1.
<mgrwt>
<rscale>  0 0.21588685E+04</rscale>
<asrwt>0</asrwt>
<pdfrwt beam="1">  1        1 0.23296048E+00 0.21588685E+04</pdfrwt>
<pdfrwt beam="2">  1       -1 0.11838139E+00 0.21588685E+04</pdfrwt>
<totfact> 0.37446437E+00</totfact>
</mgrwt>
</event>
<event>
 6    1  0.1603085E-006  0.1015113E+04  0.7818608E-02  0.9292123E-01
          1   -1    0    0  501    0  0.00000000000E+00  0.00000000000E+00  0.10358611809E+04  0.10358611809E+04  0.00000000000E+00 0. -1.
         -1   -1    0    0    0  501 -0.00000000000E+00 -0.00000000000E+00 -0.24869486559E+03  0.24869486559E+03  0.00000000000E+00 0.  1.
         23    2    1    2    0    0 -0.58706143037E+02 -0.13025272415E+02  0.10292822879E+04  0.10350841781E+04  0.91439372166E+02 0.  0.
         13    1    3    3    0    0 -0.77869838073E+02  0.10780763601E+02  0.70759341368E+03  0.71194689102E+03  0.00000000000E+00 0.  1.
        -13    1    3    3    0    0  0.19163695036E+02 -0.23806036016E+02  0.32168887418E+03  0.32313728712E+03  0.00000000000E+00 0. -1.
         22    1    1    2    0    0  0.58706143037E+02  0.13025272415E+02 -0.24211597253E+03  0.24947186837E+03  0.00000000000E+00 0.  1.
<mgrwt>
<rscale>  0 0.10151125E+04</rscale>
<asrwt>0</asrwt>
<pdfrwt beam="1">  1        1 0.15936326E+00 0.10151125E+04</pdfrwt>
<pdfrwt beam="2">  1       -1 0.38260749E-01 0.10151125E+04</pdfrwt>
<totfact> 0.93811435E+01</totfact>
</mgrwt>
</event>
<event>
 6    1  0.1603085E-006  0.5558134E+04  0.7818608E-02  0.7747740E-01
          2   -1    0    0  501    0  0.00000000000E+00  0.00000000000E+00  0.32673416502E+04  0.32673416502E+04  0.00000000000E+00 0.  1.
         -2   -1    0    0    0  501 -0.00000000000E+00 -0.00000000000E+00 -0.23637607250E+04  0.23637607250E+04  0.00000000000E+00 0. -1.
         23    2    1    2    0    0  0.23427413176E+04  0.88320774770E+03  0.16720674368E+04  0.30121208317E+04  0.92572052688E+02 0.  0.
         11    1    3    3    0    0  0.80839014938E+03  0.26859859060E+03  0.53527334112E+03  0.10060603293E+04  0.00000000000E+00 0.  1.
        -11    1    3    3    0    0  0.15343511682E+04  0.61460915711E+03  0.11367940957E+04  0.20060605024E+04  0.00000000000E+00 0. -1.
         22    1    1    2    0    0 -0.23427413176E+04 -0.88320774770E+03 -0.76848651158E+03  0.26189815435E+04  0.00000000000E+00 0. -1.
<mgrwt>
<rscale>  0 0.55581342E+04</rscale>
<asrwt>0</asrwt>
<pdfrwt beam="1">  1        2 0.50266795E+00 0.55581342E+04</pdfrwt>
<pdfrwt beam="2">  1       -2 0.36365549E+00 0.55581342E+04</pdfrwt>
<totfact> 0.10387776E-02</totfact>
</mgrwt>
</event>
<event>
 6    1  0.1603085E-006  0.8120451E+03  0.7818608E-02  0.9542744E-01
          1   -1    0    0  501    0  0.00000000000E+00  0.00000000000E+00  0.29915964950E+04  0.29915964950E+04  0.00000000000E+00 0. -1.
         -1   -1    0    0    0  501 -0.00000000000E+00 -0.00000000000E+00 -0.55105801106E+02  0.55105801106E+02  0.00000000000E+00 0.  1.
         23    2    1    2    0    0  0.39536498243E+03 -0.50178304593E+02  0.16433278569E+04  0.16935203221E+04  0.93023141056E+02 0.  0.
         13    1    3    3    0    0  0.80377073182E+02  0.22963042617E+02  0.41540374824E+03  0.42373110491E+03  0.00000000000E+00 0.  1.
        -13    1    3    3    0    0  0.31498790925E+03 -0.73141347209E+02  0.12279241086E+04  0.12697892172E+04  0.00000000000E+00 0. -1.
         22    1    1    2    0    0 -0.39536498243E+03  0.50178304593E+02  0.12931628370E+04  0.13531819739E+04  0.00000000000E+00 0. -1.
<mgrwt>
<rscale>  0 0.81204513E+03</rscale>
<asrwt>0</asrwt>
<pdfrwt beam="1">  1        1 0.46024549E+00 0.81204513E+03</pdfrwt>
<pdfrwt beam="2">  1       -1 0.84778179E-02 0.81204513E+03</pdfrwt>
<totfact> 0.52087587E+01</totfact>
</mgrwt>
</event>
<event>
 6    1  0.1603085E-006  0.1369001E+04  0.7818608E-02  0.8976568E-01
         -2   -1    0    0    0  501 -0.00000000000E+00  0.00000000000E+00  0.48574210469E+03  0.48574210469E+03  0.00000000000E+00 0.  1.
          2   -1    0    0  501    0  0.00000000000E+00 -0.00000000000E+00 -0.96458788659E+03  0.96458788659E+03  0.00000000000E+00 0. -1.
         23    2    1    2    0    0 -0.31266730053E+03  0.60234129906E+03 -0.30623987524E+03  0.75006669766E+03  0.90781652221E+02 0.  0.
         13    1    3    3    0    0 -0.22793501243E+03  0.48643335748E+03 -0.27349789786E+03  0.60280418155E+03  0.00000000000E+00 0. -1.
        -13    1    3    3    0    0 -0.84732288103E+02  0.11590794159E+03 -0.32741977371E+02  0.14726251611E+03  0.00000000000E+00 0.  1.
         22    1    1    2    0    0  0.31266730053E+03 -0.60234129906E+03 -0.17260590666E+03  0.70026329362E+03  0.00000000000E+00 0.  1.
<mgrwt>
<rscale>  0 0.13690010E+04</rscale>
<asrwt>0</asrwt>
<pdfrwt beam="1">  1        2 0.14839814E+00 0.13690010E+04</pdfrwt>
<pdfrwt beam="2">  1       -2 0.74729555E-01 0.13690010E+04</pdfrwt>
<totfact> 0.41711245E+01</totfact>
</mgrwt>
</event>
<event>
 6    1  0.1603085E-006  0.2557031E+04  0.7818608E-02  0.8382945E-01
          3   -1    0    0  501    0  0.00000000000E+00  0.00000000000E+00  0.10568572118E+04  0.10568572118E+04  0.00000000000E+00 0. -1.
         -3   -1    0    0    0  501 -0.00000000000E+00 -0.00000000000E+00 -0.15466631710E+04  0.15466631710E+04  0.00000000000E+00 0.  1.
         23    2    1    2    0    0 -0.44708533545E+03 -0.84158764097E+03  0.62006642540E+03  0.11406561497E+04  0.91972959626E+02 0.  0.
         13    1    3    3    0    0 -0.24113427601E+03 -0.52175247237E+03  0.41077099184E+03  0.70647306334E+03  0.00000000000E+00 0. -1.
        -13    1    3    3    0    0 -0.20595105944E+03 -0.31983516860E+03  0.20929543356E+03  0.43418308634E+03  0.00000000000E+00 0.  1.
         22    1    1    2    0    0  0.44708533545E+03  0.84158764097E+03 -0.11098723846E+04  0.14628642332E+04  0.00000000000E+00 0.  1.
<mgrwt>
<rscale>  0 0.25570312E+04</rscale>
<asrwt>0</asrwt>
<pdfrwt beam="1">  1        3 0.16259342E+00 0.25570312E+04</pdfrwt>
<pdfrwt beam="2">  1       -3 0.23794818E+00 0.25570312E+04</pdfrwt>
<totfact> 0.52015879E-02</totfact>
</mgrwt>
</event>
<event>
 6    1  0.1603085E-006  0.1864279E+04  0.7818608E-02  0.8672844E-01
          2   -1    0    0  501    0  0.00000000000E+00  0.00000000000E+00  0.10168548997E+04  0.10168548997E+04  0.00000000000E+00 0. -1.
         -2   -1    0    0    0  501 -0.00000000000E+00 -0.00000000000E+00 -0.85448209218E+03  0.85448209218E+03  0.00000000000E+00 0.  1.
         23    2    1    2    0    0  0.73974987879E+03 -0.53493813339E+03  0.25948028958E+03  0.95328549399E+03  0.89635498760E+02 0.  0.
         11    1    3    3    0    0  0.37793393213E+03 -0.28658416849E+03  0.17990837023E+03  0.50727858654E+03  0.00000000000E+00 0.  1.
        -11    1    3    3    0    0  0.36181594666E+03 -0.24835396490E+03  0.79571919349E+02  0.44600690745E+03  0.00000000000E+00 0. -1.
         22    1    1    2    0    0 -0.73974987879E+03  0.53493813339E+03 -0.97107482041E+02  0.91805149790E+03  0.00000000000E+00 0. -1.
<mgrwt>
<rscale>  0 0.18642793E+04</rscale>
<asrwt>0</asrwt>
<pdfrwt beam="1">  1        2 0.15643922E+00 0.18642793E+04</pdfrwt>
<pdfrwt beam="2">  1       -2 0.13145878E+00 0.18642793E+04</pdfrwt>
<totfact> 0.97424487E+00</totfact>
</mgrwt>
</event>
<event>
 6    1  0.1603085E-006  0.1998662E+04  0.7818608E-02  0.8607247E-01
         -2   -1    0    0    0  501 -0.00000000000E+00  0.00000000000E+00  0.49301984511E+03  0.49301984511E+03  0.00000000000E+00 0.  1.
          2   -1    0    0  501    0  0.00000000000E+00 -0.00000000000E+00 -0.20256024593E+04  0.20256024593E+04  0.00000000000E+00 0. -1.
         23    2    1    2    0    0  0.93834291262E+03 -0.98893223011E+02 -0.36082137958E+03  0.10141982677E+04  0.90215115819E+02 0.  0.
         11    1    3    3    0    0  0.58162770410E+03 -0.10452397955E+03 -0.21658935455E+03  0.62938620654E+03  0.00000000000E+00 0.  1.
        -11    1    3    3    0    0  0.35671520851E+03  0.56307565371E+01 -0.14423202504E+03  0.38481206121E+03  0.00000000000E+00 0. -1.
         22    1    1    2    0    0 -0.93834291262E+03  0.98893223011E+02 -0.11717612347E+04  0.15044240367E+04  0.00000000000E+00 0.  1.
<mgrwt>
<rscale>  0 0.19986618E+04</rscale>
<asrwt>0</asrwt>
<pdfrwt beam="1">  1        2 0.31163115E+00 0.19986618E+04</pdfrwt>
<pdfrwt beam="2">  1       -2 0.75849206E-01 0.19986618E+04</pdfrwt>
<totfact> 0.93549548E+00</totfact>
</mgrwt>
</event>
<event>
 6    1  0.1603085E-006  0.2809244E+04  0.7818608E-02  0.8300404E-01
         -1   -1    0    0    0  501 -0.00000000000E+00  0.00000000000E+00  0.67707713752E+03  0.67707713752E+03  0.00000000000E+00 0.  1.
          1   -1    0    0  501    0  0.00000000000E+00 -0.00000000000E+00 -0.29139416890E+04  0.29139416890E+04  0.00000000000E+00 0. -1.
         23    2    1    2    0    0  0.67221928038E+03 -0.27600934896E+03  0.41477734274E+03  0.84160713367E+03  0.90567111901E+02 0.  0.
         11    1    3    3    0    0  0.47779639318E+03 -0.21809194680E+03  0.33863776663E+03  0.62492321735E+03  0.00000000000E+00 0.  1.
        -11    1    3    3    0    0  0.19442288720E+03 -0.57917402162E+02  0.76139576117E+02  0.21668391632E+03  0.00000000000E+00 0. -1.
         22    1    1    2    0    0 -0.67221928038E+03  0.27600934896E+03 -0.26516418942E+04  0.27494116928E+04  0.00000000000E+00 0. -1.
<mgrwt>
<rscale>  0 0.28092442E+04</rscale>
<asrwt>0</asrwt>
<pdfrwt beam="1">  1        1 0.44829873E+00 0.28092442E+04</pdfrwt>
<pdfrwt beam="2">  1       -1 0.10416571E+00 0.28092442E+04</pdfrwt>
<totfact> 0.51760494E-01</totfact>
</mgrwt>
</event>
<event>
 6    1  0.1603085E-006  0.2050589E+04  0.7818608E-02  0.8583327E-01
         -1   -1    0    0    0  501 -0.00000000000E+00  0.00000000000E+00  0.66753450231E+03  0.66753450231E+03  0.00000000000E+00 0.  1.
          1   -1    0    0  501    0  0.00000000000E+00 -0.00000000000E+00 -0.15747931311E+04  0.15747931311E+04  0.00000000000E+00 0. -1.
         23    2    1    2    0    0 -0.38566488563E+03  0.57128187451E+03  0.37247406613E+03  0.78877469162E+03  0.91258972361E+02 0.  0.
         13    1    3    3    0    0 -0.23463853661E+03  0.41945950910E+03  0.24351685270E+03  0.53879678932E+03  0.00000000000E+00 0. -1.
        -13    1    3    3    0    0 -0.15102634902E+03  0.15182236542E+03  0.12895721343E+03  0.24997790229E+03  0.00000000000E+00 0.  1.
         22    1    1    2    0    0  0.38566488563E+03 -0.57128187451E+03 -0.12797326950E+04  0.14535529418E+04  0.00000000000E+00 0. -1.
<mgrwt>
<rscale>  0 0.20505889E+04</rscale>
<asrwt>0</asrwt>
<pdfrwt beam="1">  1        1 0.24227586E+00 0.20505889E+04</pdfrwt>
<pdfrwt beam="2">  1       -1 0.10269762E+00 0.20505889E+04</pdfrwt>
<totfact> 0.48078207E+00</totfact>
</mgrwt>
</event>
<event>
 6    1  0.1603085E-006  0.9405156E+03  0.7818608E-02  0.9376306E-01
          1   -1    0    0  501    0  0.00000000000E+00  0.00000000000E+00  0.19507935589E+03  0.19507935589E+03  0.00000000000E+00 0. -1.
         -1   -1    0    0    0  501 -0.00000000000E+00 -0.00000000000E+00 -0.11336023468E+04  0.11336023468E+04  0.00000000000E+00 0.  1.
         23    2    1    2    0    0 -0.92692762208E+02 -0.26578803180E+03  0.50697856320E+02  0.30019100725E+03  0.91154496223E+02 0.  0.
         11    1    3    3    0    0 -0.53120252915E+01 -0.41202021458E+02 -0.23894575272E+02  0.47924679575E+02  0.00000000000E+00 0.  1.
        -11    1    3    3    0    0 -0.87380736916E+02 -0.22458601034E+03  0.74592431592E+02  0.25226632767E+03  0.00000000000E+00 0. -1.
         22    1    1    2    0    0  0.92692762208E+02  0.26578803180E+03 -0.98922084723E+03  0.10284906954E+04  0.00000000000E+00 0.  1.
<mgrwt>
<rscale>  0 0.94051564E+03</rscale>
<asrwt>0</asrwt>
<pdfrwt beam="1">  1        1 0.30012209E-01 0.94051564E+03</pdfrwt>
<pdfrwt beam="2">  1       -1 0.17440036E+00 0.94051564E+03</pdfrwt>
<totfact> 0.35373603E+01</totfact>
</mgrwt>
</event>
<event>
 6    1  0.1603085E-006  0.1874048E+04  0.7818608E-02  0.8667883E-01
         -2   -1    0    0    0  501 -0.00000000000E+00  0.00000000000E+00  0.50195091346E+03  0.50195091346E+03  0.00000000000E+00 0. -1.
          2   -1    0    0  501    0  0.00000000000E+00 -0.00000000000E+00 -0.17492020613E+04  0.17492020613E+04  0.00000000000E+00 0.  1.
         23    2    1    2    0    0  0.91918273770E+03  0.35041386045E+02 -0.82430688493E+03  0.12387268522E+04  0.94008349945E+02 0.  0.
         11    1    3    3    0    0  0.53032576534E+03  0.27830160558E+02 -0.53657007892E+03  0.75493535141E+03  0.00000000000E+00 0. -1.
        -11    1    3    3    0    0  0.38885697236E+03  0.72112254874E+01 -0.28773680601E+03  0.48379150082E+03  0.00000000000E+00 0.  1.
         22    1    1    2    0    0 -0.91918273770E+03 -0.35041386045E+02 -0.42294426289E+03  0.10124261225E+04  0.00000000000E+00 0. -1.
<mgrwt>
<rscale>  0 0.18740476E+04</rscale>
<asrwt>0</asrwt>
<pdfrwt beam="1">  1        2 0.26910801E+00 0.18740476E+04</pdfrwt>
<pdfrwt beam="2">  1       -2 0.77223218E-01 0.18740476E+04</pdfrwt>
<totfact> 0.12929159E+01</totfact>
</mgrwt>
</event>
<event>
 6    1  0.1603085E-006  0.2170692E+04  0.7818608E-02  0.8530727E-01
          2   -1    0    0  501    0  0.00000000000E+00  0.00000000000E+00  0.30379332819E+04  0.30379332819E+04  0.00000000000E+00 0. -1.
         -2   -1    0    0    0  501 -0.00000000000E+00 -0.00000000000E+00 -0.38775569783E+03  0.38775569783E+03  0.00000000000E+00 0.  1.
         23    2    1    2    0    0  0.60051516105E+03  0.86188533247E+03  0.90904720102E+03  0.13922190892E+04  0.91882499071E+02 0.  0.
         11    1    3    3    0    0  0.37438875083E+03  0.49074525456E+03  0.48476992605E+03  0.78485649824E+03  0.00000000000E+00 0. -1.
        -11    1    3    3    0    0  0.22612641021E+03  0.37114007791E+03  0.42427727496E+03  0.60736259095E+03  0.00000000000E+00 0.  1.
         22    1    1    2    0    0 -0.60051516105E+03 -0.86188533247E+03  0.17411303831E+04  0.20334698905E+04  0.00000000000E+00 0. -1.
<mgrwt>
<rscale>  0 0.21706920E+04</rscale>
<asrwt>0</asrwt>
<pdfrwt beam="1">  1        2 0.46737434E+00 0.21706920E+04</pdfrwt>
<pdfrwt beam="2">  1       -2 0.59654725E-01 0.21706920E+04</pdfrwt>
<totfact> 0.39647932E+00</totfact>
</mgrwt>
</event>
<event>
 6    1  0.1603085E-006  0.2849606E+04  0.7818608E-02  0.8288031E-01
          2   -1    0    0  501    0  0.00000000000E+00  0.00000000000E+00  0.19937496180E+04  0.19937496180E+04  0.00000000000E+00 0. -1.
         -2   -1    0    0    0  501 -0.00000000000E+00 -0.00000000000E+00 -0.10182135811E+04  0.10182135811E+04  0.00000000000E+00 0.  1.
         23    2    1    2    0    0 -0.10723104741E+04 -0.93571368048E+03  0.51157913048E+03  0.15150778142E+04  0.91311179561E+02 0.  0.
         11    1    3    3    0    0 -0.40685723007E+03 -0.30186348096E+03  0.20039077116E+03  0.54480347646E+03  0.00000000000E+00 0.  1.
        -11    1    3    3    0    0 -0.66545324405E+03 -0.63385019952E+03  0.31118835932E+03  0.97027433771E+03  0.00000000000E+00 0. -1.
         22    1    1    2    0    0  0.10723104741E+04  0.93571368048E+03  0.46395690639E+03  0.14968853850E+04  0.00000000000E+00 0. -1.
<mgrwt>
<rscale>  0 0.28496055E+04</rscale>
<asrwt>0</asrwt>
<pdfrwt beam="1">  1        2 0.30673071E+00 0.28496055E+04</pdfrwt>
<pdfrwt beam="2">  1       -2 0.15664824E+00 0.28496055E+04</pdfrwt>
<totfact> 0.15573464E+00</totfact>
</mgrwt>
</event>
<event>
 6    1  0.1603085E-006  0.6143424E+03  0.7818608E-02  0.9876089E-01
          2   -1    0    0  501    0  0.00000000000E+00  0.00000000000E+00  0.12533792988E+04  0.12533792988E+04  0.00000000000E+00 0.  1.
         -2   -1    0    0    0  501 -0.00000000000E+00 -0.00000000000E+00 -0.75279809959E+02  0.75279809959E+02  0.00000000000E+00 0. -1.
         23    2    1    2    0    0 -0.18147868059E+03  0.16063310818E+03  0.21784406825E+03  0.33829151048E+03  0.90816303804E+02 0.  0.
         11    1    3    3    0    0 -0.10522562066E+02  0.15965842520E+02  0.63470233873E+02  0.66288030803E+02  0.00000000000E+00 0.  1.
        -11    1    3    3    0    0 -0.17095611853E+03  0.14466726566E+03  0.15437383438E+03  0.27200347967E+03  0.00000000000E+00 0. -1.
         22    1    1    2    0    0  0.18147868059E+03 -0.16063310818E+03  0.96025542058E+03  0.99036759827E+03  0.00000000000E+00 0.  1.
<mgrwt>
<rscale>  0 0.61434243E+03</rscale>
<asrwt>0</asrwt>
<pdfrwt beam="1">  1        2 0.19282757E+00 0.61434243E+03</pdfrwt>
<pdfrwt beam="2">  1       -2 0.11581510E-01 0.61434243E+03</pdfrwt>
<totfact> 0.96216390E+02</totfact>
</mgrwt>
</event>
<event>
 6    1  0.1603085E-006  0.2141975E+04  0.7818608E-02  0.8542975E-01
         -2   -1    0    0    0  501 -0.00000000000E+00  0.00000000000E+00  0.56648410548E+03  0.56648410548E+03  0.00000000000E+00 0.  1.
          2   -1    0    0  501    0  0.00000000000E+00 -0.00000000000E+00 -0.20247953441E+04  0.20247953441E+04  0.00000000000E+00 0. -1.
         23    2    1    2    0    0 -0.26422942225E+03 -0.94923600927E+03 -0.12321554022E+04  0.15803330360E+04  0.91538956231E+02 0.  0.
         13    1    3    3    0    0 -0.81584327573E+02 -0.30937401360E+03 -0.47004929428E+03  0.56860761677E+03  0.00000000000E+00 0.  1.
        -13    1    3    3    0    0 -0.18264509467E+03 -0.63986199566E+03 -0.76210610795E+03  0.10117254192E+04  0.00000000000E+00 0. -1.
         22    1    1    2    0    0  0.26422942225E+03  0.94923600927E+03 -0.22615583641E+03  0.10109464136E+04  0.00000000000E+00 0.  1.
<mgrwt>
<rscale>  0 0.21419751E+04</rscale>
<asrwt>0</asrwt>
<pdfrwt beam="1">  1        2 0.31150698E+00 0.21419751E+04</pdfrwt>
<pdfrwt beam="2">  1       -2 0.87151401E-01 0.21419751E+04</pdfrwt>
<totfact> 0.67635463E+00</totfact>
</mgrwt>
</event>
<event>
 6    1  0.1603085E-006  0.2186387E+04  0.7818608E-02  0.8524116E-01
          2   -1    0    0  501    0  0.00000000000E+00  0.00000000000E+00  0.31559688219E+04  0.31559688219E+04  0.00000000000E+00 0. -1.
         -2   -1    0    0    0  501 -0.00000000000E+00 -0.00000000000E+00 -0.37867027942E+03  0.37867027942E+03  0.00000000000E+00 0.  1.
         23    2    1    2    0    0 -0.39844940931E+02 -0.26397428727E+03  0.31017111970E+04  0.31145038683E+04  0.90840259142E+02 0.  0.
         13    1    3    3    0    0 -0.42481361815E+02 -0.59453001126E+02  0.59701672332E+03  0.60147177272E+03  0.00000000000E+00 0.  1.
        -13    1    3    3    0    0  0.26364208840E+01 -0.20452128615E+03  0.25046944737E+04  0.25130320956E+04  0.00000000000E+00 0. -1.
         22    1    1    2    0    0  0.39844940931E+02  0.26397428727E+03 -0.32441265446E+03  0.42013523303E+03  0.00000000000E+00 0.  1.
<mgrwt>
<rscale>  0 0.21863866E+04</rscale>
<asrwt>0</asrwt>
<pdfrwt beam="1">  1        2 0.48553365E+00 0.21863866E+04</pdfrwt>
<pdfrwt beam="2">  1       -2 0.58256968E-01 0.21863866E+04</pdfrwt>
<totfact> 0.35000866E+00</totfact>
</mgrwt>
</event>
<event>
 6    1  0.1603085E-006  0.1147094E+04  0.7818608E-02  0.9160468E-01
         -2   -1    0    0    0  501 -0.00000000000E+00  0.00000000000E+00  0.13329801438E+03  0.13329801438E+03  0.00000000000E+00 0.  1.
          2   -1    0    0  501    0  0.00000000000E+00 -0.00000000000E+00 -0.24678266638E+04  0.24678266638E+04  0.00000000000E+00 0. -1.
         23    2    1    2    0    0  0.92781272559E+02 -0.86116119659E+02 -0.24347072435E+04  0.24396932645E+04  0.90991828459E+02 0.  0.
         11    1    3    3    0    0  0.97195836944E+02 -0.10016836744E+03 -0.20780406239E+04  0.20827226333E+04  0.00000000000E+00 0. -1.
        -11    1    3    3    0    0 -0.44145643857E+01  0.14052247784E+02 -0.35666661961E+03  0.35697063127E+03  0.00000000000E+00 0.  1.
         22    1    1    2    0    0 -0.92781272559E+02  0.86116119659E+02  0.10017859407E+03  0.16143141365E+03  0.00000000000E+00 0.  1.
<mgrwt>
<rscale>  0 0.11470944E+04</rscale>
<asrwt>0</asrwt>
<pdfrwt beam="1">  1        2 0.37966558E+00 0.11470944E+04</pdfrwt>
<pdfrwt beam="2">  1       -2 0.20507390E-01 0.11470944E+04</pdfrwt>
<totfact> 0.74099409E+01</totfact>
</mgrwt>
</event>
<event>
 6    1  0.1603085E-006  0.3599669E+04  0.7818608E-02  0.8090568E-01
          2   -1    0    0  501    0  0.00000000000E+00  0.00000000000E+00  0.26789085982E+04  0.26789085982E+04  0.00000000000E+00 0. -1.
         -2   -1    0    0    0  501 -0.00000000000E+00 -0.00000000000E+00 -0.12092251504E+04  0.12092251504E+04  0.00000000000E+00 0.  1.
         23    2    1    2    0    0  0.17426290596E+04  0.44038535728E+03  0.81283369701E+03  0.19744600832E+04  0.84253777679E+02 0.  0.
         11    1    3    3    0    0  0.10869919541E+03  0.48102111986E+02  0.47234761597E+02  0.12790797850E+03  0.00000000000E+00 0. -1.
        -11    1    3    3    0    0  0.16339298642E+04  0.39228324529E+03  0.76559893541E+03  0.18465521047E+04  0.00000000000E+00 0.  1.
         22    1    1    2    0    0 -0.17426290596E+04 -0.44038535728E+03  0.65684975085E+03  0.19136736654E+04  0.00000000000E+00 0. -1.
<mgrwt>
<rscale>  0 0.35996687E+04</rscale>
<asrwt>0</asrwt>
<pdfrwt beam="1">  1        2 0.41213978E+00 0.35996687E+04</pdfrwt>
<pdfrwt beam="2">  1       -2 0.18603464E+00 0.35996687E+04</pdfrwt>
<totfact> 0.36719172E-01</totfact>
</mgrwt>
</event>
<event>
 6    1  0.1603085E-006  0.6497752E+03  0.7818608E-02  0.9807201E-01
         -2   -1    0    0    0  501 -0.00000000000E+00  0.00000000000E+00  0.15647178304E+03  0.15647178304E+03  0.00000000000E+00 0.  1.
          2   -1    0    0  501    0  0.00000000000E+00 -0.00000000000E+00 -0.67457504550E+03  0.67457504550E+03  0.00000000000E+00 0. -1.
         23    2    1    2    0    0 -0.61664568535E+02  0.23135775848E+03 -0.53084734130E+03  0.59127330422E+03  0.10235374490E+03 0.  0.
         11    1    3    3    0    0 -0.30621941198E+02  0.93830098865E+02 -0.33974473319E+03  0.35379128659E+03  0.00000000000E+00 0. -1.
        -11    1    3    3    0    0 -0.31042627337E+02  0.13752765962E+03 -0.19110260811E+03  0.23748201763E+03  0.00000000000E+00 0.  1.
         22    1    1    2    0    0  0.61664568535E+02 -0.23135775848E+03  0.12744078839E+02  0.23977352433E+03  0.00000000000E+00 0.  1.
<mgrwt>
<rscale>  0 0.64977522E+03</rscale>
<asrwt>0</asrwt>
<pdfrwt beam="1">  1        2 0.10378078E+00 0.64977522E+03</pdfrwt>
<pdfrwt beam="2">  1       -2 0.24072582E-01 0.64977522E+03</pdfrwt>
<totfact> 0.66257323E+02</totfact>
</mgrwt>
</event>
<event>
 6    1  0.1603085E-006  0.3291672E+04  0.7818608E-02  0.8165018E-01
         -1   -1    0    0    0  501 -0.00000000000E+00  0.00000000000E+00  0.11135285736E+04  0.11135285736E+04  0.00000000000E+00 0.  1.
          1   -1    0    0  501    0  0.00000000000E+00 -0.00000000000E+00 -0.24326058852E+04  0.24326058852E+04  0.00000000000E+00 0. -1.
         23    2    1    2    0    0 -0.15735642129E+04  0.31849009980E+03 -0.10446449224E+04  0.19173762164E+04  0.86650249501E+02 0.  0.
         11    1    3    3    0    0 -0.80783986930E+03  0.19842729404E+03 -0.57238170899E+03  0.10097521806E+04  0.00000000000E+00 0.  1.
        -11    1    3    3    0    0 -0.76572434360E+03  0.12006280576E+03 -0.47226321336E+03  0.90762403582E+03  0.00000000000E+00 0. -1.
         22    1    1    2    0    0  0.15735642129E+04 -0.31849009980E+03 -0.27443238924E+03  0.16287582424E+04  0.00000000000E+00 0.  1.
<mgrwt>
<rscale>  0 0.32916720E+04</rscale>
<asrwt>0</asrwt>
<pdfrwt beam="1">  1        1 0.37424706E+00 0.32916720E+04</pdfrwt>
<pdfrwt beam="2">  1       -1 0.17131209E+00 0.32916720E+04</pdfrwt>
<totfact> 0.30132394E-01</totfact>
</mgrwt>
</event>
<event>
 6    1  0.1603085E-006  0.3239501E+04  0.7818608E-02  0.8178462E-01
          1   -1    0    0  501    0  0.00000000000E+00  0.00000000000E+00  0.21764928736E+04  0.21764928736E+04  0.00000000000E+00 0. -1.
         -1   -1    0    0    0  501 -0.00000000000E+00 -0.00000000000E+00 -0.12054218181E+04  0.12054218181E+04  0.00000000000E+00 0.  1.
         23    2    1    2    0    0  0.66289523642E+03  0.29861338152E+03  0.19954569691E+04  0.21257433076E+04  0.91301962248E+02 0.  0.
         13    1    3    3    0    0  0.25642094456E+03  0.10603748681E+03  0.89113328901E+03  0.93333498178E+03  0.00000000000E+00 0.  1.
        -13    1    3    3    0    0  0.40647429186E+03  0.19257589471E+03  0.11043236801E+04  0.11924083259E+04  0.00000000000E+00 0. -1.
         22    1    1    2    0    0 -0.66289523642E+03 -0.29861338152E+03 -0.10243859136E+04  0.12561713840E+04  0.00000000000E+00 0.  1.
<mgrwt>
<rscale>  0 0.32395012E+04</rscale>
<asrwt>0</asrwt>
<pdfrwt beam="1">  1        1 0.33484506E+00 0.32395012E+04</pdfrwt>
<pdfrwt beam="2">  1       -1 0.18544951E+00 0.32395012E+04</pdfrwt>
<totfact> 0.35861643E-01</totfact>
</mgrwt>
</event>
<event>
 6    1  0.1603085E-006  0.2473967E+04  0.7818608E-02  0.8412319E-01
          1   -1    0    0  501    0  0.00000000000E+00  0.00000000000E+00  0.11678894496E+04  0.11678894496E+04  0.00000000000E+00 0. -1.
         -1   -1    0    0    0  501 -0.00000000000E+00 -0.00000000000E+00 -0.13101650824E+04  0.13101650824E+04  0.00000000000E+00 0.  1.
         23    2    1    2    0    0  0.71393003380E+03  0.78171636198E+03 -0.70882246303E+03  0.12773248062E+04  0.91393723728E+02 0.  0.
         13    1    3    3    0    0  0.13382654656E+03  0.13234805048E+03 -0.87055216607E+02  0.20737444820E+03  0.00000000000E+00 0.  1.
        -13    1    3    3    0    0  0.58010348724E+03  0.64936831150E+03 -0.62176724643E+03  0.10699503580E+04  0.00000000000E+00 0. -1.
         22    1    1    2    0    0 -0.71393003380E+03 -0.78171636198E+03  0.56654683023E+03  0.12007297259E+04  0.00000000000E+00 0. -1.
<mgrwt>
<rscale>  0 0.24739668E+04</rscale>
<asrwt>0</asrwt>
<pdfrwt beam="1">  1        1 0.17967530E+00 0.24739668E+04</pdfrwt>
<pdfrwt beam="2">  1       -1 0.20156386E+00 0.24739668E+04</pdfrwt>
<totfact> 0.14749559E+00</totfact>
</mgrwt>
</event>
<event>
 6    1  0.1603085E-006  0.1102316E+04  0.7818608E-02  0.9202938E-01
         -2   -1    0    0    0  501 -0.00000000000E+00  0.00000000000E+00  0.41061215125E+03  0.41061215125E+03  0.00000000000E+00 0. -1.
          2   -1    0    0  501    0  0.00000000000E+00 -0.00000000000E+00 -0.73980983136E+03  0.73980983136E+03  0.00000000000E+00 0.  1.
         23    2    1    2    0    0 -0.22392068683E+03  0.21628452144E+03 -0.63576195092E+03  0.71349965502E+03  0.89269430757E+02 0.  0.
         13    1    3    3    0    0 -0.18982990527E+03  0.15034973577E+03 -0.41371858342E+03  0.47937824549E+03  0.00000000000E+00 0. -1.
        -13    1    3    3    0    0 -0.34090781558E+02  0.65934785673E+02 -0.22204336750E+03  0.23412140953E+03  0.00000000000E+00 0.  1.
         22    1    1    2    0    0  0.22392068683E+03 -0.21628452144E+03  0.30656427081E+03  0.43692232759E+03  0.00000000000E+00 0. -1.
<mgrwt>
<rscale>  0 0.11023156E+04</rscale>
<asrwt>0</asrwt>
<pdfrwt beam="1">  1        2 0.11381690E+00 0.11023156E+04</pdfrwt>
<pdfrwt beam="2">  1       -2 0.63171100E-01 0.11023156E+04</pdfrwt>
<totfact> 0.87994193E+01</totfact>
</mgrwt>
</event>
<event>
 6    1  0.1603085E-006  0.2135682E+04  0.7818608E-02  0.8545686E-01
         -2   -1    0    0    0  501 -0.00000000000E+00  0.00000000000E+00  0.78254930017E+03  0.78254930017E+03  0.00000000000E+00 0.  1.
          2   -1    0    0  501    0  0.00000000000E+00 -0.00000000000E+00 -0.14571406449E+04  0.14571406449E+04  0.00000000000E+00 0. -1.
         23    2    1    2    0    0 -0.16209734541E+03  0.96068702472E+03  0.11553136846E+03  0.98530204225E+03  0.90980814015E+02 0.  0.
         13    1    3    3    0    0 -0.14478700960E+03  0.59799182041E+03  0.64981615615E+02  0.61869225452E+03  0.00000000000E+00 0.  1.
        -13    1    3    3    0    0 -0.17310335809E+02  0.36269520430E+03  0.50549752849E+02  0.36660978773E+03  0.00000000000E+00 0. -1.
         22    1    1    2    0    0  0.16209734541E+03 -0.96068702472E+03 -0.79012271320E+03  0.12543879028E+04  0.00000000000E+00 0.  1.
<mgrwt>
<rscale>  0 0.21356820E+04</rscale>
<asrwt>0</asrwt>
<pdfrwt beam="1">  1        2 0.22417548E+00 0.21356820E+04</pdfrwt>
<pdfrwt beam="2">  1       -2 0.12039220E+00 0.21356820E+04</pdfrwt>
<totfact> 0.64980166E+00</totfact>
</mgrwt>
</event>
<event>
 6    1  0.1603085E-006  0.3322773E+04  0.7818608E-02  0.8157125E-01
          2   -1    0    0  501    0  0.00000000000E+00  0.00000000000E+00  0.15886670025E+04  0.15886670025E+04  0.00000000000E+00 0. -1.
         -2   -1    0    0    0  501 -0.00000000000E+00 -0.00000000000E+00 -0.17374348756E+04  0.17374348756E+04  0.00000000000E+00 0.  1.
         23    2    1    2    0    0 -0.80491314676E+02  0.85697780298E+03  0.13460902239E+04  0.16011408534E+04  0.10393909285E+03 0.  0.
         11    1    3    3    0    0 -0.54303149754E+02  0.51948479822E+03  0.90796032267E+03  0.10474756490E+04  0.00000000000E+00 0. -1.
        -11    1    3    3    0    0 -0.26188164923E+02  0.33749300476E+03  0.43812990126E+03  0.55366520445E+03  0.00000000000E+00 0.  1.
         22    1    1    2    0    0  0.80491314676E+02 -0.85697780298E+03 -0.14948580970E+04  0.17249610247E+04  0.00000000000E+00 0.  1.
<mgrwt>
<rscale>  0 0.33227732E+04</rscale>
<asrwt>0</asrwt>
<pdfrwt beam="1">  1        2 0.24441031E+00 0.33227732E+04</pdfrwt>
<pdfrwt beam="2">  1       -2 0.26729767E+00 0.33227732E+04</pdfrwt>
<totfact> 0.47494839E-01</totfact>
</mgrwt>
</event>
<event>
 6    1  0.1603085E-006  0.1851119E+04  0.7818608E-02  0.8679577E-01
          1   -1    0    0  501    0  0.00000000000E+00  0.00000000000E+00  0.12402751710E+04  0.12402751710E+04  0.00000000000E+00 0. -1.
         -1   -1    0    0    0  501 -0.00000000000E+00 -0.00000000000E+00 -0.69070221072E+03  0.69070221072E+03  0.00000000000E+00 0.  1.
         23    2    1    2    0    0  0.19520679264E+02  0.85901747367E+03  0.62812601375E+03  0.10681548860E+04  0.90113784941E+02 0.  0.
         11    1    3    3    0    0  0.38584564683E+02  0.22456351489E+03  0.13998647834E+03  0.26742055824E+03  0.00000000000E+00 0. -1.
        -11    1    3    3    0    0 -0.19063885419E+02  0.63445395878E+03  0.48813953542E+03  0.80073432771E+03  0.00000000000E+00 0.  1.
         22    1    1    2    0    0 -0.19520679264E+02 -0.85901747367E+03 -0.78553053477E+02  0.86282249577E+03  0.00000000000E+00 0.  1.
<mgrwt>
<rscale>  0 0.18511194E+04</rscale>
<asrwt>0</asrwt>
<pdfrwt beam="1">  1        1 0.19081156E+00 0.18511194E+04</pdfrwt>
<pdfrwt beam="2">  1       -1 0.10626188E+00 0.18511194E+04</pdfrwt>
<totfact> 0.77692549E+00</totfact>
</mgrwt>
</event>
<event>
 6    1  0.1603085E-006  0.1817973E+04  0.7818608E-02  0.8696800E-01
          2   -1    0    0  501    0  0.00000000000E+00  0.00000000000E+00  0.12959399758E+04  0.12959399758E+04  0.00000000000E+00 0. -1.
         -2   -1    0    0    0  501 -0.00000000000E+00 -0.00000000000E+00 -0.63757306986E+03  0.63757306986E+03  0.00000000000E+00 0.  1.
         23    2    1    2    0    0 -0.11378242748E+03 -0.19224215733E+03 -0.60457892933E+03  0.65096259024E+03  0.91285947677E+02 0.  0.
         11    1    3    3    0    0 -0.50965268477E+02 -0.35856514806E+02 -0.26019832352E+03  0.26755619187E+03  0.00000000000E+00 0. -1.
        -11    1    3    3    0    0 -0.62817158998E+02 -0.15638564253E+03 -0.34438060581E+03  0.38340639837E+03  0.00000000000E+00 0.  1.
         22    1    1    2    0    0  0.11378242748E+03  0.19224215733E+03  0.12629458353E+04  0.12825504555E+04  0.00000000000E+00 0. -1.
<mgrwt>
<rscale>  0 0.18179730E+04</rscale>
<asrwt>0</asrwt>
<pdfrwt beam="1">  1        2 0.19937538E+00 0.18179730E+04</pdfrwt>
<pdfrwt beam="2">  1       -2 0.98088165E-01 0.18179730E+04</pdfrwt>
<totfact> 0.13549596E+01</totfact>
</mgrwt>
</event>
<event>
 6    1  0.1603085E-006  0.2180430E+04  0.7818608E-02  0.8526618E-01
          1   -1    0    0  501    0  0.00000000000E+00  0.00000000000E+00  0.10206694423E+04  0.10206694423E+04  0.00000000000E+00 0. -1.
         -1   -1    0    0    0  501 -0.00000000000E+00 -0.00000000000E+00 -0.11644994442E+04  0.11644994442E+04  0.00000000000E+00 0.  1.
         23    2    1    2    0    0  0.77572762624E+02 -0.23992973771E+03  0.98897809496E+03  0.10246353898E+04  0.90643240758E+02 0.  0.
         11    1    3    3    0    0 -0.29410726363E+00 -0.93894164609E+02  0.24276832020E+03  0.26029340741E+03  0.00000000000E+00 0. -1.
        -11    1    3    3    0    0  0.77866869888E+02 -0.14603557310E+03  0.74620977476E+03  0.76434198235E+03  0.00000000000E+00 0.  1.
         22    1    1    2    0    0 -0.77572762624E+02  0.23992973771E+03 -0.11328080969E+04  0.11605334967E+04  0.00000000000E+00 0.  1.
<mgrwt>
<rscale>  0 0.21804302E+04</rscale>
<asrwt>0</asrwt>
<pdfrwt beam="1">  1        1 0.15702607E+00 0.21804302E+04</pdfrwt>
<pdfrwt beam="2">  1       -1 0.17915376E+00 0.21804302E+04</pdfrwt>
<totfact> 0.28102771E+00</totfact>
</mgrwt>
</event>
<event>
 6    1  0.1603085E-006  0.1287875E+04  0.7818608E-02  0.9039236E-01
         -2   -1    0    0    0  501 -0.00000000000E+00  0.00000000000E+00  0.52664269568E+03  0.52664269568E+03  0.00000000000E+00 0.  1.
          2   -1    0    0  501    0  0.00000000000E+00 -0.00000000000E+00 -0.78735662622E+03  0.78735662622E+03  0.00000000000E+00 0. -1.
         23    2    1    2    0    0 -0.19032076534E+03 -0.32012007258E+03  0.40089845216E+03  0.55476958096E+03  0.91383064209E+02 0.  0.
         11    1    3    3    0    0 -0.19309122233E+03 -0.26322550822E+03  0.33795208821E+03  0.46987604987E+03  0.00000000000E+00 0.  1.
        -11    1    3    3    0    0  0.27704569896E+01 -0.56894564365E+02  0.62946363948E+02  0.84893531088E+02  0.00000000000E+00 0. -1.
         22    1    1    2    0    0  0.19032076534E+03  0.32012007258E+03 -0.66161238270E+03  0.75922974095E+03  0.00000000000E+00 0. -1.
<mgrwt>
<rscale>  0 0.12878752E+04</rscale>
<asrwt>0</asrwt>
<pdfrwt beam="1">  1        2 0.12113179E+00 0.12878752E+04</pdfrwt>
<pdfrwt beam="2">  1       -2 0.81021954E-01 0.12878752E+04</pdfrwt>
<totfact> 0.46382893E+01</totfact>
</mgrwt>
</event>
<event>
 6    1  0.1603085E-006  0.1006128E+04  0.7818608E-02  0.9301850E-01
         -1   -1    0    0    0  501 -0.00000000000E+00  0.00000000000E+00  0.20823764643E+03  0.20823764643E+03  0.00000000000E+00 0.  1.
          1   -1    0    0  501    0  0.00000000000E+00 -0.00000000000E+00 -0.12153095503E+04  0.12153095503E+04  0.00000000000E+00 0. -1.
         23    2    1    2    0    0  0.44348354640E+03 -0.22695670833E+03 -0.54787046659E+03  0.74601272278E+03  0.90476134966E+02 0.  0.
         11    1    3    3    0    0  0.26673746989E+03 -0.85994170452E+02 -0.30229477599E+03  0.41222082285E+03  0.00000000000E+00 0.  1.
        -11    1    3    3    0    0  0.17674607651E+03 -0.14096253788E+03 -0.24557569060E+03  0.33379189994E+03  0.00000000000E+00 0. -1.
         22    1    1    2    0    0 -0.44348354640E+03  0.22695670833E+03 -0.45920143727E+03  0.67753447394E+03  0.00000000000E+00 0.  1.
<mgrwt>
<rscale>  0 0.10061276E+04</rscale>
<asrwt>0</asrwt>
<pdfrwt beam="1">  1        1 0.18697070E+00 0.10061276E+04</pdfrwt>
<pdfrwt beam="2">  1       -1 0.32036562E-01 0.10061276E+04</pdfrwt>
<totfact> 0.94742705E+01</totfact>
</mgrwt>
</event>
<event>
 6    1  0.1603085E-006  0.1930292E+04  0.7818608E-02  0.8639923E-01
          2   -1    0    0  501    0  0.00000000000E+00  0.00000000000E+00  0.19892200179E+04  0.19892200179E+04  0.00000000000E+00 0. -1.
         -2   -1    0    0    0  501 -0.00000000000E+00 -0.00000000000E+00 -0.46827736709E+03  0.46827736709E+03  0.00000000000E+00 0.  1.
         23    2    1    2    0    0 -0.41582884621E+03  0.85254115634E+03  0.54711842514E+03  0.10980586497E+04  0.81573122871E+02 0.  0.
         13    1    3    3    0    0 -0.27458962240E+03  0.63287889193E+03  0.37398234976E+03  0.78472794681E+03  0.00000000000E+00 0.  1.
        -13    1    3    3    0    0 -0.14123922382E+03  0.21966226442E+03  0.17313607539E+03  0.31333070286E+03  0.00000000000E+00 0. -1.
         22    1    1    2    0    0  0.41582884621E+03 -0.85254115634E+03  0.97382422568E+03  0.13594387353E+04  0.00000000000E+00 0. -1.
<mgrwt>
<rscale>  0 0.19302919E+04</rscale>
<asrwt>0</asrwt>
<pdfrwt beam="1">  1        2 0.30603384E+00 0.19302919E+04</pdfrwt>
<pdfrwt beam="2">  1       -2 0.72042673E-01 0.19302919E+04</pdfrwt>
<totfact> 0.11045040E+01</totfact>
</mgrwt>
</event>
<event>
 6    1  0.1603085E-006  0.2873466E+04  0.7818608E-02  0.8280816E-01
         -2   -1    0    0    0  501 -0.00000000000E+00  0.00000000000E+00  0.80030878671E+03  0.80030878671E+03  0.00000000000E+00 0.  1.
          2   -1    0    0  501    0  0.00000000000E+00 -0.00000000000E+00 -0.25792566159E+04  0.25792566159E+04  0.00000000000E+00 0. -1.
         23    2    1    2    0    0 -0.12816583217E+04  0.58560793931E+03 -0.56956974677E+03  0.15226378169E+04  0.91823270466E+02 0.  0.
         11    1    3    3    0    0 -0.87851791040E+03  0.35413473401E+03 -0.37829896371E+03  0.10199584475E+04  0.00000000000E+00 0.  1.
        -11    1    3    3    0    0 -0.40314041129E+03  0.23147320529E+03 -0.19127078306E+03  0.50267936942E+03  0.00000000000E+00 0. -1.
         22    1    1    2    0    0  0.12816583217E+04 -0.58560793931E+03 -0.12093780824E+04  0.18569275856E+04  0.00000000000E+00 0. -1.
<mgrwt>
<rscale>  0 0.28734660E+04</rscale>
<asrwt>0</asrwt>
<pdfrwt beam="1">  1        2 0.39680871E+00 0.28734660E+04</pdfrwt>
<pdfrwt beam="2">  1       -2 0.12312443E+00 0.28734660E+04</pdfrwt>
<totfact> 0.13477591E+00</totfact>
</mgrwt>
</event>
<event>
 6    1  0.1636469E-006  0.2976975E+04  0.7818608E-02  0.8250336E-01
          2   -1    0    0  501    0  0.00000000000E+00  0.00000000000E+00  0.12136851396E+04  0.12136851396E+04  0.00000000000E+00 0. -1.
         -2   -1    0    0    0  501 -0.00000000000E+00 -0.00000000000E+00 -0.18255106925E+04  0.18255106925E+04  0.00000000000E+00 0.  1.
         23    2    1    2    0    0 -0.10161836492E+04  0.27878103396E+03  0.76592883574E+03  0.13046771008E+04  0.72022788274E+02 0.  0.
         13    1    3    3    0    0 -0.60856976754E+03  0.16209430014E+03  0.50066001933E+03  0.80454470295E+03  0.00000000000E+00 0. -1.
        -13    1    3    3    0    0 -0.40761388166E+03  0.11668673382E+03  0.26526881641E+03  0.50013239780E+03  0.00000000000E+00 0.  1.
         22    1    1    2    0    0  0.10161836492E+04 -0.27878103396E+03 -0.13777543887E+04  0.17345187313E+04  0.00000000000E+00 0.  1.
<mgrwt>
<rscale>  0 0.29769751E+04</rscale>
<asrwt>0</asrwt>
<pdfrwt beam="1">  1        2 0.18672079E+00 0.29769751E+04</pdfrwt>
<pdfrwt beam="2">  1       -2 0.28084780E+00 0.29769751E+04</pdfrwt>
<totfact> 0.66336016E-01</totfact>
</mgrwt>
</event>
<event>
 6    1  0.1603085E-006  0.2766187E+04  0.7818608E-02  0.8313843E-01
         -2   -1    0    0    0  501 -0.00000000000E+00  0.00000000000E+00  0.58657248221E+03  0.58657248221E+03  0.00000000000E+00 0.  1.
          2   -1    0    0  501    0  0.00000000000E+00 -0.00000000000E+00 -0.32612305927E+04  0.32612305927E+04  0.00000000000E+00 0. -1.
         23    2    1    2    0    0 -0.33587808976E+03 -0.37490057551E+03 -0.31285120345E+04  0.31700509690E+04  0.90945385078E+02 0.  0.
         13    1    3    3    0    0 -0.10614355137E+03 -0.15403167246E+03 -0.93714911106E+03  0.95563626238E+03  0.00000000000E+00 0. -1.
        -13    1    3    3    0    0 -0.22973453839E+03 -0.22086890305E+03 -0.21913629235E+04  0.22144147066E+04  0.00000000000E+00 0.  1.
         22    1    1    2    0    0  0.33587808976E+03  0.37490057551E+03  0.45385392404E+03  0.67775210591E+03  0.00000000000E+00 0.  1.
<mgrwt>
<rscale>  0 0.27661874E+04</rscale>
<asrwt>0</asrwt>
<pdfrwt beam="1">  1        2 0.50172778E+00 0.27661874E+04</pdfrwt>
<pdfrwt beam="2">  1       -2 0.90241921E-01 0.27661874E+04</pdfrwt>
<totfact> 0.10828911E+00</totfact>
</mgrwt>
</event>
<event>
 6    1  0.1603085E-006  0.1590791E+04  0.7818608E-02  0.8826226E-01
          2   -1    0    0  501    0  0.00000000000E+00  0.00000000000E+00  0.17373362358E+04  0.17373362358E+04  0.00000000000E+00 0. -1.
         -2   -1    0    0    0  501 -0.00000000000E+00 -0.00000000000E+00 -0.36415155639E+03  0.36415155639E+03  0.00000000000E+00 0.  1.
         23    2    1    2    0    0 -0.55359111777E+03  0.83862423643E+02  0.14303123533E+04  0.15386737884E+04  0.90705939255E+02 0.  0.
         11    1    3    3    0    0 -0.45677729450E+03  0.10365193504E+03  0.11799706206E+04  0.12695353032E+04  0.00000000000E+00 0.  1.
        -11    1    3    3    0    0 -0.96813823263E+02 -0.19789511402E+02  0.25034173263E+03  0.26913848523E+03  0.00000000000E+00 0. -1.
         22    1    1    2    0    0  0.55359111777E+03 -0.83862423643E+02 -0.57127673842E+02  0.56281400381E+03  0.00000000000E+00 0.  1.
<mgrwt>
<rscale>  0 0.15907906E+04</rscale>
<asrwt>0</asrwt>
<pdfrwt beam="1">  1        2 0.26728249E+00 0.15907906E+04</pdfrwt>
<pdfrwt beam="2">  1       -2 0.56023317E-01 0.15907906E+04</pdfrwt>
<totfact> 0.26836806E+01</totfact>
</mgrwt>
</event>
<event>
 6    1  0.1603085E-006  0.2187461E+04  0.7818608E-02  0.8523665E-01
         -1   -1    0    0    0  501 -0.00000000000E+00  0.00000000000E+00  0.13935337556E+04  0.13935337556E+04  0.00000000000E+00 0.  1.
          1   -1    0    0  501    0  0.00000000000E+00 -0.00000000000E+00 -0.85842618283E+03  0.85842618283E+03  0.00000000000E+00 0. -1.
         23    2    1    2    0    0 -0.62154706789E+03 -0.78683491190E+03  0.71280648435E+03  0.12336246109E+04  0.91140881147E+02 0.  0.
         11    1    3    3    0    0 -0.21512139546E+03 -0.32671268306E+03  0.24222326820E+03  0.46009836309E+03  0.00000000000E+00 0. -1.
        -11    1    3    3    0    0 -0.40642567243E+03 -0.46012222884E+03  0.47058321616E+03  0.77352624778E+03  0.00000000000E+00 0.  1.
         22    1    1    2    0    0  0.62154706789E+03  0.78683491190E+03 -0.17769891158E+03  0.10183353276E+04  0.00000000000E+00 0. -1.
<mgrwt>
<rscale>  0 0.21874605E+04</rscale>
<asrwt>0</asrwt>
<pdfrwt beam="1">  1        1 0.13206557E+00 0.21874605E+04</pdfrwt>
<pdfrwt beam="2">  1       -1 0.21438981E+00 0.21874605E+04</pdfrwt>
<totfact> 0.21586478E+00</totfact>
</mgrwt>
</event>
<event>
 6    1  0.1603085E-006  0.2058656E+04  0.7818608E-02  0.8579678E-01
          2   -1    0    0  501    0  0.00000000000E+00  0.00000000000E+00  0.25155950083E+04  0.25155950083E+04  0.00000000000E+00 0.  1.
         -2   -1    0    0    0  501 -0.00000000000E+00 -0.00000000000E+00 -0.42117904182E+03  0.42117904182E+03  0.00000000000E+00 0. -1.
         23    2    1    2    0    0 -0.32738887748E+03 -0.62739054436E+03 -0.12754200177E+02  0.71394511306E+03  0.93555238186E+02 0.  0.
         11    1    3    3    0    0 -0.18349338538E+03 -0.42077890315E+03  0.23070741561E+02  0.45962698673E+03  0.00000000000E+00 0.  1.
        -11    1    3    3    0    0 -0.14389549209E+03 -0.20661164120E+03 -0.35824941738E+02  0.25431812632E+03  0.00000000000E+00 0. -1.
         22    1    1    2    0    0  0.32738887748E+03  0.62739054436E+03  0.21071701667E+04  0.22228289371E+04  0.00000000000E+00 0.  1.
<mgrwt>
<rscale>  0 0.20586558E+04</rscale>
<asrwt>0</asrwt>
<pdfrwt beam="1">  1        2 0.38701461E+00 0.20586558E+04</pdfrwt>
<pdfrwt beam="2">  1       -2 0.64796777E-01 0.20586558E+04</pdfrwt>
<totfact> 0.69317356E+00</totfact>
</mgrwt>
</event>
<event>
 6    1  0.1603085E-006  0.6705686E+03  0.7818608E-02  0.9768931E-01
         -2   -1    0    0    0  501 -0.00000000000E+00  0.00000000000E+00  0.38836852669E+03  0.38836852669E+03  0.00000000000E+00 0.  1.
          2   -1    0    0  501    0  0.00000000000E+00 -0.00000000000E+00 -0.28945590363E+03  0.28945590363E+03  0.00000000000E+00 0. -1.
         23    2    1    2    0    0  0.43678559372E+02 -0.56463146983E+02 -0.27453320128E+03  0.29761700373E+03  0.90063859499E+02 0.  0.
         13    1    3    3    0    0  0.40135590628E+02 -0.53633726016E+01 -0.21631735723E+03  0.22007460199E+03  0.00000000000E+00 0.  1.
        -13    1    3    3    0    0  0.35429687439E+01 -0.51099774381E+02 -0.58215844043E+02  0.77542401736E+02  0.00000000000E+00 0. -1.
         22    1    1    2    0    0 -0.43678559372E+02  0.56463146983E+02  0.37344582435E+03  0.38020742659E+03  0.00000000000E+00 0.  1.
<mgrwt>
<rscale>  0 0.67056860E+03</rscale>
<asrwt>0</asrwt>
<pdfrwt beam="1">  1        2 0.44531677E-01 0.67056860E+03</pdfrwt>
<pdfrwt beam="2">  1       -2 0.59749004E-01 0.67056860E+03</pdfrwt>
<totfact> 0.30153027E+02</totfact>
</mgrwt>
</event>
<event>
 6    1  0.1830050E-006  0.3390448E+04  0.7818608E-02  0.8140255E-01
          2   -1    0    0  501    0  0.00000000000E+00  0.00000000000E+00  0.22897723328E+04  0.22897723328E+04  0.00000000000E+00 0. -1.
         -2   -1    0    0    0  501 -0.00000000000E+00 -0.00000000000E+00 -0.12550523842E+04  0.12550523842E+04  0.00000000000E+00 0.  1.
         23    2    1    2    0    0 -0.45300660527E+03 -0.42824912919E+03 -0.11293864139E+04  0.12927215557E+04  0.83684214632E+02 0.  0.
         11    1    3    3    0    0 -0.18020181571E+03 -0.22293688757E+03 -0.54980495325E+03  0.62004760853E+03  0.00000000000E+00 0.  1.
        -11    1    3    3    0    0 -0.27280478956E+03 -0.20531224162E+03 -0.57958146061E+03  0.67267394721E+03  0.00000000000E+00 0. -1.
         22    1    1    2    0    0  0.45300660527E+03  0.42824912919E+03  0.21641063624E+04  0.22521031613E+04  0.00000000000E+00 0. -1.
<mgrwt>
<rscale>  0 0.33904479E+04</rscale>
<asrwt>0</asrwt>
<pdfrwt beam="1">  1        2 0.35227267E+00 0.33904479E+04</pdfrwt>
<pdfrwt beam="2">  1       -2 0.19308498E+00 0.33904479E+04</pdfrwt>
<totfact> 0.56300467E-01</totfact>
</mgrwt>
</event>
<event>
 6    1  0.1603085E-006  0.8379889E+03  0.7818608E-02  0.9506601E-01
         -1   -1    0    0    0  501 -0.00000000000E+00  0.00000000000E+00  0.81528947993E+02  0.81528947993E+02  0.00000000000E+00 0.  1.
          1   -1    0    0  501    0  0.00000000000E+00 -0.00000000000E+00 -0.21533009072E+04  0.21533009072E+04  0.00000000000E+00 0. -1.
         23    2    1    2    0    0  0.23954826071E+03 -0.22472161704E+03 -0.17205052306E+04  0.17539229110E+04  0.90687125175E+02 0.  0.
         13    1    3    3    0    0 -0.53912145026E+01  0.26392770270E+01 -0.46335316436E+02  0.46722505565E+02  0.00000000000E+00 0. -1.
        -13    1    3    3    0    0  0.24493947521E+03 -0.22736089407E+03 -0.16741699142E+04  0.17072004054E+04  0.00000000000E+00 0.  1.
         22    1    1    2    0    0 -0.23954826071E+03  0.22472161704E+03 -0.35126672853E+03  0.48090694416E+03  0.00000000000E+00 0.  1.
<mgrwt>
<rscale>  0 0.83798892E+03</rscale>
<asrwt>0</asrwt>
<pdfrwt beam="1">  1        1 0.33127711E+00 0.83798892E+03</pdfrwt>
<pdfrwt beam="2">  1       -1 0.12542913E-01 0.83798892E+03</pdfrwt>
<totfact> 0.10559391E+02</totfact>
</mgrwt>
</event>
<event>
 6    1  0.1603085E-006  0.6817352E+03  0.7818608E-02  0.9748987E-01
         -1   -1    0    0    0  501 -0.00000000000E+00  0.00000000000E+00  0.71340872816E+03  0.71340872816E+03  0.00000000000E+00 0.  1.
          1   -1    0    0  501    0  0.00000000000E+00 -0.00000000000E+00 -0.16286699594E+03  0.16286699594E+03  0.00000000000E+00 0. -1.
         23    2    1    2    0    0  0.27026353370E+03 -0.11920616903E+03  0.48271193312E+03  0.57320251508E+03  0.91092395624E+02 0.  0.
         11    1    3    3    0    0  0.22897961928E+03 -0.13357770478E+03  0.40516278632E+03  0.48418132211E+03  0.00000000000E+00 0.  1.
        -11    1    3    3    0    0  0.41283914418E+02  0.14371535750E+02  0.77549146794E+02  0.89021192971E+02  0.00000000000E+00 0. -1.
         22    1    1    2    0    0 -0.27026353370E+03  0.11920616903E+03  0.67829799100E+02  0.30307320902E+03  0.00000000000E+00 0. -1.
<mgrwt>
<rscale>  0 0.68173525E+03</rscale>
<asrwt>0</asrwt>
<pdfrwt beam="1">  1        1 0.25056461E-01 0.68173525E+03</pdfrwt>
<pdfrwt beam="2">  1       -1 0.10975519E+00 0.68173525E+03</pdfrwt>
<totfact> 0.15190940E+02</totfact>
</mgrwt>
</event>
<event>
 6    1  0.1603085E-006  0.1691689E+04  0.7818608E-02  0.8766118E-01
         -2   -1    0    0    0  501 -0.00000000000E+00  0.00000000000E+00  0.18296750824E+03  0.18296750824E+03  0.00000000000E+00 0.  1.
          2   -1    0    0  501    0  0.00000000000E+00 -0.00000000000E+00 -0.39102747566E+04  0.39102747566E+04  0.00000000000E+00 0. -1.
         23    2    1    2    0    0  0.55474594163E+03  0.36447630904E+03 -0.31283876775E+04  0.31992116770E+04  0.86947420797E+02 0.  0.
         13    1    3    3    0    0  0.42907575326E+03  0.28273528710E+03 -0.22330206795E+04  0.22913809373E+04  0.00000000000E+00 0. -1.
        -13    1    3    3    0    0  0.12567018837E+03  0.81741021945E+02 -0.89536699800E+03  0.90783073974E+03  0.00000000000E+00 0.  1.
         22    1    1    2    0    0 -0.55474594163E+03 -0.36447630904E+03 -0.59891957088E+03  0.89403058784E+03  0.00000000000E+00 0.  1.
<mgrwt>
<rscale>  0 0.16916894E+04</rscale>
<asrwt>0</asrwt>
<pdfrwt beam="1">  1        2 0.60158072E+00 0.16916894E+04</pdfrwt>
<pdfrwt beam="2">  1       -2 0.28148848E-01 0.16916894E+04</pdfrwt>
<totfact> 0.45064677E+00</totfact>
</mgrwt>
</event>
<event>
 6    1  0.1603085E-006  0.1640240E+04  0.7818608E-02  0.8796202E-01
          2   -1    0    0  501    0  0.00000000000E+00  0.00000000000E+00  0.24035516872E+04  0.24035516872E+04  0.00000000000E+00 0. -1.
         -2   -1    0    0    0  501 -0.00000000000E+00 -0.00000000000E+00 -0.27983448450E+03  0.27983448450E+03  0.00000000000E+00 0.  1.
         23    2    1    2    0    0  0.77715013981E+03  0.60590915245E+02  0.66095303175E+03  0.10258842505E+04  0.89140263180E+02 0.  0.
         13    1    3    3    0    0  0.38226170987E+03 -0.99631750565E+01  0.34917905558E+03  0.51783133601E+03  0.00000000000E+00 0.  1.
        -13    1    3    3    0    0  0.39488842994E+03  0.70554090301E+02  0.31177397617E+03  0.50805291454E+03  0.00000000000E+00 0. -1.
         22    1    1    2    0    0 -0.77715013981E+03 -0.60590915245E+02  0.14627641709E+04  0.16575019211E+04  0.00000000000E+00 0. -1.
<mgrwt>
<rscale>  0 0.16402398E+04</rscale>
<asrwt>0</asrwt>
<pdfrwt beam="1">  1        2 0.36977717E+00 0.16402398E+04</pdfrwt>
<pdfrwt beam="2">  1       -2 0.43051461E-01 0.16402398E+04</pdfrwt>
<totfact> 0.19378610E+01</totfact>
</mgrwt>
</event>
<event>
 6    1  0.1603085E-006  0.1910516E+04  0.7818608E-02  0.8649640E-01
         -2   -1    0    0    0  501 -0.00000000000E+00  0.00000000000E+00  0.13771288169E+04  0.13771288169E+04  0.00000000000E+00 0.  1.
          2   -1    0    0  501    0  0.00000000000E+00 -0.00000000000E+00 -0.66262339136E+03  0.66262339136E+03  0.00000000000E+00 0. -1.
         23    2    1    2    0    0  0.69566303403E+03  0.25190720979E+03 -0.28331785054E+03  0.79755432163E+03  0.91758336186E+02 0.  0.
         11    1    3    3    0    0  0.56023658798E+03  0.16360053299E+03 -0.22992255235E+03  0.62729143864E+03  0.00000000000E+00 0. -1.
        -11    1    3    3    0    0  0.13542644605E+03  0.88306676803E+02 -0.53395298186E+02  0.17026288299E+03  0.00000000000E+00 0.  1.
         22    1    1    2    0    0 -0.69566303403E+03 -0.25190720979E+03  0.99782327609E+03  0.12421978866E+04  0.00000000000E+00 0.  1.
<mgrwt>
<rscale>  0 0.19105159E+04</rscale>
<asrwt>0</asrwt>
<pdfrwt beam="1">  1        2 0.10194206E+00 0.19105159E+04</pdfrwt>
<pdfrwt beam="2">  1       -2 0.21186597E+00 0.19105159E+04</pdfrwt>
<totfact> 0.45727848E+00</totfact>
</mgrwt>
</event>
<event>
 6    1  0.1603085E-006  0.4638300E+04  0.7818608E-02  0.7886862E-01
         -1   -1    0    0    0  501 -0.00000000000E+00  0.00000000000E+00  0.19992935965E+04  0.19992935965E+04  0.00000000000E+00 0.  1.
          1   -1    0    0  501    0  0.00000000000E+00 -0.00000000000E+00 -0.26901789040E+04  0.26901789040E+04  0.00000000000E+00 0. -1.
         23    2    1    2    0    0  0.12214050266E+04 -0.14254608022E+03  0.16413396488E+04  0.20529173862E+04  0.91237753141E+02 0.  0.
         11    1    3    3    0    0  0.25844899209E+03  0.63125631604E+01  0.33102802345E+03  0.42001819280E+03  0.00000000000E+00 0. -1.
        -11    1    3    3    0    0  0.96295603449E+03 -0.14885864338E+03  0.13103116254E+04  0.16328991934E+04  0.00000000000E+00 0.  1.
         22    1    1    2    0    0 -0.12214050266E+04  0.14254608022E+03 -0.23322249563E+04  0.26365551143E+04  0.00000000000E+00 0. -1.
<mgrwt>
<rscale>  0 0.46383003E+04</rscale>
<asrwt>0</asrwt>
<pdfrwt beam="1">  1        1 0.41387368E+00 0.46383003E+04</pdfrwt>
<pdfrwt beam="2">  1       -1 0.30758363E+00 0.46383003E+04</pdfrwt>
<totfact> 0.21847728E-02</totfact>
</mgrwt>
</event>
<event>
 6    1  0.1603085E-006  0.7263366E+03  0.7818608E-02  0.9673224E-01
          1   -1    0    0  501    0  0.00000000000E+00  0.00000000000E+00  0.69298182885E+03  0.69298182885E+03  0.00000000000E+00 0. -1.
         -1   -1    0    0    0  501 -0.00000000000E+00 -0.00000000000E+00 -0.19032420048E+03  0.19032420048E+03  0.00000000000E+00 0.  1.
         23    2    1    2    0    0  0.23682736355E+03  0.14982593395E+03  0.52516068952E+03  0.60216300812E+03  0.90947940708E+02 0.  0.
         11    1    3    3    0    0  0.12903084184E+03  0.30935715020E+02  0.20814383626E+03  0.24683969126E+03  0.00000000000E+00 0. -1.
        -11    1    3    3    0    0  0.10779652171E+03  0.11889021893E+03  0.31701685327E+03  0.35532331686E+03  0.00000000000E+00 0.  1.
         22    1    1    2    0    0 -0.23682736355E+03 -0.14982593395E+03 -0.22503061149E+02  0.28114302120E+03  0.00000000000E+00 0.  1.
<mgrwt>
<rscale>  0 0.72633660E+03</rscale>
<asrwt>0</asrwt>
<pdfrwt beam="1">  1        1 0.10661259E+00 0.72633660E+03</pdfrwt>
<pdfrwt beam="2">  1       -1 0.29280647E-01 0.72633660E+03</pdfrwt>
<totfact> 0.29783935E+02</totfact>
</mgrwt>
</event>
<event>
 6    1  0.1603085E-006  0.4315026E+04  0.7818608E-02  0.7943845E-01
          2   -1    0    0  501    0  0.00000000000E+00  0.00000000000E+00  0.52176191247E+04  0.52176191247E+04  0.00000000000E+00 0. -1.
         -2   -1    0    0    0  501 -0.00000000000E+00 -0.00000000000E+00 -0.89214314348E+03  0.89214314348E+03  0.00000000000E+00 0.  1.
         23    2    1    2    0    0  0.20718533878E+04  0.45693492015E+03  0.16165389495E+04  0.26688749082E+04  0.91264006626E+02 0.  0.
         13    1    3    3    0    0  0.10088759976E+04  0.25613114130E+03  0.75290836870E+03  0.12846419547E+04  0.00000000000E+00 0. -1.
        -13    1    3    3    0    0  0.10629773902E+04  0.20080377885E+03  0.86363058076E+03  0.13842329536E+04  0.00000000000E+00 0.  1.
         22    1    1    2    0    0 -0.20718533878E+04 -0.45693492015E+03  0.27089370318E+04  0.34408873600E+04  0.00000000000E+00 0.  1.
<mgrwt>
<rscale>  0 0.43150264E+04</rscale>
<asrwt>0</asrwt>
<pdfrwt beam="1">  1        2 0.80271062E+00 0.43150264E+04</pdfrwt>
<pdfrwt beam="2">  1       -2 0.13725279E+00 0.43150264E+04</pdfrwt>
<totfact> 0.49674304E-03</totfact>
</mgrwt>
</event>
<event>
 6    1  0.1603085E-006  0.1751499E+04  0.7818608E-02  0.8732526E-01
         -2   -1    0    0    0  501 -0.00000000000E+00  0.00000000000E+00  0.46747974542E+03  0.46747974542E+03  0.00000000000E+00 0. -1.
          2   -1    0    0  501    0  0.00000000000E+00 -0.00000000000E+00 -0.16405778837E+04  0.16405778837E+04  0.00000000000E+00 0.  1.
         23    2    1    2    0    0 -0.58341248185E+03 -0.63698097768E+03 -0.43282833304E+03  0.97046619349E+03  0.91374925087E+02 0.  0.
         13    1    3    3    0    0 -0.13250346020E+03 -0.15361960018E+03 -0.14571632477E+03  0.24977869371E+03  0.00000000000E+00 0.  1.
        -13    1    3    3    0    0 -0.45090902164E+03 -0.48336137750E+03 -0.28711200827E+03  0.72068749979E+03  0.00000000000E+00 0. -1.
         22    1    1    2    0    0  0.58341248185E+03  0.63698097768E+03 -0.74026980526E+03  0.11375914357E+04  0.00000000000E+00 0.  1.
<mgrwt>
<rscale>  0 0.17514987E+04</rscale>
<asrwt>0</asrwt>
<pdfrwt beam="1">  1        2 0.25239660E+00 0.17514987E+04</pdfrwt>
<pdfrwt beam="2">  1       -2 0.71919961E-01 0.17514987E+04</pdfrwt>
<totfact> 0.17570547E+01</totfact>
</mgrwt>
</event>
<event>
 6    1  0.1603085E-006  0.1195118E+04  0.7818608E-02  0.9117140E-01
          2   -1    0    0  501    0  0.00000000000E+00  0.00000000000E+00  0.18966905426E+04  0.18966905426E+04  0.00000000000E+00 0.  1.
         -2   -1    0    0    0  501 -0.00000000000E+00 -0.00000000000E+00 -0.18826312875E+03  0.18826312875E+03  0.00000000000E+00 0. -1.
         23    2    1    2    0    0 -0.19303390531E+03 -0.38900516499E+03  0.15002950610E+03  0.46718015635E+03  0.84624693789E+02 0.  0.
         11    1    3    3    0    0 -0.25644136093E+02 -0.44192730418E+02  0.49002980002E+02  0.70794852828E+02  0.00000000000E+00 0.  1.
        -11    1    3    3    0    0 -0.16738976921E+03 -0.34481243457E+03  0.10102652610E+03  0.39638530352E+03  0.00000000000E+00 0. -1.
         22    1    1    2    0    0  0.19303390531E+03  0.38900516499E+03  0.15583979078E+04  0.16177735150E+04  0.00000000000E+00 0.  1.
<mgrwt>
<rscale>  0 0.11951182E+04</rscale>
<asrwt>0</asrwt>
<pdfrwt beam="1">  1        2 0.29179853E+00 0.11951182E+04</pdfrwt>
<pdfrwt beam="2">  1       -2 0.28963560E-01 0.11951182E+04</pdfrwt>
<totfact> 0.82470396E+01</totfact>
</mgrwt>
</event>
<event>
 6    1  0.1603085E-006  0.2744757E+04  0.7818608E-02  0.8320627E-01
          3   -1    0    0  501    0  0.00000000000E+00  0.00000000000E+00  0.10131906424E+04  0.10131906424E+04  0.00000000000E+00 0.  1.
         -3   -1    0    0    0  501 -0.00000000000E+00 -0.00000000000E+00 -0.18589020195E+04  0.18589020195E+04  0.00000000000E+00 0. -1.
         23    2    1    2    0    0 -0.71272035538E+03 -0.38933015247E+03 -0.15790152503E+04  0.17778884566E+04  0.89721406926E+02 0.  0.
         11    1    3    3    0    0 -0.48251701994E+03 -0.23337079444E+03 -0.96538280444E+03  0.11041958890E+04  0.00000000000E+00 0. -1.
        -11    1    3    3    0    0 -0.23020333544E+03 -0.15595935802E+03 -0.61363244585E+03  0.67369256757E+03  0.00000000000E+00 0.  1.
         22    1    1    2    0    0  0.71272035538E+03  0.38933015247E+03  0.73330387320E+03  0.10942042054E+04  0.00000000000E+00 0.  1.
<mgrwt>
<rscale>  0 0.27447566E+04</rscale>
<asrwt>0</asrwt>
<pdfrwt beam="1">  1        3 0.15587549E+00 0.27447566E+04</pdfrwt>
<pdfrwt beam="2">  1       -3 0.28598492E+00 0.27447566E+04</pdfrwt>
<totfact> 0.30298242E-02</totfact>
</mgrwt>
</event>
<event>
 6    1  0.1603085E-006  0.1597730E+04  0.7818608E-02  0.8821944E-01
         -2   -1    0    0    0  501 -0.00000000000E+00  0.00000000000E+00  0.16290442668E+03  0.16290442668E+03  0.00000000000E+00 0.  1.
          2   -1    0    0  501    0  0.00000000000E+00 -0.00000000000E+00 -0.39175431770E+04  0.39175431770E+04  0.00000000000E+00 0. -1.
         23    2    1    2    0    0 -0.78015475937E+02 -0.15705716534E+03 -0.38671002395E+04  0.38721186470E+04  0.89917664982E+02 0.  0.
         13    1    3    3    0    0 -0.54237803024E+01 -0.11011285246E+03 -0.22859203548E+04  0.22885773148E+04  0.00000000000E+00 0. -1.
        -13    1    3    3    0    0 -0.72591695634E+02 -0.46944312882E+02 -0.15811798847E+04  0.15835413321E+04  0.00000000000E+00 0.  1.
         22    1    1    2    0    0  0.78015475937E+02  0.15705716534E+03  0.11246148914E+03  0.20832895672E+03  0.00000000000E+00 0.  1.
<mgrwt>
<rscale>  0 0.15977298E+04</rscale>
<asrwt>0</asrwt>
<pdfrwt beam="1">  1        2 0.60269893E+00 0.15977298E+04</pdfrwt>
<pdfrwt beam="2">  1       -2 0.25062220E-01 0.15977298E+04</pdfrwt>
<totfact> 0.55576486E+00</totfact>
</mgrwt>
</event>
<event>
 6    1  0.1603085E-006  0.2451814E+04  0.7818608E-02  0.8420356E-01
          2   -1    0    0  501    0  0.00000000000E+00  0.00000000000E+00  0.26661218454E+04  0.26661218454E+04  0.00000000000E+00 0.  1.
         -2   -1    0    0    0  501 -0.00000000000E+00 -0.00000000000E+00 -0.56368318453E+03  0.56368318453E+03  0.00000000000E+00 0. -1.
         23    2    1    2    0    0 -0.83870167364E+03 -0.88196099712E+03  0.12267788191E+04  0.17304532179E+04  0.90589019774E+02 0.  0.
         13    1    3    3    0    0 -0.65259242177E+03 -0.72074803349E+03  0.10167871210E+04  0.14068442153E+04  0.00000000000E+00 0. -1.
        -13    1    3    3    0    0 -0.18610925187E+03 -0.16121296363E+03  0.20999169804E+03  0.32360900253E+03  0.00000000000E+00 0.  1.
         22    1    1    2    0    0  0.83870167364E+03  0.88196099712E+03  0.87565984178E+03  0.14993518121E+04  0.00000000000E+00 0. -1.
<mgrwt>
<rscale>  0 0.24518141E+04</rscale>
<asrwt>0</asrwt>
<pdfrwt beam="1">  1        2 0.41017258E+00 0.24518141E+04</pdfrwt>
<pdfrwt beam="2">  1       -2 0.86720491E-01 0.24518141E+04</pdfrwt>
<totfact> 0.28665477E+00</totfact>
</mgrwt>
</event>
<event>
 6    1  0.1603085E-006  0.4824812E+04  0.7818608E-02  0.7856115E-01
         -1   -1    0    0    0  501 -0.00000000000E+00  0.00000000000E+00  0.22952912704E+04  0.22952912704E+04  0.00000000000E+00 0.  1.
          1   -1    0    0  501    0  0.00000000000E+00 -0.00000000000E+00 -0.25354959163E+04  0.25354959163E+04  0.00000000000E+00 0. -1.
         23    2    1    2    0    0 -0.14917050903E+04  0.10201956400E+04  0.14785273228E+04  0.23367898329E+04  0.92522747189E+02 0.  0.
         11    1    3    3    0    0 -0.82319049282E+03  0.53503837841E+03  0.85436578567E+03  0.13014797538E+04  0.00000000000E+00 0.  1.
        -11    1    3    3    0    0 -0.66851459745E+03  0.48515726161E+03  0.62416153712E+03  0.10353100791E+04  0.00000000000E+00 0. -1.
         22    1    1    2    0    0  0.14917050903E+04 -0.10201956400E+04 -0.17187319688E+04  0.24939973538E+04  0.00000000000E+00 0. -1.
<mgrwt>
<rscale>  0 0.48248116E+04</rscale>
<asrwt>0</asrwt>
<pdfrwt beam="1">  1        1 0.39007630E+00 0.48248116E+04</pdfrwt>
<pdfrwt beam="2">  1       -1 0.35312173E+00 0.48248116E+04</pdfrwt>
<totfact> 0.13880835E-02</totfact>
</mgrwt>
</event>
<event>
 6    1  0.1603085E-006  0.1908114E+04  0.7818608E-02  0.8650828E-01
         -3   -1    0    0    0  501 -0.00000000000E+00  0.00000000000E+00  0.29003867217E+03  0.29003867217E+03  0.00000000000E+00 0.  1.
          3   -1    0    0  501    0  0.00000000000E+00 -0.00000000000E+00 -0.31382861816E+04  0.31382861816E+04  0.00000000000E+00 0. -1.
         23    2    1    2    0    0  0.67141546252E+03 -0.40999581318E+03 -0.23897243626E+04  0.25177542819E+04  0.96998993230E+02 0.  0.
         11    1    3    3    0    0  0.14006595730E+03 -0.45009297799E+02 -0.49262573843E+03  0.51412491425E+03  0.00000000000E+00 0. -1.
        -11    1    3    3    0    0  0.53134950522E+03 -0.36498651538E+03 -0.18970986242E+04  0.20036293677E+04  0.00000000000E+00 0.  1.
         22    1    1    2    0    0 -0.67141546252E+03  0.40999581318E+03 -0.45852314678E+03  0.91057057182E+03  0.00000000000E+00 0.  1.
<mgrwt>
<rscale>  0 0.19081136E+04</rscale>
<asrwt>0</asrwt>
<pdfrwt beam="1">  1        3 0.48281327E+00 0.19081136E+04</pdfrwt>
<pdfrwt beam="2">  1       -3 0.44621333E-01 0.19081136E+04</pdfrwt>
<totfact> 0.51232648E-02</totfact>
</mgrwt>
</event>
<event>
 6    1  0.1603085E-006  0.2302846E+04  0.7818608E-02  0.8476800E-01
          2   -1    0    0  501    0  0.00000000000E+00  0.00000000000E+00  0.11123102180E+04  0.11123102180E+04  0.00000000000E+00 0.  1.
         -2   -1    0    0    0  501 -0.00000000000E+00 -0.00000000000E+00 -0.11919112381E+04  0.11919112381E+04  0.00000000000E+00 0. -1.
         23    2    1    2    0    0  0.90785942805E+02  0.10430184088E+04 -0.51512351088E+03  0.11702861279E+04  0.89932758673E+02 0.  0.
         13    1    3    3    0    0  0.59954971457E+02  0.37058767047E+03 -0.14784518170E+03  0.40346997144E+03  0.00000000000E+00 0. -1.
        -13    1    3    3    0    0  0.30830971349E+02  0.67243073835E+03 -0.36727832918E+03  0.76681615643E+03  0.00000000000E+00 0.  1.
         22    1    1    2    0    0 -0.90785942805E+02 -0.10430184088E+04  0.43552249081E+03  0.11339353282E+04  0.00000000000E+00 0.  1.
<mgrwt>
<rscale>  0 0.23028461E+04</rscale>
<asrwt>0</asrwt>
<pdfrwt beam="1">  1        2 0.17112465E+00 0.23028461E+04</pdfrwt>
<pdfrwt beam="2">  1       -2 0.18337096E+00 0.23028461E+04</pdfrwt>
<totfact> 0.33353957E+00</totfact>
</mgrwt>
</event>
<event>
 6    1  0.2263055E-006  0.2862217E+04  0.7818608E-02  0.8284208E-01
          1   -1    0    0  501    0  0.00000000000E+00  0.00000000000E+00  0.10950934263E+04  0.10950934263E+04  0.00000000000E+00 0. -1.
         -1   -1    0    0    0  501 -0.00000000000E+00 -0.00000000000E+00 -0.18702258920E+04  0.18702258920E+04  0.00000000000E+00 0.  1.
         23    2    1    2    0    0 -0.14263118749E+04 -0.23799481980E+02 -0.29040999331E+03  0.14587046180E+04  0.92461984691E+02 0.  0.
         11    1    3    3    0    0 -0.67986703186E+03 -0.45932506691E+02 -0.16980506405E+03  0.70225546346E+03  0.00000000000E+00 0.  1.
        -11    1    3    3    0    0 -0.74644484301E+03  0.22133024711E+02 -0.12060492926E+03  0.75644915454E+03  0.00000000000E+00 0. -1.
         22    1    1    2    0    0  0.14263118749E+04  0.23799481980E+02 -0.48472247238E+03  0.15066147002E+04  0.00000000000E+00 0.  1.
<mgrwt>
<rscale>  0 0.28622174E+04</rscale>
<asrwt>0</asrwt>
<pdfrwt beam="1">  1        1 0.16847591E+00 0.28622174E+04</pdfrwt>
<pdfrwt beam="2">  1       -1 0.28772706E+00 0.28622174E+04</pdfrwt>
<totfact> 0.43671717E-01</totfact>
</mgrwt>
</event>
<event>
 6    1  0.1603085E-006  0.1655108E+04  0.7818608E-02  0.8787390E-01
         -2   -1    0    0    0  501 -0.00000000000E+00  0.00000000000E+00  0.72112562801E+03  0.72112562801E+03  0.00000000000E+00 0.  1.
          2   -1    0    0  501    0  0.00000000000E+00 -0.00000000000E+00 -0.94969031222E+03  0.94969031222E+03  0.00000000000E+00 0. -1.
         23    2    1    2    0    0  0.21313985362E+03 -0.35336663122E+03 -0.83587937139E+03  0.93656278054E+03  0.90326879299E+02 0.  0.
         13    1    3    3    0    0  0.58946566064E+02 -0.18247609185E+03 -0.35713990464E+03  0.40536543172E+03  0.00000000000E+00 0. -1.
        -13    1    3    3    0    0  0.15419328755E+03 -0.17089053937E+03 -0.47873946675E+03  0.53119734883E+03  0.00000000000E+00 0.  1.
         22    1    1    2    0    0 -0.21313985362E+03  0.35336663122E+03  0.60731468717E+03  0.73425315969E+03  0.00000000000E+00 0.  1.
<mgrwt>
<rscale>  0 0.16551085E+04</rscale>
<asrwt>0</asrwt>
<pdfrwt beam="1">  1        2 0.14610620E+00 0.16551085E+04</pdfrwt>
<pdfrwt beam="2">  1       -2 0.11094240E+00 0.16551085E+04</pdfrwt>
<totfact> 0.16694022E+01</totfact>
</mgrwt>
</event>
<event>
 6    1  0.1603085E-006  0.1689256E+04  0.7818608E-02  0.8767516E-01
          2   -1    0    0  501    0  0.00000000000E+00  0.00000000000E+00  0.18095558153E+04  0.18095558153E+04  0.00000000000E+00 0. -1.
         -2   -1    0    0    0  501 -0.00000000000E+00 -0.00000000000E+00 -0.39423824378E+03  0.39423824378E+03  0.00000000000E+00 0.  1.
         23    2    1    2    0    0 -0.70503519693E+03 -0.44943868141E+03  0.84060672107E+03  0.11892191141E+04  0.92480725890E+02 0.  0.
         13    1    3    3    0    0 -0.26612415795E+03 -0.19379917033E+03  0.38845446349E+03  0.50919255304E+03  0.00000000000E+00 0.  1.
        -13    1    3    3    0    0 -0.43891103897E+03 -0.25563951108E+03  0.45215225758E+03  0.68002656109E+03  0.00000000000E+00 0. -1.
         22    1    1    2    0    0  0.70503519693E+03  0.44943868141E+03  0.57471085043E+03  0.10145749449E+04  0.00000000000E+00 0. -1.
<mgrwt>
<rscale>  0 0.16892556E+04</rscale>
<asrwt>0</asrwt>
<pdfrwt beam="1">  1        2 0.27839320E+00 0.16892556E+04</pdfrwt>
<pdfrwt beam="2">  1       -2 0.60652038E-01 0.16892556E+04</pdfrwt>
<totfact> 0.20546952E+01</totfact>
</mgrwt>
</event>
<event>
 6    1  0.1603085E-006  0.2723513E+04  0.7818608E-02  0.8327416E-01
          2   -1    0    0  501    0  0.00000000000E+00  0.00000000000E+00  0.13436301394E+04  0.13436301394E+04  0.00000000000E+00 0. -1.
         -2   -1    0    0    0  501 -0.00000000000E+00 -0.00000000000E+00 -0.13801270570E+04  0.13801270570E+04  0.00000000000E+00 0.  1.
         23    2    1    2    0    0  0.90409895017E+03  0.77717223676E+03  0.63658653532E+03  0.13546578822E+04  0.91999802612E+02 0.  0.
         13    1    3    3    0    0  0.34533784963E+03  0.27491528278E+03  0.28267693469E+03  0.52415922438E+03  0.00000000000E+00 0.  1.
        -13    1    3    3    0    0  0.55876110054E+03  0.50225695398E+03  0.35390960062E+03  0.83049865786E+03  0.00000000000E+00 0. -1.
         22    1    1    2    0    0 -0.90409895017E+03 -0.77717223676E+03 -0.67308345298E+03  0.13690993141E+04  0.00000000000E+00 0.  1.
<mgrwt>
<rscale>  0 0.27235127E+04</rscale>
<asrwt>0</asrwt>
<pdfrwt beam="1">  1        2 0.20671233E+00 0.27235127E+04</pdfrwt>
<pdfrwt beam="2">  1       -2 0.21232724E+00 0.27235127E+04</pdfrwt>
<totfact> 0.15105934E+00</totfact>
</mgrwt>
</event>
<event>
 6    1  0.1603085E-006  0.6008443E+04  0.7818608E-02  0.7689356E-01
          1   -1    0    0  501    0  0.00000000000E+00  0.00000000000E+00  0.36602844678E+04  0.36602844678E+04  0.00000000000E+00 0. -1.
         -1   -1    0    0    0  501 -0.00000000000E+00 -0.00000000000E+00 -0.24657500356E+04  0.24657500356E+04  0.00000000000E+00 0.  1.
         23    2    1    2    0    0  0.29541339270E+04  0.37568540547E+03  0.19844486208E+03  0.29859324008E+04  0.91461229540E+02 0.  0.
         11    1    3    3    0    0  0.16439690036E+04  0.25284987751E+03  0.12410589295E+03  0.16679236847E+04  0.00000000000E+00 0. -1.
        -11    1    3    3    0    0  0.13101649234E+04  0.12283552796E+03  0.74338969134E+02  0.13180087161E+04  0.00000000000E+00 0.  1.
         22    1    1    2    0    0 -0.29541339270E+04 -0.37568540547E+03  0.99608957011E+03  0.31401021025E+04  0.00000000000E+00 0.  1.
<mgrwt>
<rscale>  0 0.60084429E+04</rscale>
<asrwt>0</asrwt>
<pdfrwt beam="1">  1        1 0.56312069E+00 0.60084429E+04</pdfrwt>
<pdfrwt beam="2">  1       -1 0.37934616E+00 0.60084429E+04</pdfrwt>
<totfact> 0.12251821E-03</totfact>
</mgrwt>
</event>
<event>
 6    1  0.1603085E-006  0.3757727E+04  0.7818608E-02  0.8055288E-01
         -2   -1    0    0    0  501 -0.00000000000E+00  0.00000000000E+00  0.20220696738E+04  0.20220696738E+04  0.00000000000E+00 0.  1.
          2   -1    0    0  501    0  0.00000000000E+00 -0.00000000000E+00 -0.17457991420E+04  0.17457991420E+04  0.00000000000E+00 0. -1.
         23    2    1    2    0    0 -0.16783562992E+04 -0.84231640872E+03  0.15103977009E+03  0.18858328058E+04  0.84708676886E+02 0.  0.
         11    1    3    3    0    0 -0.72504618355E+03 -0.39319110219E+03  0.33342012969E+02  0.82547132049E+03  0.00000000000E+00 0. -1.
        -11    1    3    3    0    0 -0.95331011564E+03 -0.44912530653E+03  0.11769775712E+03  0.10603614853E+04  0.00000000000E+00 0.  1.
         22    1    1    2    0    0  0.16783562992E+04  0.84231640872E+03  0.12523076175E+03  0.18820360100E+04  0.00000000000E+00 0. -1.
<mgrwt>
<rscale>  0 0.37577267E+04</rscale>
<asrwt>0</asrwt>
<pdfrwt beam="1">  1        2 0.26858448E+00 0.37577267E+04</pdfrwt>
<pdfrwt beam="2">  1       -2 0.31108764E+00 0.37577267E+04</pdfrwt>
<totfact> 0.20217927E-01</totfact>
</mgrwt>
</event>
<event>
 6    1  0.1603085E-006  0.1868148E+04  0.7818608E-02  0.8670875E-01
         -1   -1    0    0    0  501 -0.00000000000E+00  0.00000000000E+00  0.64268363747E+03  0.64268363747E+03  0.00000000000E+00 0.  1.
          1   -1    0    0  501    0  0.00000000000E+00 -0.00000000000E+00 -0.13575801603E+04  0.13575801603E+04  0.00000000000E+00 0. -1.
         23    2    1    2    0    0  0.28153019586E+03  0.11800127438E+03 -0.13007890161E+04  0.13396174736E+04  0.96640360258E+02 0.  0.
         13    1    3    3    0    0  0.91677734435E+02  0.18423170627E+02 -0.24404659850E+03  0.26134835459E+03  0.00000000000E+00 0. -1.
        -13    1    3    3    0    0  0.18985246143E+03  0.99578103754E+02 -0.10567424176E+04  0.10782691190E+04  0.00000000000E+00 0.  1.
         22    1    1    2    0    0 -0.28153019586E+03 -0.11800127438E+03  0.58589249329E+03  0.66064632416E+03  0.00000000000E+00 0.  1.
<mgrwt>
<rscale>  0 0.18681483E+04</rscale>
<asrwt>0</asrwt>
<pdfrwt beam="1">  1        1 0.20885849E+00 0.18681483E+04</pdfrwt>
<pdfrwt beam="2">  1       -1 0.98874406E-01 0.18681483E+04</pdfrwt>
<totfact> 0.75529817E+00</totfact>
</mgrwt>
</event>
<event>
 6    1  0.1603085E-006  0.3520447E+04  0.7818608E-02  0.8108961E-01
         -1   -1    0    0    0  501 -0.00000000000E+00  0.00000000000E+00  0.20375645023E+04  0.20375645023E+04  0.00000000000E+00 0.  1.
          1   -1    0    0  501    0  0.00000000000E+00 -0.00000000000E+00 -0.15206328749E+04  0.15206328749E+04  0.00000000000E+00 0. -1.
         23    2    1    2    0    0 -0.98121843984E+03 -0.14599169822E+04  0.25983540018E+03  0.17804893889E+04  0.92091297395E+02 0.  0.
         11    1    3    3    0    0 -0.45466930458E+03 -0.65785133761E+03  0.16329385257E+03  0.81618468573E+03  0.00000000000E+00 0. -1.
        -11    1    3    3    0    0 -0.52654913526E+03 -0.80206564462E+03  0.96541547613E+02  0.96430470316E+03  0.00000000000E+00 0.  1.
         22    1    1    2    0    0  0.98121843984E+03  0.14599169822E+04  0.25709622727E+03  0.17777079883E+04  0.00000000000E+00 0. -1.
<mgrwt>
<rscale>  0 0.35204475E+04</rscale>
<asrwt>0</asrwt>
<pdfrwt beam="1">  1        1 0.23394352E+00 0.35204475E+04</pdfrwt>
<pdfrwt beam="2">  1       -1 0.31347146E+00 0.35204475E+04</pdfrwt>
<totfact> 0.13913823E-01</totfact>
</mgrwt>
</event>
<event>
 6    1  0.1603085E-006  0.1379469E+04  0.7818608E-02  0.8968815E-01
          1   -1    0    0  501    0  0.00000000000E+00  0.00000000000E+00  0.25603337371E+03  0.25603337371E+03  0.00000000000E+00 0. -1.
         -1   -1    0    0    0  501 -0.00000000000E+00 -0.00000000000E+00 -0.18580928545E+04  0.18580928545E+04  0.00000000000E+00 0.  1.
         23    2    1    2    0    0  0.10643196218E+03  0.48055090896E+03 -0.70331734217E+02  0.50526115361E+03  0.89918528825E+02 0.  0.
         13    1    3    3    0    0  0.11064901716E+03  0.30911081967E+03 -0.35114180480E+02  0.33019041401E+03  0.00000000000E+00 0.  1.
        -13    1    3    3    0    0 -0.42170549850E+01  0.17144008930E+03 -0.35217553737E+02  0.17507073960E+03  0.00000000000E+00 0. -1.
         22    1    1    2    0    0 -0.10643196218E+03 -0.48055090896E+03 -0.15317277466E+04  0.16088650746E+04  0.00000000000E+00 0.  1.
<mgrwt>
<rscale>  0 0.13794691E+04</rscale>
<asrwt>0</asrwt>
<pdfrwt beam="1">  1        1 0.39389748E-01 0.13794691E+04</pdfrwt>
<pdfrwt beam="2">  1       -1 0.28586045E+00 0.13794691E+04</pdfrwt>
<totfact> 0.43061432E+00</totfact>
</mgrwt>
</event>
<event>
 6    1  0.1603085E-006  0.3121932E+04  0.7818608E-02  0.8209745E-01
         -1   -1    0    0    0  501 -0.00000000000E+00  0.00000000000E+00  0.88910875825E+03  0.88910875825E+03  0.00000000000E+00 0.  1.
          1   -1    0    0  501    0  0.00000000000E+00 -0.00000000000E+00 -0.27405138475E+04  0.27405138475E+04  0.00000000000E+00 0. -1.
         23    2    1    2    0    0  0.14513359765E+04 -0.39057276045E+03 -0.44208238993E+03  0.15692552432E+04  0.90564788117E+02 0.  0.
         13    1    3    3    0    0  0.68192403393E+03 -0.17624511835E+03 -0.25374061351E+03  0.74864345902E+03  0.00000000000E+00 0. -1.
        -13    1    3    3    0    0  0.76941194257E+03 -0.21432764210E+03 -0.18834177641E+03  0.82061178415E+03  0.00000000000E+00 0.  1.
         22    1    1    2    0    0 -0.14513359765E+04  0.39057276045E+03 -0.14093226993E+04  0.20603673625E+04  0.00000000000E+00 0. -1.
<mgrwt>
<rscale>  0 0.31219320E+04</rscale>
<asrwt>0</asrwt>
<pdfrwt beam="1">  1        1 0.42161752E+00 0.31219320E+04</pdfrwt>
<pdfrwt beam="2">  1       -1 0.13678596E+00 0.31219320E+04</pdfrwt>
<totfact> 0.34436521E-01</totfact>
</mgrwt>
</event>
<event>
 6    1  0.1603085E-006  0.2957319E+04  0.7818608E-02  0.8256025E-01
         -2   -1    0    0    0  501 -0.00000000000E+00  0.00000000000E+00  0.11857524556E+04  0.11857524556E+04  0.00000000000E+00 0. -1.
          2   -1    0    0  501    0  0.00000000000E+00 -0.00000000000E+00 -0.18439214136E+04  0.18439214136E+04  0.00000000000E+00 0.  1.
         23    2    1    2    0    0  0.92647819810E+03 -0.57954429026E+03  0.68876194769E+03  0.12951836557E+04  0.94203214218E+02 0.  0.
         11    1    3    3    0    0  0.65579329700E+03 -0.37335194582E+03  0.51012879632E+03  0.91087206164E+03  0.00000000000E+00 0. -1.
        -11    1    3    3    0    0  0.27068490110E+03 -0.20619234443E+03  0.17863315137E+03  0.38431159409E+03  0.00000000000E+00 0.  1.
         22    1    1    2    0    0 -0.92647819810E+03  0.57954429026E+03 -0.13469309057E+04  0.17344902135E+04  0.00000000000E+00 0.  1.
<mgrwt>
<rscale>  0 0.29573193E+04</rscale>
<asrwt>0</asrwt>
<pdfrwt beam="1">  1        2 0.28368022E+00 0.29573193E+04</pdfrwt>
<pdfrwt beam="2">  1       -2 0.18242346E+00 0.29573193E+04</pdfrwt>
<totfact> 0.12229011E+00</totfact>
</mgrwt>
</event>
<event>
 6    1  0.1603085E-006  0.4188542E+04  0.7818608E-02  0.7967555E-01
          2   -1    0    0  501    0  0.00000000000E+00  0.00000000000E+00  0.36553678807E+04  0.36553678807E+04  0.00000000000E+00 0. -1.
         -2   -1    0    0    0  501 -0.00000000000E+00 -0.00000000000E+00 -0.11998715138E+04  0.11998715138E+04  0.00000000000E+00 0.  1.
         23    2    1    2    0    0 -0.58437810865E+03 -0.79359884991E+03 -0.91244870940E+03  0.13460584437E+04  0.89519708350E+02 0.  0.
         11    1    3    3    0    0 -0.19618656442E+03 -0.32921331322E+03 -0.32308290998E+03  0.50125157394E+03  0.00000000000E+00 0.  1.
        -11    1    3    3    0    0 -0.38819154423E+03 -0.46438553669E+03 -0.58936579942E+03  0.84480686978E+03  0.00000000000E+00 0. -1.
         22    1    1    2    0    0  0.58437810865E+03  0.79359884991E+03  0.33679450763E+04  0.35091809508E+04  0.00000000000E+00 0. -1.
<mgrwt>
<rscale>  0 0.41885424E+04</rscale>
<asrwt>0</asrwt>
<pdfrwt beam="1">  1        2 0.56236429E+00 0.41885424E+04</pdfrwt>
<pdfrwt beam="2">  1       -2 0.18459562E+00 0.41885424E+04</pdfrwt>
<totfact> 0.82272632E-02</totfact>
</mgrwt>
</event>
<event>
 6    1  0.1603085E-006  0.1487972E+04  0.7818608E-02  0.8892491E-01
         -1   -1    0    0    0  501 -0.00000000000E+00  0.00000000000E+00  0.26008291635E+03  0.26008291635E+03  0.00000000000E+00 0.  1.
          1   -1    0    0  501    0  0.00000000000E+00 -0.00000000000E+00 -0.21282259418E+04  0.21282259418E+04  0.00000000000E+00 0. -1.
         23    2    1    2    0    0  0.35308619876E+03 -0.52073845437E+03 -0.15666674988E+04  0.16906514245E+04  0.89536503709E+02 0.  0.
         13    1    3    3    0    0  0.15708142931E+03 -0.25111194626E+03 -0.62267908827E+03  0.68953682422E+03  0.00000000000E+00 0. -1.
        -13    1    3    3    0    0  0.19600476946E+03 -0.26962650811E+03 -0.94398841058E+03  0.10011146002E+04  0.00000000000E+00 0.  1.
         22    1    1    2    0    0 -0.35308619876E+03  0.52073845437E+03 -0.30147552660E+03  0.69765743367E+03  0.00000000000E+00 0.  1.
<mgrwt>
<rscale>  0 0.14879721E+04</rscale>
<asrwt>0</asrwt>
<pdfrwt beam="1">  1        1 0.32741937E+00 0.14879721E+04</pdfrwt>
<pdfrwt beam="2">  1       -1 0.40012757E-01 0.14879721E+04</pdfrwt>
<totfact> 0.14386905E+01</totfact>
</mgrwt>
</event>
<event>
 6    1  0.1603085E-006  0.1103947E+04  0.7818608E-02  0.9201353E-01
         -2   -1    0    0    0  501 -0.00000000000E+00  0.00000000000E+00  0.23566154862E+03  0.23566154862E+03  0.00000000000E+00 0.  1.
          2   -1    0    0  501    0  0.00000000000E+00 -0.00000000000E+00 -0.12928490979E+04  0.12928490979E+04  0.00000000000E+00 0. -1.
         23    2    1    2    0    0 -0.44647519009E+03  0.23117820614E+03 -0.83447310983E+03  0.97861503832E+03  0.92512506412E+02 0.  0.
         11    1    3    3    0    0 -0.15192863595E+03  0.33213794578E+02 -0.28010183616E+03  0.32037869030E+03  0.00000000000E+00 0.  1.
        -11    1    3    3    0    0 -0.29454655413E+03  0.19796441156E+03 -0.55437127366E+03  0.65823634802E+03  0.00000000000E+00 0. -1.
         22    1    1    2    0    0  0.44647519009E+03 -0.23117820614E+03 -0.22271443940E+03  0.54989560816E+03  0.00000000000E+00 0.  1.
<mgrwt>
<rscale>  0 0.11039471E+04</rscale>
<asrwt>0</asrwt>
<pdfrwt beam="1">  1        2 0.19889986E+00 0.11039471E+04</pdfrwt>
<pdfrwt beam="2">  1       -2 0.36255623E-01 0.11039471E+04</pdfrwt>
<totfact> 0.11850542E+02</totfact>
</mgrwt>
</event>
<event>
 6    1  0.1603085E-006  0.2769512E+04  0.7818608E-02  0.8312797E-01
         -1   -1    0    0    0  501 -0.00000000000E+00  0.00000000000E+00  0.74505105213E+03  0.74505105213E+03  0.00000000000E+00 0.  1.
          1   -1    0    0  501    0  0.00000000000E+00 -0.00000000000E+00 -0.25737154236E+04  0.25737154236E+04  0.00000000000E+00 0. -1.
         23    2    1    2    0    0 -0.12828367155E+04  0.18975955938E+03 -0.33815634237E+03  0.13430911699E+04  0.88687371171E+02 0.  0.
         13    1    3    3    0    0 -0.89894968286E+03  0.10151079387E+03 -0.20824827646E+03  0.92832231377E+03  0.00000000000E+00 0.  1.
        -13    1    3    3    0    0 -0.38388703267E+03  0.88248765507E+02 -0.12990806591E+03  0.41476885617E+03  0.00000000000E+00 0. -1.
         22    1    1    2    0    0  0.12828367155E+04 -0.18975955938E+03 -0.14905080291E+04  0.19756753058E+04  0.00000000000E+00 0.  1.
<mgrwt>
<rscale>  0 0.27695121E+04</rscale>
<asrwt>0</asrwt>
<pdfrwt beam="1">  1        1 0.39595622E+00 0.27695121E+04</pdfrwt>
<pdfrwt beam="2">  1       -1 0.11462324E+00 0.27695121E+04</pdfrwt>
<totfact> 0.72249143E-01</totfact>
</mgrwt>
</event>
<event>
 6    1  0.1603085E-006  0.8799427E+03  0.7818608E-02  0.9451007E-01
         -1   -1    0    0    0  501 -0.00000000000E+00  0.00000000000E+00  0.86163943503E+02  0.86163943503E+02  0.00000000000E+00 0.  1.
          1   -1    0    0  501    0  0.00000000000E+00 -0.00000000000E+00 -0.22465869354E+04  0.22465869354E+04  0.00000000000E+00 0. -1.
         23    2    1    2    0    0 -0.31906272232E+03  0.17956290360E+03 -0.17165012389E+04  0.17573289642E+04  0.88231106710E+02 0.  0.
         13    1    3    3    0    0 -0.17451572163E+03  0.12133166844E+03 -0.80421595522E+03  0.83182955795E+03  0.00000000000E+00 0. -1.
        -13    1    3    3    0    0 -0.14454700069E+03  0.58231235155E+02 -0.91228528372E+03  0.92549940629E+03  0.00000000000E+00 0.  1.
         22    1    1    2    0    0  0.31906272232E+03 -0.17956290360E+03 -0.44392175298E+03  0.57542191468E+03  0.00000000000E+00 0.  1.
<mgrwt>
<rscale>  0 0.87994270E+03</rscale>
<asrwt>0</asrwt>
<pdfrwt beam="1">  1        1 0.34562877E+00 0.87994270E+03</pdfrwt>
<pdfrwt beam="2">  1       -1 0.13255991E-01 0.87994270E+03</pdfrwt>
<totfact> 0.83252427E+01</totfact>
</mgrwt>
</event>
<event>
 6    1  0.1603085E-006  0.1548156E+04  0.7818608E-02  0.8853046E-01
          1   -1    0    0  501    0  0.00000000000E+00  0.00000000000E+00  0.81429536294E+03  0.81429536294E+03  0.00000000000E+00 0. -1.
         -1   -1    0    0    0  501 -0.00000000000E+00 -0.00000000000E+00 -0.73584695349E+03  0.73584695349E+03  0.00000000000E+00 0.  1.
         23    2    1    2    0    0  0.62530350279E+03  0.41152265759E+03  0.22523242112E+03  0.78731801530E+03  0.93726439035E+02 0.  0.
         11    1    3    3    0    0  0.22582559037E+03  0.96577990002E+02  0.79536811401E+02  0.25816779386E+03  0.00000000000E+00 0.  1.
        -11    1    3    3    0    0  0.39947791242E+03  0.31494466759E+03  0.14569560972E+03  0.52915022143E+03  0.00000000000E+00 0. -1.
         22    1    1    2    0    0 -0.62530350279E+03 -0.41152265759E+03 -0.14678401167E+03  0.76282430113E+03  0.00000000000E+00 0.  1.
<mgrwt>
<rscale>  0 0.15481560E+04</rscale>
<asrwt>0</asrwt>
<pdfrwt beam="1">  1        1 0.12527621E+00 0.15481560E+04</pdfrwt>
<pdfrwt beam="2">  1       -1 0.11320722E+00 0.15481560E+04</pdfrwt>
<totfact> 0.14760969E+01</totfact>
</mgrwt>
</event>
<event>
 6    1  0.1603085E-006  0.1248483E+04  0.7818608E-02  0.9071447E-01
         -2   -1    0    0    0  501 -0.00000000000E+00  0.00000000000E+00  0.11829662389E+03  0.11829662389E+03  0.00000000000E+00 0.  1.
          2   -1    0    0  501    0  0.00000000000E+00 -0.00000000000E+00 -0.32940698377E+04  0.32940698377E+04  0.00000000000E+00 0. -1.
         23    2    1    2    0    0  0.40768757229E+03 -0.21400164127E+03 -0.46155314362E+03  0.65936874119E+03  0.98640627582E+02 0.  0.
         11    1    3    3    0    0  0.22785426147E+02 -0.44532117085E+02 -0.41956491405E+02  0.65288837237E+02  0.00000000000E+00 0. -1.
        -11    1    3    3    0    0  0.38490214615E+03 -0.16946952418E+03 -0.41959665221E+03  0.59407990396E+03  0.00000000000E+00 0.  1.
         22    1    1    2    0    0 -0.40768757229E+03  0.21400164127E+03 -0.27142200702E+04  0.27529977204E+04  0.00000000000E+00 0. -1.
<mgrwt>
<rscale>  0 0.12484828E+04</rscale>
<asrwt>0</asrwt>
<pdfrwt beam="1">  1        2 0.50678005E+00 0.12484828E+04</pdfrwt>
<pdfrwt beam="2">  1       -2 0.18199478E-01 0.12484828E+04</pdfrwt>
<totfact> 0.28391143E+01</totfact>
</mgrwt>
</event>
<event>
 6    1  0.1951355E-006  0.4940093E+04  0.7818608E-02  0.7837815E-01
         -2   -1    0    0    0  501 -0.00000000000E+00  0.00000000000E+00  0.16341216946E+04  0.16341216946E+04  0.00000000000E+00 0.  1.
          2   -1    0    0  501    0  0.00000000000E+00 -0.00000000000E+00 -0.37335830597E+04  0.37335830597E+04  0.00000000000E+00 0. -1.
         23    2    1    2    0    0  0.16611745387E+03 -0.13120199083E+04 -0.33158155734E+04  0.35708995873E+04  0.87747920617E+02 0.  0.
         13    1    3    3    0    0  0.62249990449E+02 -0.76520365049E+03 -0.19928444608E+04  0.21356124960E+04  0.00000000000E+00 0.  1.
        -13    1    3    3    0    0  0.10386746343E+03 -0.54681625778E+03 -0.13229711126E+04  0.14352870913E+04  0.00000000000E+00 0. -1.
         22    1    1    2    0    0 -0.16611745387E+03  0.13120199083E+04  0.12163542083E+04  0.17968051670E+04  0.00000000000E+00 0.  1.
<mgrwt>
<rscale>  0 0.49400927E+04</rscale>
<asrwt>0</asrwt>
<pdfrwt beam="1">  1        2 0.57439739E+00 0.49400927E+04</pdfrwt>
<pdfrwt beam="2">  1       -2 0.25140334E+00 0.49400927E+04</pdfrwt>
<totfact> 0.25319318E-02</totfact>
</mgrwt>
</event>
<event>
 6    1  0.1603085E-006  0.2492106E+04  0.7818608E-02  0.8405803E-01
         -1   -1    0    0    0  501 -0.00000000000E+00  0.00000000000E+00  0.95331213744E+03  0.95331213744E+03  0.00000000000E+00 0.  1.
          1   -1    0    0  501    0  0.00000000000E+00 -0.00000000000E+00 -0.16286881991E+04  0.16286881991E+04  0.00000000000E+00 0. -1.
         23    2    1    2    0    0 -0.33885227284E+02 -0.85162623611E+03  0.59938213167E+03  0.10485650082E+04  0.11753374844E+03 0.  0.
         11    1    3    3    0    0 -0.14191126852E+02 -0.30784232623E+03  0.14943039814E+03  0.34248756151E+03  0.00000000000E+00 0. -1.
        -11    1    3    3    0    0 -0.19694100431E+02 -0.54378390988E+03  0.44995173353E+03  0.70607744670E+03  0.00000000000E+00 0.  1.
         22    1    1    2    0    0  0.33885227284E+02  0.85162623611E+03 -0.12747581933E+04  0.15334353283E+04  0.00000000000E+00 0. -1.
<mgrwt>
<rscale>  0 0.24921061E+04</rscale>
<asrwt>0</asrwt>
<pdfrwt beam="1">  1        1 0.25056742E+00 0.24921061E+04</pdfrwt>
<pdfrwt beam="2">  1       -1 0.14666341E+00 0.24921061E+04</pdfrwt>
<totfact> 0.17571281E+00</totfact>
</mgrwt>
</event>
<event>
 6    1  0.1603085E-006  0.9310104E+03  0.7818608E-02  0.9387626E-01
          2   -1    0    0  501    0  0.00000000000E+00  0.00000000000E+00  0.41560299272E+04  0.41560299272E+04  0.00000000000E+00 0. -1.
         -2   -1    0    0    0  501 -0.00000000000E+00 -0.00000000000E+00 -0.52139925101E+02  0.52139925101E+02  0.00000000000E+00 0.  1.
         23    2    1    2    0    0  0.14555289368E+03 -0.15483259717E+03  0.39210295963E+04  0.39278188116E+04  0.90159546416E+02 0.  0.
         13    1    3    3    0    0  0.31058858908E+02 -0.95336188039E+02  0.14929351656E+04  0.14962984496E+04  0.00000000000E+00 0. -1.
        -13    1    3    3    0    0  0.11449403478E+03 -0.59496409134E+02  0.24280944307E+04  0.24315203620E+04  0.00000000000E+00 0.  1.
         22    1    1    2    0    0 -0.14555289368E+03  0.15483259717E+03  0.18286040581E+03  0.28035104070E+03  0.00000000000E+00 0.  1.
<mgrwt>
<rscale>  0 0.93101040E+03</rscale>
<asrwt>0</asrwt>
<pdfrwt beam="1">  1        2 0.63938896E+00 0.93101040E+03</pdfrwt>
<pdfrwt beam="2">  1       -2 0.80215302E-02 0.93101040E+03</pdfrwt>
<totfact> 0.26800762E+01</totfact>
</mgrwt>
</event>
<event>
 6    1  0.1603085E-006  0.2213607E+04  0.7818608E-02  0.8512786E-01
          2   -1    0    0  501    0  0.00000000000E+00  0.00000000000E+00  0.68167928890E+03  0.68167928890E+03  0.00000000000E+00 0. -1.
         -2   -1    0    0    0  501 -0.00000000000E+00 -0.00000000000E+00 -0.17970536136E+04  0.17970536136E+04  0.00000000000E+00 0.  1.
         23    2    1    2    0    0  0.83239716850E+03  0.50611091879E+03  0.25592703235E+02  0.97845323955E+03  0.87649570830E+02 0.  0.
         11    1    3    3    0    0  0.34525028559E+03  0.20890568751E+03 -0.32567691409E+02  0.40484565022E+03  0.00000000000E+00 0. -1.
        -11    1    3    3    0    0  0.48714688291E+03  0.29720523128E+03  0.58160394644E+02  0.57360758933E+03  0.00000000000E+00 0.  1.
         22    1    1    2    0    0 -0.83239716850E+03 -0.50611091879E+03 -0.11409670280E+04  0.15002796630E+04  0.00000000000E+00 0.  1.
<mgrwt>
<rscale>  0 0.22136072E+04</rscale>
<asrwt>0</asrwt>
<pdfrwt beam="1">  1        2 0.10487374E+00 0.22136072E+04</pdfrwt>
<pdfrwt beam="2">  1       -2 0.27646978E+00 0.22136072E+04</pdfrwt>
<totfact> 0.17121127E+00</totfact>
</mgrwt>
</event>
<event>
 6    1  0.1603085E-006  0.5593413E+04  0.7818608E-02  0.7742965E-01
          2   -1    0    0  501    0  0.00000000000E+00  0.00000000000E+00  0.36843093622E+04  0.36843093622E+04  0.00000000000E+00 0. -1.
         -2   -1    0    0    0  501 -0.00000000000E+00 -0.00000000000E+00 -0.21229396715E+04  0.21229396715E+04  0.00000000000E+00 0.  1.
         23    2    1    2    0    0  0.23774515271E+04 -0.10338050781E+04 -0.30626724197E+03  0.26120813674E+04  0.90226068363E+02 0.  0.
         11    1    3    3    0    0  0.11275115851E+04 -0.44808440682E+03 -0.16643344249E+03  0.12246477456E+04  0.00000000000E+00 0.  1.
        -11    1    3    3    0    0  0.12499399420E+04 -0.58572067132E+03 -0.13983379948E+03  0.13874336218E+04  0.00000000000E+00 0. -1.
         22    1    1    2    0    0 -0.23774515271E+04  0.10338050781E+04  0.18676369327E+04  0.31951676663E+04  0.00000000000E+00 0. -1.
<mgrwt>
<rscale>  0 0.55934127E+04</rscale>
<asrwt>0</asrwt>
<pdfrwt beam="1">  1        2 0.56681683E+00 0.55934127E+04</pdfrwt>
<pdfrwt beam="2">  1       -2 0.32660610E+00 0.55934127E+04</pdfrwt>
<totfact> 0.90472714E-03</totfact>
</mgrwt>
</event>
<event>
 6    1  0.1603085E-006  0.3274794E+04  0.7818608E-02  0.8169339E-01
          1   -1    0    0  501    0  0.00000000000E+00  0.00000000000E+00  0.12255885374E+04  0.12255885374E+04  0.00000000000E+00 0. -1.
         -1   -1    0    0    0  501 -0.00000000000E+00 -0.00000000000E+00 -0.21875765057E+04  0.21875765057E+04  0.00000000000E+00 0.  1.
         23    2    1    2    0    0 -0.15317479815E+04  0.40979002188E+03 -0.60933633984E+02  0.15894110426E+04  0.91295200177E+02 0.  0.
         11    1    3    3    0    0 -0.20347016200E+03  0.25804554819E+02  0.51719053497E+01  0.20516512979E+03  0.00000000000E+00 0. -1.
        -11    1    3    3    0    0 -0.13282778195E+04  0.38398546706E+03 -0.66105539334E+02  0.13842459128E+04  0.00000000000E+00 0.  1.
         22    1    1    2    0    0  0.15317479815E+04 -0.40979002188E+03 -0.90105433427E+03  0.18237540005E+04  0.00000000000E+00 0. -1.
<mgrwt>
<rscale>  0 0.32747939E+04</rscale>
<asrwt>0</asrwt>
<pdfrwt beam="1">  1        1 0.18855209E+00 0.32747939E+04</pdfrwt>
<pdfrwt beam="2">  1       -1 0.33655023E+00 0.32747939E+04</pdfrwt>
<totfact> 0.16219145E-01</totfact>
</mgrwt>
</event>
<event>
 6    1  0.1603085E-006  0.2884491E+04  0.7818608E-02  0.8277507E-01
         -2   -1    0    0    0  501 -0.00000000000E+00  0.00000000000E+00  0.15545660481E+04  0.15545660481E+04  0.00000000000E+00 0.  1.
          2   -1    0    0  501    0  0.00000000000E+00 -0.00000000000E+00 -0.13380399459E+04  0.13380399459E+04  0.00000000000E+00 0. -1.
         23    2    1    2    0    0 -0.70350744632E+03 -0.11249816787E+04  0.67155763825E+03  0.14899085201E+04  0.91275585531E+02 0.  0.
         13    1    3    3    0    0 -0.36401265034E+03 -0.49839340150E+03  0.30033386908E+03  0.68636843254E+03  0.00000000000E+00 0. -1.
        -13    1    3    3    0    0 -0.33949479599E+03 -0.62658827718E+03  0.37122376916E+03  0.80354008761E+03  0.00000000000E+00 0.  1.
         22    1    1    2    0    0  0.70350744632E+03  0.11249816787E+04 -0.45503153605E+03  0.14026974739E+04  0.00000000000E+00 0. -1.
<mgrwt>
<rscale>  0 0.28844906E+04</rscale>
<asrwt>0</asrwt>
<pdfrwt beam="1">  1        2 0.20585230E+00 0.28844906E+04</pdfrwt>
<pdfrwt beam="2">  1       -2 0.23916401E+00 0.28844906E+04</pdfrwt>
<totfact> 0.10177560E+00</totfact>
</mgrwt>
</event>
<event>
 6    1  0.1603085E-006  0.3427716E+04  0.7818608E-02  0.8131137E-01
          1   -1    0    0  501    0  0.00000000000E+00  0.00000000000E+00  0.16123393766E+04  0.16123393766E+04  0.00000000000E+00 0. -1.
         -1   -1    0    0    0  501 -0.00000000000E+00 -0.00000000000E+00 -0.18217690016E+04  0.18217690016E+04  0.00000000000E+00 0.  1.
         23    2    1    2    0    0 -0.13166960457E+04  0.60149080200E+03 -0.10216500150E+04  0.17742344000E+04  0.93055313174E+02 0.  0.
         11    1    3    3    0    0 -0.90781966128E+03  0.39467354804E+03 -0.64972200520E+03  0.11840787267E+04  0.00000000000E+00 0.  1.
        -11    1    3    3    0    0 -0.40887638443E+03  0.20681725397E+03 -0.37192800979E+03  0.59015567332E+03  0.00000000000E+00 0. -1.
         22    1    1    2    0    0  0.13166960457E+04 -0.60149080200E+03  0.81222039002E+03  0.16598739782E+04  0.00000000000E+00 0. -1.
<mgrwt>
<rscale>  0 0.34277164E+04</rscale>
<asrwt>0</asrwt>
<pdfrwt beam="1">  1        1 0.24805221E+00 0.34277164E+04</pdfrwt>
<pdfrwt beam="2">  1       -1 0.28027215E+00 0.34277164E+04</pdfrwt>
<totfact> 0.19908637E-01</totfact>
</mgrwt>
</event>
<event>
 6    1  0.1603085E-006  0.1879485E+04  0.7818608E-02  0.8665136E-01
         -2   -1    0    0    0  501 -0.00000000000E+00  0.00000000000E+00  0.88911408112E+03  0.88911408112E+03  0.00000000000E+00 0.  1.
          2   -1    0    0  501    0  0.00000000000E+00 -0.00000000000E+00 -0.99325395374E+03  0.99325395374E+03  0.00000000000E+00 0. -1.
         23    2    1    2    0    0  0.35443352179E+03  0.10702209375E+03  0.81045089979E+03  0.89568007462E+03  0.91297783041E+02 0.  0.
         11    1    3    3    0    0  0.17257195767E+03  0.97568614863E+02  0.39030057569E+03  0.43776164126E+03  0.00000000000E+00 0. -1.
        -11    1    3    3    0    0  0.18186156411E+03  0.94534788905E+01  0.42015032410E+03  0.45791843335E+03  0.00000000000E+00 0.  1.
         22    1    1    2    0    0 -0.35443352179E+03 -0.10702209375E+03 -0.91459077241E+03  0.98668796025E+03  0.00000000000E+00 0. -1.
<mgrwt>
<rscale>  0 0.18794851E+04</rscale>
<asrwt>0</asrwt>
<pdfrwt beam="1">  1        2 0.15280830E+00 0.18794851E+04</pdfrwt>
<pdfrwt beam="2">  1       -2 0.13678678E+00 0.18794851E+04</pdfrwt>
<totfact> 0.91035193E+00</totfact>
</mgrwt>
</event>
<event>
 6    1  0.1603085E-006  0.2397926E+04  0.7818608E-02  0.8440280E-01
         -1   -1    0    0    0  501 -0.00000000000E+00  0.00000000000E+00  0.13984619256E+04  0.13984619256E+04  0.00000000000E+00 0.  1.
          1   -1    0    0  501    0  0.00000000000E+00 -0.00000000000E+00 -0.10279237691E+04  0.10279237691E+04  0.00000000000E+00 0. -1.
         23    2    1    2    0    0 -0.60356626627E+03  0.52479126529E+02  0.12310697348E+04  0.13739785046E+04  0.72373632381E+02 0.  0.
         13    1    3    3    0    0 -0.48483049324E+03  0.34282539484E+02  0.91951997181E+03  0.10400734966E+04  0.00000000000E+00 0.  1.
        -13    1    3    3    0    0 -0.11873577304E+03  0.18196587045E+02  0.31154976295E+03  0.33390500801E+03  0.00000000000E+00 0. -1.
         22    1    1    2    0    0  0.60356626627E+03 -0.52479126529E+02 -0.86053157835E+03  0.10524071901E+04  0.00000000000E+00 0. -1.
<mgrwt>
<rscale>  0 0.23979260E+04</rscale>
<asrwt>0</asrwt>
<pdfrwt beam="1">  1        1 0.15814212E+00 0.23979260E+04</pdfrwt>
<pdfrwt beam="2">  1       -1 0.21514799E+00 0.23979260E+04</pdfrwt>
<totfact> 0.15303502E+00</totfact>
</mgrwt>
</event>
<event>
 6    1  0.1603085E-006  0.7945998E+03  0.7818608E-02  0.9567867E-01
         -2   -1    0    0    0  501 -0.00000000000E+00  0.00000000000E+00  0.17519412261E+03  0.17519412261E+03  0.00000000000E+00 0.  1.
          2   -1    0    0  501    0  0.00000000000E+00 -0.00000000000E+00 -0.90098457309E+03  0.90098457309E+03  0.00000000000E+00 0. -1.
         23    2    1    2    0    0 -0.16810059544E+03  0.17997513138E+01  0.11254216194E+03  0.22115669696E+03  0.89350417468E+02 0.  0.
         11    1    3    3    0    0 -0.12117319055E+03  0.35737607341E+02  0.49861180950E+02  0.13581699471E+03  0.00000000000E+00 0.  1.
        -11    1    3    3    0    0 -0.46927404897E+02 -0.33937856028E+02  0.62680980992E+02  0.85339702251E+02  0.00000000000E+00 0. -1.
         22    1    1    2    0    0  0.16810059544E+03 -0.17997513138E+01 -0.83833261242E+03  0.85502199874E+03  0.00000000000E+00 0. -1.
<mgrwt>
<rscale>  0 0.79459978E+03</rscale>
<asrwt>0</asrwt>
<pdfrwt beam="1">  1        2 0.13861301E+00 0.79459978E+03</pdfrwt>
<pdfrwt beam="2">  1       -2 0.26952942E-01 0.79459978E+03</pdfrwt>
<totfact> 0.36757421E+02</totfact>
</mgrwt>
</event>
<event>
 6    1  0.1603085E-006  0.5502274E+04  0.7818608E-02  0.7755376E-01
          1   -1    0    0  501    0  0.00000000000E+00  0.00000000000E+00  0.36128994171E+04  0.36128994171E+04  0.00000000000E+00 0. -1.
         -1   -1    0    0    0  501 -0.00000000000E+00 -0.00000000000E+00 -0.20949252032E+04  0.20949252032E+04  0.00000000000E+00 0.  1.
         23    2    1    2    0    0 -0.29294755684E+03 -0.79703440694E+03 -0.19545636656E+04  0.21329677783E+04  0.90279031085E+02 0.  0.
         11    1    3    3    0    0 -0.44775434360E+02 -0.52233844356E+02 -0.16627941621E+03  0.17995015497E+03  0.00000000000E+00 0.  1.
        -11    1    3    3    0    0 -0.24817212248E+03 -0.74480056259E+03 -0.17882842493E+04  0.19530176233E+04  0.00000000000E+00 0. -1.
         22    1    1    2    0    0  0.29294755684E+03  0.79703440694E+03  0.34725378795E+04  0.35748568421E+04  0.00000000000E+00 0. -1.
<mgrwt>
<rscale>  0 0.55022737E+04</rscale>
<asrwt>0</asrwt>
<pdfrwt beam="1">  1        1 0.55583068E+00 0.55022737E+04</pdfrwt>
<pdfrwt beam="2">  1       -1 0.32229619E+00 0.55022737E+04</pdfrwt>
<totfact> 0.33279659E-03</totfact>
</mgrwt>
</event>
<event>
 6    1  0.1603085E-006  0.2063672E+04  0.7818608E-02  0.8577417E-01
          2   -1    0    0  501    0  0.00000000000E+00  0.00000000000E+00  0.62383838963E+03  0.62383838963E+03  0.00000000000E+00 0. -1.
         -2   -1    0    0    0  501 -0.00000000000E+00 -0.00000000000E+00 -0.17066683071E+04  0.17066683071E+04  0.00000000000E+00 0.  1.
         23    2    1    2    0    0 -0.31497763505E+03  0.70190035692E+03 -0.13155446770E+04  0.15267460477E+04  0.91764238613E+02 0.  0.
         11    1    3    3    0    0 -0.24998673231E+03  0.47371114834E+03 -0.95972598804E+03  0.10990766991E+04  0.00000000000E+00 0. -1.
        -11    1    3    3    0    0 -0.64990902735E+02  0.22818920857E+03 -0.35581868892E+03  0.42766934860E+03  0.00000000000E+00 0.  1.
         22    1    1    2    0    0  0.31497763505E+03 -0.70190035692E+03  0.23271475950E+03  0.80376064902E+03  0.00000000000E+00 0. -1.
<mgrwt>
<rscale>  0 0.20636717E+04</rscale>
<asrwt>0</asrwt>
<pdfrwt beam="1">  1        2 0.95975138E-01 0.20636717E+04</pdfrwt>
<pdfrwt beam="2">  1       -2 0.26256435E+00 0.20636717E+04</pdfrwt>
<totfact> 0.23525076E+00</totfact>
</mgrwt>
</event>
<event>
 6    1  0.1603085E-006  0.1663066E+04  0.7818608E-02  0.8782714E-01
          2   -1    0    0  501    0  0.00000000000E+00  0.00000000000E+00  0.20306647997E+04  0.20306647997E+04  0.00000000000E+00 0. -1.
         -2   -1    0    0    0  501 -0.00000000000E+00 -0.00000000000E+00 -0.34050272301E+03  0.34050272301E+03  0.00000000000E+00 0.  1.
         23    2    1    2    0    0 -0.33397190730E+03 -0.64011543963E+03  0.14286098792E+04  0.16032517962E+04  0.90582141106E+02 0.  0.
         13    1    3    3    0    0 -0.13322020761E+03 -0.35295210837E+03  0.73381616730E+03  0.82511149666E+03  0.00000000000E+00 0.  1.
        -13    1    3    3    0    0 -0.20075169969E+03 -0.28716333126E+03  0.69479371190E+03  0.77814029959E+03  0.00000000000E+00 0. -1.
         22    1    1    2    0    0  0.33397190730E+03  0.64011543963E+03  0.26155219746E+03  0.76791572644E+03  0.00000000000E+00 0.  1.
<mgrwt>
<rscale>  0 0.16630657E+04</rscale>
<asrwt>0</asrwt>
<pdfrwt beam="1">  1        2 0.31240996E+00 0.16630657E+04</pdfrwt>
<pdfrwt beam="2">  1       -2 0.52385036E-01 0.16630657E+04</pdfrwt>
<totfact> 0.21085754E+01</totfact>
</mgrwt>
</event>
<event>
 6    1  0.1603085E-006  0.3349978E+04  0.7818608E-02  0.8150294E-01
          2   -1    0    0  501    0  0.00000000000E+00  0.00000000000E+00  0.23292452227E+04  0.23292452227E+04  0.00000000000E+00 0. -1.
         -2   -1    0    0    0  501 -0.00000000000E+00 -0.00000000000E+00 -0.12045050794E+04  0.12045050794E+04  0.00000000000E+00 0.  1.
         23    2    1    2    0    0  0.10351916084E+04  0.12584723642E+04  0.15965495246E+03  0.16398749675E+04  0.91246082304E+02 0.  0.
         11    1    3    3    0    0  0.92089438792E+03  0.11605212198E+04  0.14876062333E+03  0.14889545656E+04  0.00000000000E+00 0.  1.
        -11    1    3    3    0    0  0.11429722052E+03  0.97951144417E+02  0.10894329131E+02  0.15092040193E+03  0.00000000000E+00 0. -1.
         22    1    1    2    0    0 -0.10351916084E+04 -0.12584723642E+04  0.96508519078E+03  0.18938753346E+04  0.00000000000E+00 0.  1.
<mgrwt>
<rscale>  0 0.33499777E+04</rscale>
<asrwt>0</asrwt>
<pdfrwt beam="1">  1        2 0.35834542E+00 0.33499777E+04</pdfrwt>
<pdfrwt beam="2">  1       -2 0.18530847E+00 0.33499777E+04</pdfrwt>
<totfact> 0.60516819E-01</totfact>
</mgrwt>
</event>
<event>
 6    1  0.1603085E-006  0.7180915E+04  0.7818608E-02  0.7559060E-01
          2   -1    0    0  501    0  0.00000000000E+00  0.00000000000E+00  0.34777519817E+04  0.34777519817E+04  0.00000000000E+00 0. -1.
         -2   -1    0    0    0  501 -0.00000000000E+00 -0.00000000000E+00 -0.37068153094E+04  0.37068153094E+04  0.00000000000E+00 0.  1.
         23    2    1    2    0    0  0.30072885759E+02 -0.22051669190E+04 -0.29485694381E+04  0.36832276899E+04  0.91863841413E+02 0.  0.
         13    1    3    3    0    0  0.11733468585E+02 -0.17393051827E+04 -0.22646358840E+04  0.28555027368E+04  0.00000000000E+00 0. -1.
        -13    1    3    3    0    0  0.18339417175E+02 -0.46586173634E+03 -0.68393355403E+03  0.82772495307E+03  0.00000000000E+00 0.  1.
         22    1    1    2    0    0 -0.30072885759E+02  0.22051669190E+04  0.27195061104E+04  0.35013396013E+04  0.00000000000E+00 0. -1.
<mgrwt>
<rscale>  0 0.71809148E+04</rscale>
<asrwt>0</asrwt>
<pdfrwt beam="1">  1        2 0.53503877E+00 0.71809148E+04</pdfrwt>
<pdfrwt beam="2">  1       -2 0.57027928E+00 0.71809148E+04</pdfrwt>
<totfact> 0.36164512E-04</totfact>
</mgrwt>
</event>
<event>
 6    1  0.1603085E-006  0.3714200E+04  0.7818608E-02  0.8064822E-01
         -1   -1    0    0    0  501 -0.00000000000E+00  0.00000000000E+00  0.11770944358E+04  0.11770944358E+04  0.00000000000E+00 0.  1.
          1   -1    0    0  501    0  0.00000000000E+00 -0.00000000000E+00 -0.29299437865E+04  0.29299437865E+04  0.00000000000E+00 0. -1.
         23    2    1    2    0    0 -0.14217071325E+04  0.10633559026E+04 -0.27810023978E+03  0.17990386801E+04  0.84991076287E+02 0.  0.
         11    1    3    3    0    0 -0.68817452067E+03  0.46403047309E+03 -0.11745760246E+03  0.83827485900E+03  0.00000000000E+00 0. -1.
        -11    1    3    3    0    0 -0.73353261186E+03  0.59932542946E+03 -0.16064263732E+03  0.96076382113E+03  0.00000000000E+00 0.  1.
         22    1    1    2    0    0  0.14217071325E+04 -0.10633559026E+04 -0.14747491109E+04  0.23079995421E+04  0.00000000000E+00 0. -1.
<mgrwt>
<rscale>  0 0.37142001E+04</rscale>
<asrwt>0</asrwt>
<pdfrwt beam="1">  1        1 0.45076058E+00 0.37142001E+04</pdfrwt>
<pdfrwt beam="2">  1       -1 0.18109145E+00 0.37142001E+04</pdfrwt>
<totfact> 0.11003018E-01</totfact>
</mgrwt>
</event>
<event>
 6    1  0.1603085E-006  0.1697724E+04  0.7818608E-02  0.8762664E-01
          2   -1    0    0  501    0  0.00000000000E+00  0.00000000000E+00  0.16808474977E+04  0.16808474977E+04  0.00000000000E+00 0. -1.
         -2   -1    0    0    0  501 -0.00000000000E+00 -0.00000000000E+00 -0.42869237869E+03  0.42869237869E+03  0.00000000000E+00 0.  1.
         23    2    1    2    0    0 -0.10899534363E+03  0.46100551028E+03  0.14995662861E+04  0.15751071387E+04  0.88641899521E+02 0.  0.
         13    1    3    3    0    0 -0.64359755528E+01  0.19023979941E+03  0.52511145567E+03  0.55854690397E+03  0.00000000000E+00 0. -1.
        -13    1    3    3    0    0 -0.10255936807E+03  0.27076571087E+03  0.97445483048E+03  0.10165602347E+04  0.00000000000E+00 0.  1.
         22    1    1    2    0    0  0.10899534363E+03 -0.46100551028E+03 -0.24741116717E+03  0.53443273766E+03  0.00000000000E+00 0.  1.
<mgrwt>
<rscale>  0 0.16977238E+04</rscale>
<asrwt>0</asrwt>
<pdfrwt beam="1">  1        2 0.25859192E+00 0.16977238E+04</pdfrwt>
<pdfrwt beam="2">  1       -2 0.65952674E-01 0.16977238E+04</pdfrwt>
<totfact> 0.20235842E+01</totfact>
</mgrwt>
</event>
<event>
 6    1  0.1603085E-006  0.1403969E+04  0.7818608E-02  0.8950951E-01
          1   -1    0    0  501    0  0.00000000000E+00  0.00000000000E+00  0.97982825144E+03  0.97982825144E+03  0.00000000000E+00 0. -1.
         -1   -1    0    0    0  501 -0.00000000000E+00 -0.00000000000E+00 -0.50292723775E+03  0.50292723775E+03  0.00000000000E+00 0.  1.
         23    2    1    2    0    0 -0.87496309272E+01 -0.55725690198E+03  0.68500028908E+03  0.88784615219E+03  0.91834541834E+02 0.  0.
         13    1    3    3    0    0 -0.20467005366E+02 -0.31950089595E+03  0.45885449688E+03  0.55950618418E+03  0.00000000000E+00 0. -1.
        -13    1    3    3    0    0  0.11717374439E+02 -0.23775600603E+03  0.22614579220E+03  0.32833996801E+03  0.00000000000E+00 0.  1.
         22    1    1    2    0    0  0.87496309272E+01  0.55725690198E+03 -0.20809927539E+03  0.59490933701E+03  0.00000000000E+00 0.  1.
<mgrwt>
<rscale>  0 0.14039691E+04</rscale>
<asrwt>0</asrwt>
<pdfrwt beam="1">  1        1 0.15074281E+00 0.14039691E+04</pdfrwt>
<pdfrwt beam="2">  1       -1 0.77373421E-01 0.14039691E+04</pdfrwt>
<totfact> 0.25621524E+01</totfact>
</mgrwt>
</event>
<event>
 6    1  0.1603085E-006  0.4369661E+03  0.7818608E-02  0.1031682E+00
          2   -1    0    0  501    0  0.00000000000E+00  0.00000000000E+00  0.21763010665E+03  0.21763010665E+03  0.00000000000E+00 0.  1.
         -2   -1    0    0    0  501 -0.00000000000E+00 -0.00000000000E+00 -0.21933936393E+03  0.21933936393E+03  0.00000000000E+00 0. -1.
         23    2    1    2    0    0 -0.43215093060E+02 -0.16790054395E+03 -0.11793769027E+03  0.22824193153E+03  0.90149562359E+02 0.  0.
         11    1    3    3    0    0 -0.45797708099E+02 -0.61292362462E+02 -0.11140577175E+02  0.77319442724E+02  0.00000000000E+00 0.  1.
        -11    1    3    3    0    0  0.25826150386E+01 -0.10660818148E+03 -0.10679711310E+03  0.15092248880E+03  0.00000000000E+00 0. -1.
         22    1    1    2    0    0  0.43215093060E+02  0.16790054395E+03  0.11622843299E+03  0.20872753906E+03  0.00000000000E+00 0.  1.
<mgrwt>
<rscale>  0 0.43696613E+03</rscale>
<asrwt>0</asrwt>
<pdfrwt beam="1">  1        2 0.33481555E-01 0.43696613E+03</pdfrwt>
<pdfrwt beam="2">  1       -2 0.33744517E-01 0.43696613E+03</pdfrwt>
<totfact> 0.12870244E+03</totfact>
</mgrwt>
</event>
<event>
 6    1  0.1603085E-006  0.2412953E+04  0.7818608E-02  0.8434670E-01
         -2   -1    0    0    0  501 -0.00000000000E+00  0.00000000000E+00  0.70296158320E+03  0.70296158320E+03  0.00000000000E+00 0.  1.
          2   -1    0    0  501    0  0.00000000000E+00 -0.00000000000E+00 -0.20706470283E+04  0.20706470283E+04  0.00000000000E+00 0. -1.
         23    2    1    2    0    0 -0.21502986035E+03 -0.11694388016E+04 -0.90764669578E+03  0.14986730827E+04  0.91507009896E+02 0.  0.
         11    1    3    3    0    0 -0.16014446054E+03 -0.99378433711E+03 -0.73553050958E+03  0.12466991167E+04  0.00000000000E+00 0.  1.
        -11    1    3    3    0    0 -0.54885399814E+02 -0.17565446453E+03 -0.17211618620E+03  0.25197396606E+03  0.00000000000E+00 0. -1.
         22    1    1    2    0    0  0.21502986035E+03  0.11694388016E+04 -0.46003874930E+03  0.12749355288E+04  0.00000000000E+00 0.  1.
<mgrwt>
<rscale>  0 0.24129528E+04</rscale>
<asrwt>0</asrwt>
<pdfrwt beam="1">  1        2 0.31856108E+00 0.24129528E+04</pdfrwt>
<pdfrwt beam="2">  1       -2 0.10814794E+00 0.24129528E+04</pdfrwt>
<totfact> 0.37521319E+00</totfact>
</mgrwt>
</event>
<event>
 6    1  0.1603085E-006  0.8286404E+03  0.7818608E-02  0.9519462E-01
          2   -1    0    0  501    0  0.00000000000E+00  0.00000000000E+00  0.67521512429E+03  0.67521512429E+03  0.00000000000E+00 0. -1.
         -2   -1    0    0    0  501 -0.00000000000E+00 -0.00000000000E+00 -0.25423192938E+03  0.25423192938E+03  0.00000000000E+00 0.  1.
         23    2    1    2    0    0  0.27584019474E+03 -0.34827970553E+02 -0.12376451939E+03  0.31785006808E+03  0.91707191386E+02 0.  0.
         11    1    3    3    0    0  0.35618509891E+02  0.26936436725E+02 -0.21448898176E+02  0.49540943706E+02  0.00000000000E+00 0. -1.
        -11    1    3    3    0    0  0.24022168485E+03 -0.61764407278E+02 -0.10231562121E+03  0.26830912437E+03  0.00000000000E+00 0.  1.
         22    1    1    2    0    0 -0.27584019474E+03  0.34827970553E+02  0.54474771429E+03  0.61159698560E+03  0.00000000000E+00 0. -1.
<mgrwt>
<rscale>  0 0.82864044E+03</rscale>
<asrwt>0</asrwt>
<pdfrwt beam="1">  1        2 0.10387925E+00 0.82864044E+03</pdfrwt>
<pdfrwt beam="2">  1       -2 0.39112605E-01 0.82864044E+03</pdfrwt>
<totfact> 0.26627337E+02</totfact>
</mgrwt>
</event>
<event>
 6    1  0.1603085E-006  0.3728167E+04  0.7818608E-02  0.8061748E-01
         -2   -1    0    0    0  501 -0.00000000000E+00  0.00000000000E+00  0.92256608305E+03  0.92256608305E+03  0.00000000000E+00 0.  1.
          2   -1    0    0  501    0  0.00000000000E+00 -0.00000000000E+00 -0.37664598302E+04  0.37664598302E+04  0.00000000000E+00 0. -1.
         23    2    1    2    0    0  0.96975341278E+03 -0.10576841917E+04 -0.29170504061E+04  0.32521997485E+04  0.92209552810E+02 0.  0.
         11    1    3    3    0    0  0.38087887499E+03 -0.36076350602E+03 -0.10097300732E+04  0.11378812967E+04  0.00000000000E+00 0.  1.
        -11    1    3    3    0    0  0.58887453779E+03 -0.69692068570E+03 -0.19073203329E+04  0.21143184518E+04  0.00000000000E+00 0. -1.
         22    1    1    2    0    0 -0.96975341278E+03  0.10576841917E+04  0.73156658911E+02  0.14368261648E+04  0.00000000000E+00 0.  1.
<mgrwt>
<rscale>  0 0.37281674E+04</rscale>
<asrwt>0</asrwt>
<pdfrwt beam="1">  1        2 0.57945535E+00 0.37281674E+04</pdfrwt>
<pdfrwt beam="2">  1       -2 0.14193324E+00 0.37281674E+04</pdfrwt>
<totfact> 0.14518014E-01</totfact>
</mgrwt>
</event>
<event>
 6    1  0.1603085E-006  0.9750748E+03  0.7818608E-02  0.9336313E-01
          1   -1    0    0  501    0  0.00000000000E+00  0.00000000000E+00  0.16279931536E+04  0.16279931536E+04  0.00000000000E+00 0. -1.
         -1   -1    0    0    0  501 -0.00000000000E+00 -0.00000000000E+00 -0.14600352547E+03  0.14600352547E+03  0.00000000000E+00 0.  1.
         23    2    1    2    0    0 -0.29265364629E+03 -0.22263429976E+03  0.17669376895E+03  0.41789584649E+03  0.90576279505E+02 0.  0.
         11    1    3    3    0    0 -0.27487396000E+03 -0.22016969077E+03  0.18534087473E+03  0.39797189155E+03  0.00000000000E+00 0. -1.
        -11    1    3    3    0    0 -0.17779686296E+02 -0.24646089924E+01 -0.86471057752E+01  0.19923954943E+02  0.00000000000E+00 0.  1.
         22    1    1    2    0    0  0.29265364629E+03  0.22263429976E+03  0.13052958592E+04  0.13561008326E+04  0.00000000000E+00 0. -1.
<mgrwt>
<rscale>  0 0.97507485E+03</rscale>
<asrwt>0</asrwt>
<pdfrwt beam="1">  1        1 0.25046047E+00 0.97507485E+03</pdfrwt>
<pdfrwt beam="2">  1       -1 0.22462082E-01 0.97507485E+03</pdfrwt>
<totfact> 0.90240919E+01</totfact>
</mgrwt>
</event>
<event>
 6    1  0.1603085E-006  0.1418692E+04  0.7818608E-02  0.8940398E-01
         -1   -1    0    0    0  501 -0.00000000000E+00  0.00000000000E+00  0.13454096959E+04  0.13454096959E+04  0.00000000000E+00 0.  1.
          1   -1    0    0  501    0  0.00000000000E+00 -0.00000000000E+00 -0.37399150764E+03  0.37399150764E+03  0.00000000000E+00 0. -1.
         23    2    1    2    0    0  0.60564831832E+03  0.14139952201E+03  0.81254698725E+02  0.63349386477E+03  0.88929412040E+02 0.  0.
         11    1    3    3    0    0  0.35204422356E+03  0.36944867975E+02  0.47596719886E+02  0.35716313689E+03  0.00000000000E+00 0.  1.
        -11    1    3    3    0    0  0.25360409476E+03  0.10445465403E+03  0.33657978839E+02  0.27633072787E+03  0.00000000000E+00 0. -1.
         22    1    1    2    0    0 -0.60564831832E+03 -0.14139952201E+03  0.89016348957E+03  0.10859073388E+04  0.00000000000E+00 0.  1.
<mgrwt>
<rscale>  0 0.14186921E+04</rscale>
<asrwt>0</asrwt>
<pdfrwt beam="1">  1        1 0.57537156E-01 0.14186921E+04</pdfrwt>
<pdfrwt beam="2">  1       -1 0.20698610E+00 0.14186921E+04</pdfrwt>
<totfact> 0.86090474E+00</totfact>
</mgrwt>
</event>
<event>
 6    1  0.1603085E-006  0.4942671E+04  0.7818608E-02  0.7837412E-01
         -3   -1    0    0    0  501 -0.00000000000E+00  0.00000000000E+00  0.31419761835E+04  0.31419761835E+04  0.00000000000E+00 0.  1.
          3   -1    0    0  501    0  0.00000000000E+00 -0.00000000000E+00 -0.19438402265E+04  0.19438402265E+04  0.00000000000E+00 0. -1.
         23    2    1    2    0    0 -0.60211530711E+03 -0.23902228035E+04  0.76987418221E+03  0.25839938661E+04  0.92790896599E+02 0.  0.
         11    1    3    3    0    0 -0.51589638959E+03 -0.18974613909E+04  0.62031459751E+03  0.20618678461E+04  0.00000000000E+00 0. -1.
        -11    1    3    3    0    0 -0.86218917519E+02 -0.49276141259E+03  0.14955958470E+03  0.52212602009E+03  0.00000000000E+00 0.  1.
         22    1    1    2    0    0  0.60211530711E+03  0.23902228035E+04  0.42826177479E+03  0.25018225439E+04  0.00000000000E+00 0.  1.
<mgrwt>
<rscale>  0 0.49426712E+04</rscale>
<asrwt>0</asrwt>
<pdfrwt beam="1">  1        3 0.29905234E+00 0.49426712E+04</pdfrwt>
<pdfrwt beam="2">  1       -3 0.48338095E+00 0.49426712E+04</pdfrwt>
<totfact> 0.27317974E-04</totfact>
</mgrwt>
</event>
<event>
 6    1  0.1603085E-006  0.1849668E+04  0.7818608E-02  0.8680323E-01
         -1   -1    0    0    0  501 -0.00000000000E+00  0.00000000000E+00  0.81560626768E+03  0.81560626768E+03  0.00000000000E+00 0.  1.
          1   -1    0    0  501    0  0.00000000000E+00 -0.00000000000E+00 -0.10486903029E+04  0.10486903029E+04  0.00000000000E+00 0. -1.
         23    2    1    2    0    0  0.15879702317E+03 -0.31291707902E+03  0.74318281683E+03  0.82688124424E+03  0.90985163185E+02 0.  0.
         11    1    3    3    0    0  0.11637503711E+03 -0.13847409805E+03  0.41739743036E+03  0.45490530878E+03  0.00000000000E+00 0. -1.
        -11    1    3    3    0    0  0.42421986066E+02 -0.17444298098E+03  0.32578538648E+03  0.37197593545E+03  0.00000000000E+00 0.  1.
         22    1    1    2    0    0 -0.15879702317E+03  0.31291707902E+03 -0.97626685207E+03  0.10374153264E+04  0.00000000000E+00 0. -1.
<mgrwt>
<rscale>  0 0.18496685E+04</rscale>
<asrwt>0</asrwt>
<pdfrwt beam="1">  1        1 0.16133697E+00 0.18496685E+04</pdfrwt>
<pdfrwt beam="2">  1       -1 0.12547789E+00 0.18496685E+04</pdfrwt>
<totfact> 0.72260321E+00</totfact>
</mgrwt>
</event>
<event>
 6    1  0.1603085E-006  0.1412595E+04  0.7818608E-02  0.8944752E-01
         -2   -1    0    0    0  501 -0.00000000000E+00  0.00000000000E+00  0.23223849829E+03  0.23223849829E+03  0.00000000000E+00 0.  1.
          2   -1    0    0  501    0  0.00000000000E+00 -0.00000000000E+00 -0.21480332650E+04  0.21480332650E+04  0.00000000000E+00 0. -1.
         23    2    1    2    0    0 -0.28352551620E+03 -0.55594932164E+03 -0.15090696765E+04  0.16353612548E+04  0.87457296567E+02 0.  0.
         11    1    3    3    0    0 -0.14349207620E+03 -0.20872974200E+03 -0.53895298583E+03  0.59550684468E+03  0.00000000000E+00 0. -1.
        -11    1    3    3    0    0 -0.14003344000E+03 -0.34721957964E+03 -0.97011669067E+03  0.10398544102E+04  0.00000000000E+00 0.  1.
         22    1    1    2    0    0  0.28352551620E+03  0.55594932164E+03 -0.40672509017E+03  0.74491050841E+03  0.00000000000E+00 0.  1.
<mgrwt>
<rscale>  0 0.14125948E+04</rscale>
<asrwt>0</asrwt>
<pdfrwt beam="1">  1        2 0.33046665E+00 0.14125948E+04</pdfrwt>
<pdfrwt beam="2">  1       -2 0.35729001E-01 0.14125948E+04</pdfrwt>
<totfact> 0.39595599E+01</totfact>
</mgrwt>
</event>
<event>
 6    1  0.1603085E-006  0.1126538E+04  0.7818608E-02  0.9179705E-01
         -2   -1    0    0    0  501 -0.00000000000E+00  0.00000000000E+00  0.26039584577E+03  0.26039584577E+03  0.00000000000E+00 0.  1.
          2   -1    0    0  501    0  0.00000000000E+00 -0.00000000000E+00 -0.12184223462E+04  0.12184223462E+04  0.00000000000E+00 0. -1.
         23    2    1    2    0    0 -0.44751996604E+03 -0.21990494262E+03 -0.14863367446E+03  0.52816102424E+03  0.90718215110E+02 0.  0.
         13    1    3    3    0    0 -0.31574922388E+03 -0.14817518350E+03 -0.60014990580E+02  0.35391419367E+03  0.00000000000E+00 0.  1.
        -13    1    3    3    0    0 -0.13177074216E+03 -0.71729759116E+02 -0.88618683876E+02  0.17424683057E+03  0.00000000000E+00 0. -1.
         22    1    1    2    0    0  0.44751996604E+03  0.21990494262E+03 -0.80939282594E+03  0.95065716769E+03  0.00000000000E+00 0. -1.
<mgrwt>
<rscale>  0 0.11265383E+04</rscale>
<asrwt>0</asrwt>
<pdfrwt beam="1">  1        2 0.18744959E+00 0.11265383E+04</pdfrwt>
<pdfrwt beam="2">  1       -2 0.40060899E-01 0.11265383E+04</pdfrwt>
<totfact> 0.10786512E+02</totfact>
</mgrwt>
</event>
<event>
 6    1  0.1603085E-006  0.1428441E+04  0.7818608E-02  0.8933485E-01
          1   -1    0    0  501    0  0.00000000000E+00  0.00000000000E+00  0.21712585698E+04  0.21712585698E+04  0.00000000000E+00 0. -1.
         -1   -1    0    0    0  501 -0.00000000000E+00 -0.00000000000E+00 -0.23493774410E+03  0.23493774410E+03  0.00000000000E+00 0.  1.
         23    2    1    2    0    0 -0.15154537184E+03  0.33002670344E+03 -0.58291667599E+02  0.37879338820E+03  0.90569794748E+02 0.  0.
         13    1    3    3    0    0 -0.68454048526E+02  0.23967922024E+03 -0.58544969175E+02  0.25604608724E+03  0.00000000000E+00 0. -1.
        -13    1    3    3    0    0 -0.83091323314E+02  0.90347483195E+02  0.25330157610E+00  0.12274730095E+03  0.00000000000E+00 0.  1.
         22    1    1    2    0    0  0.15154537184E+03 -0.33002670344E+03  0.19946124933E+04  0.20274029257E+04  0.00000000000E+00 0. -1.
<mgrwt>
<rscale>  0 0.14284405E+04</rscale>
<asrwt>0</asrwt>
<pdfrwt beam="1">  1        1 0.33403977E+00 0.14284405E+04</pdfrwt>
<pdfrwt beam="2">  1       -1 0.36144270E-01 0.14284405E+04</pdfrwt>
<totfact> 0.16262253E+01</totfact>
</mgrwt>
</event>
<event>
 6    1  0.1603085E-006  0.1089598E+04  0.7818608E-02  0.9215390E-01
         -2   -1    0    0    0  501 -0.00000000000E+00  0.00000000000E+00  0.22415042448E+03  0.22415042448E+03  0.00000000000E+00 0.  1.
          2   -1    0    0  501    0  0.00000000000E+00 -0.00000000000E+00 -0.13241370813E+04  0.13241370813E+04  0.00000000000E+00 0. -1.
         23    2    1    2    0    0  0.28620171275E+03  0.52810675071E+02 -0.12017892930E+04  0.12399627346E+04  0.92247984695E+02 0.  0.
         11    1    3    3    0    0  0.14805667903E+03  0.19360280207E+02 -0.42982636433E+03  0.45502341053E+03  0.00000000000E+00 0. -1.
        -11    1    3    3    0    0  0.13814503372E+03  0.33450394864E+02 -0.77196292863E+03  0.78493932405E+03  0.00000000000E+00 0.  1.
         22    1    1    2    0    0 -0.28620171275E+03 -0.52810675071E+02  0.10180263619E+03  0.30832477117E+03  0.00000000000E+00 0.  1.
<mgrwt>
<rscale>  0 0.10895979E+04</rscale>
<asrwt>0</asrwt>
<pdfrwt beam="1">  1        2 0.20371339E+00 0.10895979E+04</pdfrwt>
<pdfrwt beam="2">  1       -2 0.34484681E-01 0.10895979E+04</pdfrwt>
<totfact> 0.12519103E+02</totfact>
</mgrwt>
</event>
<event>
 6    1  0.1603085E-006  0.2330128E+04  0.7818608E-02  0.8466136E-01
         -1   -1    0    0    0  501 -0.00000000000E+00  0.00000000000E+00  0.48564816585E+03  0.48564816585E+03  0.00000000000E+00 0.  1.
          1   -1    0    0  501    0  0.00000000000E+00 -0.00000000000E+00 -0.27949739393E+04  0.27949739393E+04  0.00000000000E+00 0. -1.
         23    2    1    2    0    0 -0.69360038993E+03 -0.92548281231E+03 -0.13323103392E+04  0.17666342929E+04  0.91356161056E+02 0.  0.
         13    1    3    3    0    0 -0.35754271871E+03 -0.50458429517E+03 -0.77654819962E+03  0.99270802000E+03  0.00000000000E+00 0.  1.
        -13    1    3    3    0    0 -0.33605767122E+03 -0.42089851714E+03 -0.55576213958E+03  0.77392627291E+03  0.00000000000E+00 0. -1.
         22    1    1    2    0    0  0.69360038993E+03  0.92548281231E+03 -0.97701543421E+03  0.15139878122E+04  0.00000000000E+00 0.  1.
<mgrwt>
<rscale>  0 0.23301279E+04</rscale>
<asrwt>0</asrwt>
<pdfrwt beam="1">  1        1 0.42999599E+00 0.23301279E+04</pdfrwt>
<pdfrwt beam="2">  1       -1 0.74715102E-01 0.23301279E+04</pdfrwt>
<totfact> 0.13654707E+00</totfact>
</mgrwt>
</event>
<event>
 6    1  0.1603085E-006  0.5295479E+04  0.7818608E-02  0.7784476E-01
          2   -1    0    0  501    0  0.00000000000E+00  0.00000000000E+00  0.23850630282E+04  0.23850630282E+04  0.00000000000E+00 0. -1.
         -2   -1    0    0    0  501 -0.00000000000E+00 -0.00000000000E+00 -0.29393460294E+04  0.29393460294E+04  0.00000000000E+00 0.  1.
         23    2    1    2    0    0 -0.12610188371E+04  0.20912896780E+04  0.74951394876E+03  0.25560977472E+04  0.90573223795E+02 0.  0.
         11    1    3    3    0    0 -0.99064425703E+03  0.15679082113E+04  0.56968787196E+03  0.19401691871E+04  0.00000000000E+00 0. -1.
        -11    1    3    3    0    0 -0.27037458005E+03  0.52338146668E+03  0.17982607679E+03  0.61592856006E+03  0.00000000000E+00 0.  1.
         22    1    1    2    0    0  0.12610188371E+04 -0.20912896780E+04 -0.13037969500E+04  0.27683113105E+04  0.00000000000E+00 0.  1.
<mgrwt>
<rscale>  0 0.52954794E+04</rscale>
<asrwt>0</asrwt>
<pdfrwt beam="1">  1        2 0.36693277E+00 0.52954794E+04</pdfrwt>
<pdfrwt beam="2">  1       -2 0.45220708E+00 0.52954794E+04</pdfrwt>
<totfact> 0.97136054E-03</totfact>
</mgrwt>
</event>
<event>
 6    1  0.1603085E-006  0.2235872E+04  0.7818608E-02  0.8503644E-01
         -2   -1    0    0    0  501 -0.00000000000E+00  0.00000000000E+00  0.94916360509E+03  0.94916360509E+03  0.00000000000E+00 0. -1.
          2   -1    0    0  501    0  0.00000000000E+00 -0.00000000000E+00 -0.13167186159E+04  0.13167186159E+04  0.00000000000E+00 0.  1.
         23    2    1    2    0    0 -0.10688037318E+02 -0.34118898098E+03  0.89291757823E+03  0.96000500524E+03  0.88225017332E+02 0.  0.
         13    1    3    3    0    0 -0.34231643350E+02 -0.69767133935E+02  0.15477139162E+03  0.17318614855E+03  0.00000000000E+00 0.  1.
        -13    1    3    3    0    0  0.23543606032E+02 -0.27142184705E+03  0.73814618661E+03  0.78681885669E+03  0.00000000000E+00 0. -1.
         22    1    1    2    0    0  0.10688037318E+02  0.34118898098E+03 -0.12604725891E+04  0.13058772158E+04  0.00000000000E+00 0.  1.
<mgrwt>
<rscale>  0 0.22358724E+04</rscale>
<asrwt>0</asrwt>
<pdfrwt beam="1">  1        2 0.20257209E+00 0.22358724E+04</pdfrwt>
<pdfrwt beam="2">  1       -2 0.14602517E+00 0.22358724E+04</pdfrwt>
<totfact> 0.47393510E+00</totfact>
</mgrwt>
</event>
<event>
 6    1  0.1603085E-006  0.1734912E+04  0.7818608E-02  0.8741700E-01
         -3   -1    0    0    0  501 -0.00000000000E+00  0.00000000000E+00  0.57640834003E+03  0.57640834003E+03  0.00000000000E+00 0.  1.
          3   -1    0    0  501    0  0.00000000000E+00 -0.00000000000E+00 -0.13054629372E+04  0.13054629372E+04  0.00000000000E+00 0. -1.
         23    2    1    2    0    0 -0.35323501980E+02  0.63481431841E+03  0.27083105122E+03  0.69696272444E+03  0.90391439340E+02 0.  0.
         11    1    3    3    0    0  0.28516918122E+01  0.51025372407E+03  0.19521723396E+03  0.54633026962E+03  0.00000000000E+00 0.  1.
        -11    1    3    3    0    0 -0.38175193792E+02  0.12456059434E+03  0.75613817263E+02  0.15063245482E+03  0.00000000000E+00 0. -1.
         22    1    1    2    0    0  0.35323501980E+02 -0.63481431841E+03 -0.99988564843E+03  0.11849085528E+04  0.00000000000E+00 0. -1.
<mgrwt>
<rscale>  0 0.17349118E+04</rscale>
<asrwt>0</asrwt>
<pdfrwt beam="1">  1        3 0.20084045E+00 0.17349118E+04</pdfrwt>
<pdfrwt beam="2">  1       -3 0.88678206E-01 0.17349118E+04</pdfrwt>
<totfact> 0.41663973E-01</totfact>
</mgrwt>
</event>
<event>
 6    1  0.1603085E-006  0.2724214E+04  0.7818608E-02  0.8327191E-01
         -2   -1    0    0    0  501 -0.00000000000E+00  0.00000000000E+00  0.81832445440E+03  0.81832445440E+03  0.00000000000E+00 0. -1.
          2   -1    0    0  501    0  0.00000000000E+00 -0.00000000000E+00 -0.22672373682E+04  0.22672373682E+04  0.00000000000E+00 0.  1.
         23    2    1    2    0    0 -0.43941721513E+01 -0.13582294083E+04 -0.63362604205E+03  0.15014219557E+04  0.89328011407E+02 0.  0.
         11    1    3    3    0    0  0.13049628510E+02 -0.71222378458E+03 -0.28596740055E+03  0.76760039493E+03  0.00000000000E+00 0. -1.
        -11    1    3    3    0    0 -0.17443800662E+02 -0.64600562376E+03 -0.34765864150E+03  0.73382156082E+03  0.00000000000E+00 0.  1.
         22    1    1    2    0    0  0.43941721513E+01  0.13582294083E+04 -0.81528687170E+03  0.15841398668E+04  0.00000000000E+00 0.  1.
<mgrwt>
<rscale>  0 0.27242142E+04</rscale>
<asrwt>0</asrwt>
<pdfrwt beam="1">  1        2 0.34880574E+00 0.27242142E+04</pdfrwt>
<pdfrwt beam="2">  1       -2 0.12589607E+00 0.27242142E+04</pdfrwt>
<totfact> 0.19508733E+00</totfact>
</mgrwt>
</event>
<event>
 6    1  0.1603085E-006  0.9022330E+03  0.7818608E-02  0.9422794E-01
         -1   -1    0    0    0  501 -0.00000000000E+00  0.00000000000E+00  0.64262431777E+03  0.64262431777E+03  0.00000000000E+00 0.  1.
          1   -1    0    0  501    0  0.00000000000E+00 -0.00000000000E+00 -0.31667972390E+03  0.31667972390E+03  0.00000000000E+00 0. -1.
         23    2    1    2    0    0 -0.39212633939E+03  0.15271530873E+03  0.32426917797E+03  0.53848598290E+03  0.87929644775E+02 0.  0.
         11    1    3    3    0    0 -0.24448659803E+02 -0.48850243676E+01  0.42179825005E+02  0.48997327139E+02  0.00000000000E+00 0. -1.
        -11    1    3    3    0    0 -0.36767767959E+03  0.15760033310E+03  0.28208935296E+03  0.48948865576E+03  0.00000000000E+00 0.  1.
         22    1    1    2    0    0  0.39212633939E+03 -0.15271530873E+03  0.16754158985E+01  0.42081805877E+03  0.00000000000E+00 0. -1.
<mgrwt>
<rscale>  0 0.90223299E+03</rscale>
<asrwt>0</asrwt>
<pdfrwt beam="1">  1        1 0.48719958E-01 0.90223299E+03</pdfrwt>
<pdfrwt beam="2">  1       -1 0.98865279E-01 0.90223299E+03</pdfrwt>
<totfact> 0.80579701E+01</totfact>
</mgrwt>
</event>
<event>
 6    1  0.1603085E-006  0.9524825E+03  0.7818608E-02  0.9362254E-01
         -1   -1    0    0    0  501 -0.00000000000E+00  0.00000000000E+00  0.92283581552E+03  0.92283581552E+03  0.00000000000E+00 0.  1.
          1   -1    0    0  501    0  0.00000000000E+00 -0.00000000000E+00 -0.24577038091E+03  0.24577038091E+03  0.00000000000E+00 0. -1.
         23    2    1    2    0    0  0.19200202049E+03  0.18177497312E+03  0.82119758680E+03  0.86747334531E+03  0.90761288807E+02 0.  0.
         11    1    3    3    0    0  0.18329182613E+03  0.13283827298E+03  0.71966616540E+03  0.75442778973E+03  0.00000000000E+00 0.  1.
        -11    1    3    3    0    0  0.87101943580E+01  0.48936700145E+02  0.10153142139E+03  0.11304555558E+03  0.00000000000E+00 0. -1.
         22    1    1    2    0    0 -0.19200202049E+03 -0.18177497312E+03 -0.14413215218E+03  0.30113285111E+03  0.00000000000E+00 0. -1.
<mgrwt>
<rscale>  0 0.95248246E+03</rscale>
<asrwt>0</asrwt>
<pdfrwt beam="1">  1        1 0.37810828E-01 0.95248246E+03</pdfrwt>
<pdfrwt beam="2">  1       -1 0.14197474E+00 0.95248246E+03</pdfrwt>
<totfact> 0.46203358E+01</totfact>
</mgrwt>
</event>
<event>
 6    1  0.1603085E-006  0.4726957E+04  0.7818608E-02  0.7872065E-01
         -1   -1    0    0    0  501 -0.00000000000E+00  0.00000000000E+00  0.18140088377E+04  0.18140088377E+04  0.00000000000E+00 0.  1.
          1   -1    0    0  501    0  0.00000000000E+00 -0.00000000000E+00 -0.30793848824E+04  0.30793848824E+04  0.00000000000E+00 0. -1.
         23    2    1    2    0    0  0.17260413866E+04 -0.80293991210E+03  0.81545101934E+03  0.20731503545E+04  0.95187482887E+02 0.  0.
         13    1    3    3    0    0  0.14800063230E+04 -0.71651210676E+03  0.68113773358E+03  0.17798193525E+04  0.00000000000E+00 0. -1.
        -13    1    3    3    0    0  0.24603506352E+03 -0.86427805346E+02  0.13431328577E+03  0.29333100203E+03  0.00000000000E+00 0.  1.
         22    1    1    2    0    0 -0.17260413866E+04  0.80293991210E+03 -0.20808270640E+04  0.28202433656E+04  0.00000000000E+00 0.  1.
<mgrwt>
<rscale>  0 0.47269573E+04</rscale>
<asrwt>0</asrwt>
<pdfrwt beam="1">  1        1 0.47375152E+00 0.47269573E+04</pdfrwt>
<pdfrwt beam="2">  1       -1 0.27907828E+00 0.47269573E+04</pdfrwt>
<totfact> 0.17394632E-02</totfact>
</mgrwt>
</event>
<event>
 6    1  0.1603085E-006  0.2532243E+04  0.7818608E-02  0.8391588E-01
          2   -1    0    0  501    0  0.00000000000E+00  0.00000000000E+00  0.12096904580E+04  0.12096904580E+04  0.00000000000E+00 0. -1.
         -2   -1    0    0    0  501 -0.00000000000E+00 -0.00000000000E+00 -0.13251844924E+04  0.13251844924E+04  0.00000000000E+00 0.  1.
         23    2    1    2    0    0  0.10891150630E+04  0.56312060519E+03 -0.36725101010E+03  0.12832128509E+04  0.92116663561E+02 0.  0.
         11    1    3    3    0    0  0.15634937905E+03  0.46360052817E+02 -0.54658225118E+02  0.17199390803E+03  0.00000000000E+00 0. -1.
        -11    1    3    3    0    0  0.93276568400E+03  0.51676055237E+03 -0.31259278498E+03  0.11112189428E+04  0.00000000000E+00 0.  1.
         22    1    1    2    0    0 -0.10891150630E+04 -0.56312060519E+03  0.25175697575E+03  0.12516620995E+04  0.00000000000E+00 0. -1.
<mgrwt>
<rscale>  0 0.25322425E+04</rscale>
<asrwt>0</asrwt>
<pdfrwt beam="1">  1        2 0.18610622E+00 0.25322425E+04</pdfrwt>
<pdfrwt beam="2">  1       -2 0.20387454E+00 0.25322425E+04</pdfrwt>
<totfact> 0.20856805E+00</totfact>
</mgrwt>
</event>
<event>
 6    1  0.1603085E-006  0.1756961E+04  0.7818608E-02  0.8729528E-01
         -2   -1    0    0    0  501 -0.00000000000E+00  0.00000000000E+00  0.23779347310E+03  0.23779347310E+03  0.00000000000E+00 0.  1.
          2   -1    0    0  501    0  0.00000000000E+00 -0.00000000000E+00 -0.32453696825E+04  0.32453696825E+04  0.00000000000E+00 0. -1.
         23    2    1    2    0    0 -0.41186073309E+03 -0.76352974487E+03 -0.12666302014E+04  0.15380410675E+04  0.92797217226E+02 0.  0.
         13    1    3    3    0    0 -0.31360303738E+03 -0.64587416581E+03 -0.10118363994E+04  0.12406906151E+04  0.00000000000E+00 0. -1.
        -13    1    3    3    0    0 -0.98257695710E+02 -0.11765557905E+03 -0.25479380196E+03  0.29735045244E+03  0.00000000000E+00 0.  1.
         22    1    1    2    0    0  0.41186073309E+03  0.76352974487E+03 -0.17409460080E+04  0.19451220881E+04  0.00000000000E+00 0.  1.
<mgrwt>
<rscale>  0 0.17569607E+04</rscale>
<asrwt>0</asrwt>
<pdfrwt beam="1">  1        2 0.49928760E+00 0.17569607E+04</pdfrwt>
<pdfrwt beam="2">  1       -2 0.36583615E-01 0.17569607E+04</pdfrwt>
<totfact> 0.81215702E+00</totfact>
</mgrwt>
</event>
<event>
 6    1  0.1603085E-006  0.5221020E+03  0.7818608E-02  0.1008166E+00
          1   -1    0    0  501    0  0.00000000000E+00  0.00000000000E+00  0.51873265338E+03  0.51873265338E+03  0.00000000000E+00 0. -1.
         -1   -1    0    0    0  501 -0.00000000000E+00 -0.00000000000E+00 -0.13137330654E+03  0.13137330654E+03  0.00000000000E+00 0.  1.
         23    2    1    2    0    0  0.14917531379E+03 -0.12827842252E+03  0.39768988459E+03  0.45308984905E+03  0.91785287932E+02 0.  0.
         11    1    3    3    0    0 -0.66523382639E+01 -0.29856138864E+02  0.82231576873E+02  0.87736394201E+02  0.00000000000E+00 0. -1.
        -11    1    3    3    0    0  0.15582765206E+03 -0.98422283653E+02  0.31545830772E+03  0.36535345485E+03  0.00000000000E+00 0.  1.
         22    1    1    2    0    0 -0.14917531379E+03  0.12827842252E+03 -0.10330537748E+02  0.19701611086E+03  0.00000000000E+00 0.  1.
<mgrwt>
<rscale>  0 0.52210200E+03</rscale>
<asrwt>0</asrwt>
<pdfrwt beam="1">  1        1 0.79805023E-01 0.52210200E+03</pdfrwt>
<pdfrwt beam="2">  1       -1 0.20211278E-01 0.52210200E+03</pdfrwt>
<totfact> 0.85119522E+02</totfact>
</mgrwt>
</event>
<event>
 6    1  0.1603085E-006  0.1790636E+04  0.7818608E-02  0.8711295E-01
          2   -1    0    0  501    0  0.00000000000E+00  0.00000000000E+00  0.85110648850E+03  0.85110648850E+03  0.00000000000E+00 0. -1.
         -2   -1    0    0    0  501 -0.00000000000E+00 -0.00000000000E+00 -0.94182659028E+03  0.94182659028E+03  0.00000000000E+00 0.  1.
         23    2    1    2    0    0  0.19238527088E+02  0.50313218675E+03 -0.78377290051E+03  0.93629178856E+03  0.93969332661E+02 0.  0.
         13    1    3    3    0    0  0.39884275690E+02  0.13903910003E+03 -0.17979703481E+03  0.23075874959E+03  0.00000000000E+00 0. -1.
        -13    1    3    3    0    0 -0.20645748602E+02  0.36409308671E+03 -0.60397586570E+03  0.70553303897E+03  0.00000000000E+00 0.  1.
         22    1    1    2    0    0 -0.19238527088E+02 -0.50313218675E+03  0.69305279873E+03  0.85664129021E+03  0.00000000000E+00 0. -1.
<mgrwt>
<rscale>  0 0.17906364E+04</rscale>
<asrwt>0</asrwt>
<pdfrwt beam="1">  1        2 0.13093946E+00 0.17906364E+04</pdfrwt>
<pdfrwt beam="2">  1       -2 0.14489640E+00 0.17906364E+04</pdfrwt>
<totfact> 0.98239951E+00</totfact>
</mgrwt>
</event>
<event>
 6    1  0.1603085E-006  0.3772355E+04  0.7818608E-02  0.8052114E-01
         -2   -1    0    0    0  501 -0.00000000000E+00  0.00000000000E+00  0.20234228563E+04  0.20234228563E+04  0.00000000000E+00 0. -1.
          2   -1    0    0  501    0  0.00000000000E+00 -0.00000000000E+00 -0.17582408535E+04  0.17582408535E+04  0.00000000000E+00 0.  1.
         23    2    1    2    0    0  0.11065589128E+04 -0.10036796743E+04  0.12851718028E+04  0.19727345491E+04  0.90385409785E+02 0.  0.
         11    1    3    3    0    0  0.33959063515E+03 -0.36516080198E+03  0.43450790910E+03  0.66140859826E+03  0.00000000000E+00 0. -1.
        -11    1    3    3    0    0  0.76696827765E+03 -0.63851887229E+03  0.85066389373E+03  0.13113259508E+04  0.00000000000E+00 0.  1.
         22    1    1    2    0    0 -0.11065589128E+04  0.10036796743E+04 -0.10199898000E+04  0.18089291606E+04  0.00000000000E+00 0.  1.
<mgrwt>
<rscale>  0 0.37723546E+04</rscale>
<asrwt>0</asrwt>
<pdfrwt beam="1">  1        2 0.27049859E+00 0.37723546E+04</pdfrwt>
<pdfrwt beam="2">  1       -2 0.31129582E+00 0.37723546E+04</pdfrwt>
<totfact> 0.19816343E-01</totfact>
</mgrwt>
</event>
<event>
 6    1  0.1603085E-006  0.1379509E+04  0.7818608E-02  0.8968786E-01
          1   -1    0    0  501    0  0.00000000000E+00  0.00000000000E+00  0.17642015619E+04  0.17642015619E+04  0.00000000000E+00 0. -1.
         -1   -1    0    0    0  501 -0.00000000000E+00 -0.00000000000E+00 -0.26967517101E+03  0.26967517101E+03  0.00000000000E+00 0.  1.
         23    2    1    2    0    0 -0.38048687383E+02  0.11302160519E+03  0.17476397333E+04  0.17540768937E+04  0.91211434812E+02 0.  0.
         11    1    3    3    0    0 -0.25205836089E+02  0.88731190290E+02  0.16518730557E+04  0.16544464786E+04  0.00000000000E+00 0. -1.
        -11    1    3    3    0    0 -0.12842851295E+02  0.24290414897E+02  0.95766677562E+02  0.99630415117E+02  0.00000000000E+00 0.  1.
         22    1    1    2    0    0  0.38048687383E+02 -0.11302160519E+03 -0.25311334246E+03  0.27979983914E+03  0.00000000000E+00 0.  1.
<mgrwt>
<rscale>  0 0.13795091E+04</rscale>
<asrwt>0</asrwt>
<pdfrwt beam="1">  1        1 0.27141562E+00 0.13795091E+04</pdfrwt>
<pdfrwt beam="2">  1       -1 0.41488489E-01 0.13795091E+04</pdfrwt>
<totfact> 0.23973307E+01</totfact>
</mgrwt>
</event>
<event>
 6    1  0.1603085E-006  0.2453910E+04  0.7818608E-02  0.8419592E-01
         -1   -1    0    0    0  501 -0.00000000000E+00  0.00000000000E+00  0.63379356922E+03  0.63379356922E+03  0.00000000000E+00 0.  1.
          1   -1    0    0  501    0  0.00000000000E+00 -0.00000000000E+00 -0.23752504247E+04  0.23752504247E+04  0.00000000000E+00 0. -1.
         23    2    1    2    0    0  0.76497964195E+03 -0.13346159960E+03  0.29003032205E+03  0.83420009063E+03  0.93628800775E+02 0.  0.
         13    1    3    3    0    0  0.33065243813E+03 -0.10465269861E+03  0.13367764821E+03  0.37168930009E+03  0.00000000000E+00 0. -1.
        -13    1    3    3    0    0  0.43432720382E+03 -0.28808900995E+02  0.15635267384E+03  0.46251079055E+03  0.00000000000E+00 0.  1.
         22    1    1    2    0    0 -0.76497964195E+03  0.13346159960E+03 -0.20314871776E+04  0.21748439033E+04  0.00000000000E+00 0. -1.
<mgrwt>
<rscale>  0 0.24539099E+04</rscale>
<asrwt>0</asrwt>
<pdfrwt beam="1">  1        1 0.36542314E+00 0.24539099E+04</pdfrwt>
<pdfrwt beam="2">  1       -1 0.97506703E-01 0.24539099E+04</pdfrwt>
<totfact> 0.14874784E+00</totfact>
</mgrwt>
</event>
<event>
 6    1  0.1603085E-006  0.4024894E+04  0.7818608E-02  0.7999543E-01
         -1   -1    0    0    0  501 -0.00000000000E+00  0.00000000000E+00  0.12951864218E+04  0.12951864218E+04  0.00000000000E+00 0.  1.
          1   -1    0    0  501    0  0.00000000000E+00 -0.00000000000E+00 -0.31269184660E+04  0.31269184660E+04  0.00000000000E+00 0. -1.
         23    2    1    2    0    0 -0.25650200850E+03  0.78492310961E+03  0.10986145538E+04  0.13776297685E+04  0.94932992016E+02 0.  0.
         13    1    3    3    0    0 -0.76216145282E+02  0.23658255932E+03  0.40576918652E+03  0.47584539601E+03  0.00000000000E+00 0. -1.
        -13    1    3    3    0    0 -0.18028586321E+03  0.54834055028E+03  0.69284536724E+03  0.90178437249E+03  0.00000000000E+00 0.  1.
         22    1    1    2    0    0  0.25650200850E+03 -0.78492310961E+03 -0.29303465979E+04  0.30444751193E+04  0.00000000000E+00 0. -1.
<mgrwt>
<rscale>  0 0.40248937E+04</rscale>
<asrwt>0</asrwt>
<pdfrwt beam="1">  1        1 0.48106437E+00 0.40248937E+04</pdfrwt>
<pdfrwt beam="2">  1       -1 0.19925945E+00 0.40248937E+04</pdfrwt>
<totfact> 0.57289461E-02</totfact>
</mgrwt>
</event>
<event>
 6    1  0.1603085E-006  0.4964441E+03  0.7818608E-02  0.1014711E+00
         -2   -1    0    0    0  501 -0.00000000000E+00  0.00000000000E+00  0.25977210773E+03  0.25977210773E+03  0.00000000000E+00 0.  1.
          2   -1    0    0  501    0  0.00000000000E+00 -0.00000000000E+00 -0.23718551299E+03  0.23718551299E+03  0.00000000000E+00 0. -1.
         23    2    1    2    0    0 -0.21924886321E+03 -0.84750912567E+02  0.59872442259E+02  0.25895968875E+03  0.90678717787E+02 0.  0.
         13    1    3    3    0    0 -0.15376788622E+03 -0.46596573225E+02  0.81482018182E+02  0.18015305369E+03  0.00000000000E+00 0. -1.
        -13    1    3    3    0    0 -0.65480976990E+02 -0.38154339342E+02 -0.21609575923E+02  0.78806635062E+02  0.00000000000E+00 0.  1.
         22    1    1    2    0    0  0.21924886321E+03  0.84750912567E+02 -0.37285847518E+02  0.23799793197E+03  0.00000000000E+00 0. -1.
<mgrwt>
<rscale>  0 0.49644408E+03</rscale>
<asrwt>0</asrwt>
<pdfrwt beam="1">  1        2 0.36490079E-01 0.49644408E+03</pdfrwt>
<pdfrwt beam="2">  1       -2 0.39964940E-01 0.49644408E+03</pdfrwt>
<totfact> 0.84844594E+02</totfact>
</mgrwt>
</event>
<event>
 6    1  0.1603085E-006  0.1059797E+04  0.7818608E-02  0.9245288E-01
         -1   -1    0    0    0  501 -0.00000000000E+00  0.00000000000E+00  0.78089448865E+03  0.78089448865E+03  0.00000000000E+00 0.  1.
          1   -1    0    0  501    0  0.00000000000E+00 -0.00000000000E+00 -0.35957766320E+03  0.35957766320E+03  0.00000000000E+00 0. -1.
         23    2    1    2    0    0 -0.16861205014E+03  0.43939004342E+03 -0.41642984291E+02  0.48030140186E+03  0.86380928326E+02 0.  0.
         13    1    3    3    0    0 -0.60212394486E+02  0.19288922294E+03 -0.58866114480E+02  0.21046853497E+03  0.00000000000E+00 0.  1.
        -13    1    3    3    0    0 -0.10839965566E+03  0.24650082047E+03  0.17223130188E+02  0.26983286689E+03  0.00000000000E+00 0. -1.
         22    1    1    2    0    0  0.16861205014E+03 -0.43939004342E+03  0.46295980975E+03  0.66017074999E+03  0.00000000000E+00 0.  1.
<mgrwt>
<rscale>  0 0.10597966E+04</rscale>
<asrwt>0</asrwt>
<pdfrwt beam="1">  1        1 0.55319641E-01 0.10597966E+04</pdfrwt>
<pdfrwt beam="2">  1       -1 0.12013761E+00 0.10597966E+04</pdfrwt>
<totfact> 0.42640353E+01</totfact>
</mgrwt>
</event>
<event>
 6    1  0.1603085E-006  0.2321903E+04  0.7818608E-02  0.8469335E-01
         -1   -1    0    0    0  501 -0.00000000000E+00  0.00000000000E+00  0.16508548617E+04  0.16508548617E+04  0.00000000000E+00 0.  1.
          1   -1    0    0  501    0  0.00000000000E+00 -0.00000000000E+00 -0.81643072577E+03  0.81643072577E+03  0.00000000000E+00 0. -1.
         23    2    1    2    0    0 -0.89163258446E+03  0.72073651586E+03  0.23602545075E+03  0.11740142403E+04  0.90175562421E+02 0.  0.
         13    1    3    3    0    0 -0.59798609027E+03  0.44983098637E+03  0.18857704583E+03  0.77168425062E+03  0.00000000000E+00 0. -1.
        -13    1    3    3    0    0 -0.29364649419E+03  0.27090552949E+03  0.47448404923E+02  0.40232998967E+03  0.00000000000E+00 0.  1.
         22    1    1    2    0    0  0.89163258446E+03 -0.72073651586E+03  0.59839868518E+03  0.12932713472E+04  0.00000000000E+00 0. -1.
<mgrwt>
<rscale>  0 0.23219032E+04</rscale>
<asrwt>0</asrwt>
<pdfrwt beam="1">  1        1 0.12560473E+00 0.23219032E+04</pdfrwt>
<pdfrwt beam="2">  1       -1 0.25397767E+00 0.23219032E+04</pdfrwt>
<totfact> 0.12675493E+00</totfact>
</mgrwt>
</event>
<event>
 6    1  0.1603085E-006  0.2747394E+04  0.7818608E-02  0.8319789E-01
          2   -1    0    0  501    0  0.00000000000E+00  0.00000000000E+00  0.23387836805E+04  0.23387836805E+04  0.00000000000E+00 0.  1.
         -2   -1    0    0    0  501 -0.00000000000E+00 -0.00000000000E+00 -0.80684812049E+03  0.80684812049E+03  0.00000000000E+00 0. -1.
         23    2    1    2    0    0 -0.32058938625E+03  0.33304215787E+03 -0.71315555243E+03  0.85344316637E+03  0.77972833477E+02 0.  0.
         11    1    3    3    0    0 -0.13406668095E+03  0.17198914984E+03 -0.27764586506E+03  0.35304584545E+03  0.00000000000E+00 0. -1.
        -11    1    3    3    0    0 -0.18652270530E+03  0.16105300803E+03 -0.43550968737E+03  0.50039732092E+03  0.00000000000E+00 0.  1.
         22    1    1    2    0    0  0.32058938625E+03 -0.33304215787E+03  0.22450911125E+04  0.22921886347E+04  0.00000000000E+00 0.  1.
<mgrwt>
<rscale>  0 0.27473938E+04</rscale>
<asrwt>0</asrwt>
<pdfrwt beam="1">  1        2 0.35981287E+00 0.27473938E+04</pdfrwt>
<pdfrwt beam="2">  1       -2 0.12413048E+00 0.27473938E+04</pdfrwt>
<totfact> 0.18372426E+00</totfact>
</mgrwt>
</event>
<event>
 6    1  0.1603085E-006  0.8141652E+03  0.7818608E-02  0.9539737E-01
          3   -1    0    0  501    0  0.00000000000E+00  0.00000000000E+00  0.10321199620E+04  0.10321199620E+04  0.00000000000E+00 0. -1.
         -3   -1    0    0    0  501 -0.00000000000E+00 -0.00000000000E+00 -0.16055909568E+03  0.16055909568E+03  0.00000000000E+00 0.  1.
         23    2    1    2    0    0 -0.31416433977E+03 -0.22305463307E+03  0.60827331893E+03  0.72601758046E+03  0.93018787843E+02 0.  0.
         13    1    3    3    0    0 -0.21175683418E+03 -0.11304012282E+03  0.43335792754E+03  0.49539693131E+03  0.00000000000E+00 0. -1.
        -13    1    3    3    0    0 -0.10240750559E+03 -0.11001451026E+03  0.17491539138E+03  0.23062064914E+03  0.00000000000E+00 0.  1.
         22    1    1    2    0    0  0.31416433977E+03  0.22305463307E+03  0.26328754742E+03  0.46666147725E+03  0.00000000000E+00 0. -1.
<mgrwt>
<rscale>  0 0.81416521E+03</rscale>
<asrwt>0</asrwt>
<pdfrwt beam="1">  1        3 0.15878768E+00 0.81416521E+03</pdfrwt>
<pdfrwt beam="2">  1       -3 0.24701400E-01 0.81416521E+03</pdfrwt>
<totfact> 0.11490112E+01</totfact>
</mgrwt>
</event>
<event>
 6    1  0.1603085E-006  0.5645502E+04  0.7818608E-02  0.7735979E-01
         -1   -1    0    0    0  501 -0.00000000000E+00  0.00000000000E+00  0.25807421309E+04  0.25807421309E+04  0.00000000000E+00 0.  1.
          1   -1    0    0  501    0  0.00000000000E+00 -0.00000000000E+00 -0.30874545514E+04  0.30874545514E+04  0.00000000000E+00 0. -1.
         23    2    1    2    0    0  0.19360339240E+04  0.15892847473E+03  0.18018140892E+04  0.26511152679E+04  0.91610786867E+02 0.  0.
         11    1    3    3    0    0  0.78480576844E+03  0.26059250332E+02  0.76008851899E+03  0.10928557706E+04  0.00000000000E+00 0. -1.
        -11    1    3    3    0    0  0.11512281556E+04  0.13286922440E+03  0.10417255703E+04  0.15582594972E+04  0.00000000000E+00 0.  1.
         22    1    1    2    0    0 -0.19360339240E+04 -0.15892847473E+03 -0.23085265098E+04  0.30170814144E+04  0.00000000000E+00 0. -1.
<mgrwt>
<rscale>  0 0.56455023E+04</rscale>
<asrwt>0</asrwt>
<pdfrwt beam="1">  1        1 0.47499300E+00 0.56455023E+04</pdfrwt>
<pdfrwt beam="2">  1       -1 0.39703725E+00 0.56455023E+04</pdfrwt>
<totfact> 0.26534728E-03</totfact>
</mgrwt>
</event>
<event>
 6    1  0.1603085E-006  0.2482641E+04  0.7818608E-02  0.8409196E-01
          1   -1    0    0  501    0  0.00000000000E+00  0.00000000000E+00  0.10770986508E+04  0.10770986508E+04  0.00000000000E+00 0. -1.
         -1   -1    0    0    0  501 -0.00000000000E+00 -0.00000000000E+00 -0.14305810539E+04  0.14305810539E+04  0.00000000000E+00 0.  1.
         23    2    1    2    0    0 -0.81195950441E+03  0.26839191077E+03  0.72955056191E+03  0.11277257714E+04  0.90603192496E+02 0.  0.
         11    1    3    3    0    0 -0.12549451883E+03  0.12054958447E+02  0.87390314055E+02  0.15339903282E+03  0.00000000000E+00 0. -1.
        -11    1    3    3    0    0 -0.68646498558E+03  0.25633695233E+03  0.64216024785E+03  0.97432673856E+03  0.00000000000E+00 0.  1.
         22    1    1    2    0    0  0.81195950441E+03 -0.26839191077E+03 -0.10830329651E+04  0.13799539333E+04  0.00000000000E+00 0.  1.
<mgrwt>
<rscale>  0 0.24826413E+04</rscale>
<asrwt>0</asrwt>
<pdfrwt beam="1">  1        1 0.16570749E+00 0.24826413E+04</pdfrwt>
<pdfrwt beam="2">  1       -1 0.22008939E+00 0.24826413E+04</pdfrwt>
<totfact> 0.12902044E+00</totfact>
</mgrwt>
</event>
<event>
 6    1  0.1603085E-006  0.3107551E+04  0.7818608E-02  0.8213669E-01
          1   -1    0    0  501    0  0.00000000000E+00  0.00000000000E+00  0.23412337404E+04  0.23412337404E+04  0.00000000000E+00 0. -1.
         -1   -1    0    0    0  501 -0.00000000000E+00 -0.00000000000E+00 -0.10311737176E+04  0.10311737176E+04  0.00000000000E+00 0.  1.
         23    2    1    2    0    0  0.12777979811E+04  0.40874012579E+03  0.15036318671E+04  0.20169347619E+04  0.85328019185E+02 0.  0.
         11    1    3    3    0    0  0.12745311526E+03  0.53289141771E+02  0.19129184281E+03  0.23595889122E+03  0.00000000000E+00 0. -1.
        -11    1    3    3    0    0  0.11503448658E+04  0.35545098402E+03  0.13123400243E+04  0.17809758706E+04  0.00000000000E+00 0.  1.
         22    1    1    2    0    0 -0.12777979811E+04 -0.40874012579E+03 -0.19357184429E+03  0.13554726961E+04  0.00000000000E+00 0.  1.
<mgrwt>
<rscale>  0 0.31075513E+04</rscale>
<asrwt>0</asrwt>
<pdfrwt beam="1">  1        1 0.36018981E+00 0.31075513E+04</pdfrwt>
<pdfrwt beam="2">  1       -1 0.15864211E+00 0.31075513E+04</pdfrwt>
<totfact> 0.43997092E-01</totfact>
</mgrwt>
</event>
<event>
 6    1  0.1603085E-006  0.2596485E+04  0.7818608E-02  0.8369396E-01
         -1   -1    0    0    0  501 -0.00000000000E+00  0.00000000000E+00  0.93302083710E+03  0.93302083710E+03  0.00000000000E+00 0.  1.
          1   -1    0    0  501    0  0.00000000000E+00 -0.00000000000E+00 -0.18064269348E+04  0.18064269348E+04  0.00000000000E+00 0. -1.
         23    2    1    2    0    0  0.28070671762E+03  0.90486086262E+03 -0.13712485501E+04  0.16692064210E+04  0.91422358940E+02 0.  0.
         11    1    3    3    0    0  0.12696708422E+03  0.55458362777E+03 -0.84169580937E+03  0.10159406854E+04  0.00000000000E+00 0.  1.
        -11    1    3    3    0    0  0.15373963340E+03  0.35027723486E+03 -0.52955274069E+03  0.65326573560E+03  0.00000000000E+00 0. -1.
         22    1    1    2    0    0 -0.28070671762E+03 -0.90486086262E+03  0.49784245232E+03  0.10702413510E+04  0.00000000000E+00 0.  1.
<mgrwt>
<rscale>  0 0.25964853E+04</rscale>
<asrwt>0</asrwt>
<pdfrwt beam="1">  1        1 0.27791183E+00 0.25964853E+04</pdfrwt>
<pdfrwt beam="2">  1       -1 0.14354167E+00 0.25964853E+04</pdfrwt>
<totfact> 0.13944944E+00</totfact>
</mgrwt>
</event>
<event>
 6    1  0.1603085E-006  0.1560819E+04  0.7818608E-02  0.8844986E-01
          1   -1    0    0  501    0  0.00000000000E+00  0.00000000000E+00  0.10943427285E+04  0.10943427285E+04  0.00000000000E+00 0. -1.
         -1   -1    0    0    0  501 -0.00000000000E+00 -0.00000000000E+00 -0.55653428481E+03  0.55653428481E+03  0.00000000000E+00 0.  1.
         23    2    1    2    0    0  0.48390135997E+02  0.42256880126E+03  0.95872670421E+03  0.10524806739E+04  0.87479589051E+02 0.  0.
         11    1    3    3    0    0  0.11568814243E+02  0.20548563684E+03  0.56576399607E+03  0.60203578271E+03  0.00000000000E+00 0. -1.
        -11    1    3    3    0    0  0.36821321754E+02  0.21708316442E+03  0.39296270814E+03  0.45044489119E+03  0.00000000000E+00 0.  1.
         22    1    1    2    0    0 -0.48390135997E+02 -0.42256880126E+03 -0.42091826048E+03  0.59839633945E+03  0.00000000000E+00 0.  1.
<mgrwt>
<rscale>  0 0.15608193E+04</rscale>
<asrwt>0</asrwt>
<pdfrwt beam="1">  1        1 0.16836042E+00 0.15608193E+04</pdfrwt>
<pdfrwt beam="2">  1       -1 0.85620659E-01 0.15608193E+04</pdfrwt>
<totfact> 0.16612316E+01</totfact>
</mgrwt>
</event>
<event>
 6    1  0.1603085E-006  0.1362596E+04  0.7818608E-02  0.8981347E-01
          1   -1    0    0  501    0  0.00000000000E+00  0.00000000000E+00  0.14129841891E+04  0.14129841891E+04  0.00000000000E+00 0. -1.
         -1   -1    0    0    0  501 -0.00000000000E+00 -0.00000000000E+00 -0.32850123317E+03  0.32850123317E+03  0.00000000000E+00 0.  1.
         23    2    1    2    0    0  0.40423183685E+03  0.53079435414E+03  0.69867179881E+03  0.97077388529E+03  0.95465331952E+02 0.  0.
         13    1    3    3    0    0  0.35762768071E+03  0.41078737381E+03  0.54861539324E+03  0.77306058896E+03  0.00000000000E+00 0.  1.
        -13    1    3    3    0    0  0.46604156141E+02  0.12000698032E+03  0.15005640557E+03  0.19771329634E+03  0.00000000000E+00 0. -1.
         22    1    1    2    0    0 -0.40423183685E+03 -0.53079435414E+03  0.38581115716E+03  0.77071153702E+03  0.00000000000E+00 0.  1.
<mgrwt>
<rscale>  0 0.13625961E+04</rscale>
<asrwt>0</asrwt>
<pdfrwt beam="1">  1        1 0.21738218E+00 0.13625961E+04</pdfrwt>
<pdfrwt beam="2">  1       -1 0.50538652E-01 0.13625961E+04</pdfrwt>
<totfact> 0.28927586E+01</totfact>
</mgrwt>
</event>
<event>
 6    1  0.1603085E-006  0.1480768E+04  0.7818608E-02  0.8897344E-01
         -2   -1    0    0    0  501 -0.00000000000E+00  0.00000000000E+00  0.81810347508E+03  0.81810347508E+03  0.00000000000E+00 0.  1.
          2   -1    0    0  501    0  0.00000000000E+00 -0.00000000000E+00 -0.67004772092E+03  0.67004772092E+03  0.00000000000E+00 0. -1.
         23    2    1    2    0    0  0.88979613959E+02  0.53844120508E+03 -0.42433809658E+03  0.69728393572E+03  0.91135963175E+02 0.  0.
         13    1    3    3    0    0  0.36017861261E+02  0.15546723589E+03 -0.75465910504E+02  0.17652889682E+03  0.00000000000E+00 0. -1.
        -13    1    3    3    0    0  0.52961752699E+02  0.38297396919E+03 -0.34887218608E+03  0.52075503890E+03  0.00000000000E+00 0.  1.
         22    1    1    2    0    0 -0.88979613959E+02 -0.53844120508E+03  0.57239385073E+03  0.79086726028E+03  0.00000000000E+00 0.  1.
<mgrwt>
<rscale>  0 0.14807679E+04</rscale>
<asrwt>0</asrwt>
<pdfrwt beam="1">  1        2 0.10308426E+00 0.14807679E+04</pdfrwt>
<pdfrwt beam="2">  1       -2 0.12586207E+00 0.14807679E+04</pdfrwt>
<totfact> 0.19736278E+01</totfact>
</mgrwt>
</event>
<event>
 6    1  0.1603085E-006  0.5614761E+03  0.7818608E-02  0.9988720E-01
          1   -1    0    0  501    0  0.00000000000E+00  0.00000000000E+00  0.65148314174E+03  0.65148314174E+03  0.00000000000E+00 0. -1.
         -1   -1    0    0    0  501 -0.00000000000E+00 -0.00000000000E+00 -0.12097603462E+03  0.12097603462E+03  0.00000000000E+00 0.  1.
         23    2    1    2    0    0 -0.18372205030E+03 -0.11431903980E+03  0.43121500030E+02  0.23919811025E+03  0.92377689700E+02 0.  0.
         13    1    3    3    0    0 -0.10204916086E+03 -0.10193036866E+03  0.57637647997E+02  0.15532523862E+03  0.00000000000E+00 0.  1.
        -13    1    3    3    0    0 -0.81672889447E+02 -0.12388671138E+02 -0.14516147967E+02  0.83872871628E+02  0.00000000000E+00 0. -1.
         22    1    1    2    0    0  0.18372205030E+03  0.11431903980E+03  0.48738560710E+03  0.53326106611E+03  0.00000000000E+00 0. -1.
<mgrwt>
<rscale>  0 0.56147608E+03</rscale>
<asrwt>0</asrwt>
<pdfrwt beam="1">  1        1 0.10022817E+00 0.56147608E+03</pdfrwt>
<pdfrwt beam="2">  1       -1 0.18611698E-01 0.56147608E+03</pdfrwt>
<totfact> 0.70610760E+02</totfact>
</mgrwt>
</event>
<event>
 6    1  0.1603085E-006  0.3966673E+03  0.7818608E-02  0.1044940E+00
         -2   -1    0    0    0  501 -0.00000000000E+00  0.00000000000E+00  0.27349494437E+03  0.27349494437E+03  0.00000000000E+00 0.  1.
          2   -1    0    0  501    0  0.00000000000E+00 -0.00000000000E+00 -0.14382803220E+03  0.14382803220E+03  0.00000000000E+00 0. -1.
         23    2    1    2    0    0  0.13945040252E+03 -0.11084900250E+03  0.12949820909E+03  0.23918273805E+03  0.93298874097E+02 0.  0.
         13    1    3    3    0    0  0.10351893794E+03 -0.12343037635E+03  0.90908457144E+02  0.18497452770E+03  0.00000000000E+00 0. -1.
        -13    1    3    3    0    0  0.35931464574E+02  0.12581373847E+02  0.38589751944E+02  0.54208210351E+02  0.00000000000E+00 0.  1.
         22    1    1    2    0    0 -0.13945040252E+03  0.11084900250E+03  0.16870307636E+00  0.17814023852E+03  0.00000000000E+00 0. -1.
<mgrwt>
<rscale>  0 0.39666731E+03</rscale>
<asrwt>0</asrwt>
<pdfrwt beam="1">  1        2 0.22127390E-01 0.39666731E+03</pdfrwt>
<pdfrwt beam="2">  1       -2 0.42076145E-01 0.39666731E+03</pdfrwt>
<totfact> 0.13446858E+03</totfact>
</mgrwt>
</event>
<event>
 6    1  0.1603085E-006  0.4263816E+04  0.7818608E-02  0.7953343E-01
          2   -1    0    0  501    0  0.00000000000E+00  0.00000000000E+00  0.24506157740E+04  0.24506157740E+04  0.00000000000E+00 0. -1.
         -2   -1    0    0    0  501 -0.00000000000E+00 -0.00000000000E+00 -0.18546488456E+04  0.18546488456E+04  0.00000000000E+00 0.  1.
         23    2    1    2    0    0  0.62677793782E+03 -0.15679645839E+04 -0.10143527657E+04  0.19719208736E+04  0.90536615596E+02 0.  0.
         13    1    3    3    0    0  0.51956523448E+03 -0.12326346441E+04 -0.77101706989E+03  0.15439570981E+04  0.00000000000E+00 0. -1.
        -13    1    3    3    0    0  0.10721270334E+03 -0.33532993982E+03 -0.24333569586E+03  0.42796377555E+03  0.00000000000E+00 0.  1.
         22    1    1    2    0    0 -0.62677793782E+03  0.15679645839E+04  0.16103196942E+04  0.23333437460E+04  0.00000000000E+00 0. -1.
<mgrwt>
<rscale>  0 0.42638160E+04</rscale>
<asrwt>0</asrwt>
<pdfrwt beam="1">  1        2 0.37701781E+00 0.42638160E+04</pdfrwt>
<pdfrwt beam="2">  1       -2 0.28533059E+00 0.42638160E+04</pdfrwt>
<totfact> 0.11218987E-01</totfact>
</mgrwt>
</event>
<event>
 6    1  0.1603085E-006  0.9029926E+03  0.7818608E-02  0.9421848E-01
          2   -1    0    0  501    0  0.00000000000E+00  0.00000000000E+00  0.10710876479E+04  0.10710876479E+04  0.00000000000E+00 0. -1.
         -2   -1    0    0    0  501 -0.00000000000E+00 -0.00000000000E+00 -0.19031955774E+03  0.19031955774E+03  0.00000000000E+00 0.  1.
         23    2    1    2    0    0 -0.18787660687E+03  0.13081355361E+02 -0.12125060754E+03  0.24184346961E+03  0.91202043283E+02 0.  0.
         11    1    3    3    0    0 -0.72300967603E+02  0.33383997249E+02 -0.10208768693E+02  0.80287858029E+02  0.00000000000E+00 0.  1.
        -11    1    3    3    0    0 -0.11557563926E+03 -0.20302641888E+02 -0.11104183885E+03  0.16155561158E+03  0.00000000000E+00 0. -1.
         22    1    1    2    0    0  0.18787660687E+03 -0.13081355361E+02  0.10020186977E+04  0.10195637360E+04  0.00000000000E+00 0. -1.
<mgrwt>
<rscale>  0 0.90299264E+03</rscale>
<asrwt>0</asrwt>
<pdfrwt beam="1">  1        2 0.16478271E+00 0.90299264E+03</pdfrwt>
<pdfrwt beam="2">  1       -2 0.29279933E-01 0.90299264E+03</pdfrwt>
<totfact> 0.24386377E+02</totfact>
</mgrwt>
</event>
<event>
 6    1  0.1603085E-006  0.1049245E+04  0.7818608E-02  0.9256124E-01
          1   -1    0    0  501    0  0.00000000000E+00  0.00000000000E+00  0.88217636022E+03  0.88217636022E+03  0.00000000000E+00 0. -1.
         -1   -1    0    0    0  501 -0.00000000000E+00 -0.00000000000E+00 -0.31198819807E+03  0.31198819807E+03  0.00000000000E+00 0.  1.
         23    2    1    2    0    0  0.46358384324E+03  0.13720211883E+03  0.50720985347E+03  0.70661900300E+03  0.91182118986E+02 0.  0.
         13    1    3    3    0    0  0.18361288670E+03  0.22501181908E+02  0.23954557883E+03  0.30265835473E+03  0.00000000000E+00 0. -1.
        -13    1    3    3    0    0  0.27997095653E+03  0.11470093692E+03  0.26766427464E+03  0.40396064827E+03  0.00000000000E+00 0.  1.
         22    1    1    2    0    0 -0.46358384324E+03 -0.13720211883E+03  0.62978308683E+02  0.48754555529E+03  0.00000000000E+00 0. -1.
<mgrwt>
<rscale>  0 0.10492447E+04</rscale>
<asrwt>0</asrwt>
<pdfrwt beam="1">  1        1 0.13571944E+00 0.10492447E+04</pdfrwt>
<pdfrwt beam="2">  1       -1 0.47998185E-01 0.10492447E+04</pdfrwt>
<totfact> 0.81589472E+01</totfact>
</mgrwt>
</event>
<event>
 6    1  0.1603085E-006  0.8887352E+03  0.7818608E-02  0.9439774E-01
          2   -1    0    0  501    0  0.00000000000E+00  0.00000000000E+00  0.57436442879E+03  0.57436442879E+03  0.00000000000E+00 0. -1.
         -2   -1    0    0    0  501 -0.00000000000E+00 -0.00000000000E+00 -0.34379314442E+03  0.34379314442E+03  0.00000000000E+00 0.  1.
         23    2    1    2    0    0 -0.15830039971E+03 -0.19125468665E+03 -0.25841188684E+03  0.36975816270E+03  0.91142876346E+02 0.  0.
         13    1    3    3    0    0 -0.47996816836E+01 -0.66481980908E+02 -0.64927759906E+02  0.93051086700E+02  0.00000000000E+00 0.  1.
        -13    1    3    3    0    0 -0.15350071802E+03 -0.12477270574E+03 -0.19348412694E+03  0.27670707600E+03  0.00000000000E+00 0. -1.
         22    1    1    2    0    0  0.15830039971E+03  0.19125468665E+03  0.48898317122E+03  0.54839941051E+03  0.00000000000E+00 0. -1.
<mgrwt>
<rscale>  0 0.88873518E+03</rscale>
<asrwt>0</asrwt>
<pdfrwt beam="1">  1        2 0.88363758E-01 0.88873518E+03</pdfrwt>
<pdfrwt beam="2">  1       -2 0.52891253E-01 0.88873518E+03</pdfrwt>
<totfact> 0.17696139E+02</totfact>
</mgrwt>
</event>
<event>
 6    1  0.1603085E-006  0.1362471E+04  0.7818608E-02  0.8981441E-01
         -2   -1    0    0    0  501 -0.00000000000E+00  0.00000000000E+00  0.30020870357E+03  0.30020870357E+03  0.00000000000E+00 0.  1.
          2   -1    0    0  501    0  0.00000000000E+00 -0.00000000000E+00 -0.15458639116E+04  0.15458639116E+04  0.00000000000E+00 0. -1.
         23    2    1    2    0    0 -0.26013491258E+03  0.67879477201E+02 -0.14691873276E+04  0.14964379420E+04  0.92397588712E+02 0.  0.
         13    1    3    3    0    0 -0.24245961564E+03  0.41247383851E+02 -0.13788501051E+04  0.14006125889E+04  0.00000000000E+00 0.  1.
        -13    1    3    3    0    0 -0.17675296939E+02  0.26632093350E+02 -0.90337222511E+02  0.95825353060E+02  0.00000000000E+00 0. -1.
         22    1    1    2    0    0  0.26013491258E+03 -0.67879477201E+02  0.22353211963E+03  0.34963467316E+03  0.00000000000E+00 0.  1.
<mgrwt>
<rscale>  0 0.13624710E+04</rscale>
<asrwt>0</asrwt>
<pdfrwt beam="1">  1        2 0.23782522E+00 0.13624710E+04</pdfrwt>
<pdfrwt beam="2">  1       -2 0.46185954E-01 0.13624710E+04</pdfrwt>
<totfact> 0.51866407E+01</totfact>
</mgrwt>
</event>
<event>
 6    1  0.1603085E-006  0.2601217E+04  0.7818608E-02  0.8367788E-01
         -1   -1    0    0    0  501 -0.00000000000E+00  0.00000000000E+00  0.93760994790E+03  0.93760994790E+03  0.00000000000E+00 0.  1.
          1   -1    0    0  501    0  0.00000000000E+00 -0.00000000000E+00 -0.18041432750E+04  0.18041432750E+04  0.00000000000E+00 0. -1.
         23    2    1    2    0    0 -0.45830993972E+03  0.11388593302E+04  0.12797608171E+02  0.12316964463E+04  0.99316576332E+02 0.  0.
         13    1    3    3    0    0 -0.35753231469E+03  0.77072190846E+03 -0.44595715606E+01  0.84962433110E+03  0.00000000000E+00 0. -1.
        -13    1    3    3    0    0 -0.10077762503E+03  0.36813742173E+03  0.17257179731E+02  0.38207211523E+03  0.00000000000E+00 0.  1.
         22    1    1    2    0    0  0.45830993972E+03 -0.11388593302E+04 -0.87933093530E+03  0.15100567766E+04  0.00000000000E+00 0.  1.
<mgrwt>
<rscale>  0 0.26012172E+04</rscale>
<asrwt>0</asrwt>
<pdfrwt beam="1">  1        1 0.27756050E+00 0.26012172E+04</pdfrwt>
<pdfrwt beam="2">  1       -1 0.14424768E+00 0.26012172E+04</pdfrwt>
<totfact> 0.13808417E+00</totfact>
</mgrwt>
</event>
<event>
 6    1  0.1603085E-006  0.9441305E+03  0.7818608E-02  0.9372038E-01
          2   -1    0    0  501    0  0.00000000000E+00  0.00000000000E+00  0.11684958959E+04  0.11684958959E+04  0.00000000000E+00 0. -1.
         -2   -1    0    0    0  501 -0.00000000000E+00 -0.00000000000E+00 -0.19071149386E+03  0.19071149386E+03  0.00000000000E+00 0.  1.
         23    2    1    2    0    0 -0.41216503267E+02  0.21499217315E+03 -0.10263767024E+03  0.25683164214E+03  0.86646213976E+02 0.  0.
         11    1    3    3    0    0 -0.45746622758E+02  0.94109578530E+02 -0.11286483161E+02  0.10524614467E+03  0.00000000000E+00 0. -1.
        -11    1    3    3    0    0  0.45301194910E+01  0.12088259462E+03 -0.91351187079E+02  0.15158549747E+03  0.00000000000E+00 0.  1.
         22    1    1    2    0    0  0.41216503267E+02 -0.21499217315E+03  0.10804220723E+04  0.11023757476E+04  0.00000000000E+00 0. -1.
<mgrwt>
<rscale>  0 0.94413049E+03</rscale>
<asrwt>0</asrwt>
<pdfrwt beam="1">  1        2 0.17976860E+00 0.94413049E+03</pdfrwt>
<pdfrwt beam="2">  1       -2 0.29340230E-01 0.94413049E+03</pdfrwt>
<totfact> 0.21134612E+02</totfact>
</mgrwt>
</event>
<event>
 6    1  0.1603085E-006  0.3247702E+04  0.7818608E-02  0.8176332E-01
         -2   -1    0    0    0  501 -0.00000000000E+00  0.00000000000E+00  0.22859356887E+04  0.22859356887E+04  0.00000000000E+00 0.  1.
          2   -1    0    0  501    0  0.00000000000E+00 -0.00000000000E+00 -0.11535284989E+04  0.11535284989E+04  0.00000000000E+00 0. -1.
         23    2    1    2    0    0 -0.42113434750E+03  0.19956072516E+03 -0.10793611789E+04  0.11791328097E+04  0.90305075753E+02 0.  0.
         11    1    3    3    0    0 -0.34402119787E+03  0.13305010486E+03 -0.90388820895E+03  0.97625140679E+03  0.00000000000E+00 0.  1.
        -11    1    3    3    0    0 -0.77113149629E+02  0.66510620302E+02 -0.17547296992E+03  0.20288140287E+03  0.00000000000E+00 0. -1.
         22    1    1    2    0    0  0.42113434750E+03 -0.19956072516E+03  0.22117683686E+04  0.22603313779E+04  0.00000000000E+00 0.  1.
<mgrwt>
<rscale>  0 0.32477019E+04</rscale>
<asrwt>0</asrwt>
<pdfrwt beam="1">  1        2 0.17746592E+00 0.32477019E+04</pdfrwt>
<pdfrwt beam="2">  1       -2 0.35168241E+00 0.32477019E+04</pdfrwt>
<totfact> 0.25715777E-01</totfact>
</mgrwt>
</event>
<event>
 6    1  0.1603085E-006  0.3744285E+04  0.7818608E-02  0.8058218E-01
         -2   -1    0    0    0  501 -0.00000000000E+00  0.00000000000E+00  0.15032081700E+04  0.15032081700E+04  0.00000000000E+00 0. -1.
          2   -1    0    0  501    0  0.00000000000E+00 -0.00000000000E+00 -0.23316246102E+04  0.23316246102E+04  0.00000000000E+00 0.  1.
         23    2    1    2    0    0 -0.94857582801E+03 -0.14644213722E+04 -0.11064419128E+04  0.20680208999E+04  0.90391808891E+02 0.  0.
         13    1    3    3    0    0 -0.80360714518E+03 -0.11768754221E+04 -0.90845495777E+03  0.16900031400E+04  0.00000000000E+00 0. -1.
        -13    1    3    3    0    0 -0.14496868283E+03 -0.28754595014E+03 -0.19798695503E+03  0.37801775991E+03  0.00000000000E+00 0.  1.
         22    1    1    2    0    0  0.94857582801E+03  0.14644213722E+04  0.27802547258E+03  0.17668118803E+04  0.00000000000E+00 0. -1.
<mgrwt>
<rscale>  0 0.37442848E+04</rscale>
<asrwt>0</asrwt>
<pdfrwt beam="1">  1        2 0.35871148E+00 0.37442848E+04</pdfrwt>
<pdfrwt beam="2">  1       -2 0.23126279E+00 0.37442848E+04</pdfrwt>
<totfact> 0.29416134E-01</totfact>
</mgrwt>
</event>
<event>
 6    1  0.1603085E-006  0.1164811E+04  0.7818608E-02  0.9144228E-01
          2   -1    0    0  501    0  0.00000000000E+00  0.00000000000E+00  0.21084970689E+04  0.21084970689E+04  0.00000000000E+00 0. -1.
         -2   -1    0    0    0  501 -0.00000000000E+00 -0.00000000000E+00 -0.16087095561E+03  0.16087095561E+03  0.00000000000E+00 0.  1.
         23    2    1    2    0    0 -0.52549331536E+03  0.81180415597E+02  0.53338101878E+03  0.75846674657E+03  0.89682830478E+02 0.  0.
         11    1    3    3    0    0 -0.30807328110E+03  0.52561449894E+02  0.37390145961E+03  0.48731319913E+03  0.00000000000E+00 0.  1.
        -11    1    3    3    0    0 -0.21742003426E+03  0.28618965702E+02  0.15947955917E+03  0.27115354744E+03  0.00000000000E+00 0. -1.
         22    1    1    2    0    0  0.52549331536E+03 -0.81180415597E+02  0.14142450945E+04  0.15109012779E+04  0.00000000000E+00 0. -1.
<mgrwt>
<rscale>  0 0.11648106E+04</rscale>
<asrwt>0</asrwt>
<pdfrwt beam="1">  1        2 0.32438414E+00 0.11648106E+04</pdfrwt>
<pdfrwt beam="2">  1       -2 0.24749379E-01 0.11648106E+04</pdfrwt>
<totfact> 0.84190589E+01</totfact>
</mgrwt>
</event>
<event>
 6    1  0.1660719E-006  0.2779542E+04  0.7818608E-02  0.8309648E-01
         -1   -1    0    0    0  501 -0.00000000000E+00  0.00000000000E+00  0.99068873235E+03  0.99068873235E+03  0.00000000000E+00 0.  1.
          1   -1    0    0  501    0  0.00000000000E+00 -0.00000000000E+00 -0.19496166172E+04  0.19496166172E+04  0.00000000000E+00 0. -1.
         23    2    1    2    0    0 -0.67370522847E+03  0.52314046052E+03 -0.16386708858E+04  0.18496150985E+04  0.90989365421E+02 0.  0.
         13    1    3    3    0    0 -0.34461332658E+03  0.21144329930E+03 -0.79369184132E+03  0.89073753298E+03  0.00000000000E+00 0. -1.
        -13    1    3    3    0    0 -0.32909190188E+03  0.31169716123E+03 -0.84497904443E+03  0.95887756556E+03  0.00000000000E+00 0.  1.
         22    1    1    2    0    0  0.67370522847E+03 -0.52314046052E+03  0.67974300092E+03  0.10906902510E+04  0.00000000000E+00 0.  1.
<mgrwt>
<rscale>  0 0.27795418E+04</rscale>
<asrwt>0</asrwt>
<pdfrwt beam="1">  1        1 0.29994102E+00 0.27795418E+04</pdfrwt>
<pdfrwt beam="2">  1       -1 0.15241365E+00 0.27795418E+04</pdfrwt>
<totfact> 0.93419707E-01</totfact>
</mgrwt>
</event>
<event>
 6    1  0.2185307E-006  0.3979168E+04  0.7818608E-02  0.8008762E-01
          1   -1    0    0  501    0  0.00000000000E+00  0.00000000000E+00  0.16249500059E+04  0.16249500059E+04  0.00000000000E+00 0. -1.
         -1   -1    0    0    0  501 -0.00000000000E+00 -0.00000000000E+00 -0.24360413045E+04  0.24360413045E+04  0.00000000000E+00 0.  1.
         23    2    1    2    0    0 -0.40049301937E+03  0.19118953431E+04 -0.78568590329E+03  0.21074345809E+04  0.90772861425E+02 0.  0.
         11    1    3    3    0    0 -0.27121116294E+03  0.10799873160E+04 -0.43766022984E+03  0.11964424660E+04  0.00000000000E+00 0. -1.
        -11    1    3    3    0    0 -0.12928185643E+03  0.83190802713E+03 -0.34802567345E+03  0.91099211489E+03  0.00000000000E+00 0.  1.
         22    1    1    2    0    0  0.40049301937E+03 -0.19118953431E+04 -0.25405395329E+02  0.19535567296E+04  0.00000000000E+00 0. -1.
<mgrwt>
<rscale>  0 0.39791684E+04</rscale>
<asrwt>0</asrwt>
<pdfrwt beam="1">  1        1 0.24999231E+00 0.39791684E+04</pdfrwt>
<pdfrwt beam="2">  1       -1 0.37477558E+00 0.39791684E+04</pdfrwt>
<totfact> 0.44601824E-02</totfact>
</mgrwt>
</event>
<event>
 6    1  0.1603085E-006  0.4685097E+04  0.7818608E-02  0.7879009E-01
          1   -1    0    0  501    0  0.00000000000E+00  0.00000000000E+00  0.35669256033E+04  0.35669256033E+04  0.00000000000E+00 0. -1.
         -1   -1    0    0    0  501 -0.00000000000E+00 -0.00000000000E+00 -0.15384491755E+04  0.15384491755E+04  0.00000000000E+00 0.  1.
         23    2    1    2    0    0 -0.73962065233E+03  0.46682605466E+02  0.34352549623E+04  0.35153295530E+04  0.85716012054E+02 0.  0.
         13    1    3    3    0    0 -0.53197950261E+03  0.47204507573E+02  0.22949569880E+04  0.23562805507E+04  0.00000000000E+00 0. -1.
        -13    1    3    3    0    0 -0.20764114972E+03 -0.52190210625E+00  0.11402979743E+04  0.11590490023E+04  0.00000000000E+00 0.  1.
         22    1    1    2    0    0  0.73962065233E+03 -0.46682605466E+02 -0.14067785345E+04  0.15900452258E+04  0.00000000000E+00 0.  1.
<mgrwt>
<rscale>  0 0.46850971E+04</rscale>
<asrwt>0</asrwt>
<pdfrwt beam="1">  1        1 0.54875778E+00 0.46850971E+04</pdfrwt>
<pdfrwt beam="2">  1       -1 0.23668449E+00 0.46850971E+04</pdfrwt>
<totfact> 0.13933210E-02</totfact>
</mgrwt>
</event>
<event>
 6    1  0.1603085E-006  0.8347616E+03  0.7818608E-02  0.9511021E-01
         -1   -1    0    0    0  501 -0.00000000000E+00  0.00000000000E+00  0.32944026150E+03  0.32944026150E+03  0.00000000000E+00 0.  1.
          1   -1    0    0  501    0  0.00000000000E+00 -0.00000000000E+00 -0.52879608939E+03  0.52879608939E+03  0.00000000000E+00 0. -1.
         23    2    1    2    0    0  0.39574394708E+03 -0.10193441057E+03 -0.15446115643E+03  0.44711662717E+03  0.95137446524E+02 0.  0.
         11    1    3    3    0    0  0.26282719728E+03 -0.30283734390E+02 -0.68199077561E+02  0.27321485022E+03  0.00000000000E+00 0. -1.
        -11    1    3    3    0    0  0.13291674980E+03 -0.71650676176E+02 -0.86262078873E+02  0.17390177695E+03  0.00000000000E+00 0.  1.
         22    1    1    2    0    0 -0.39574394708E+03  0.10193441057E+03 -0.44894671453E+02  0.41111972373E+03  0.00000000000E+00 0.  1.
<mgrwt>
<rscale>  0 0.83476158E+03</rscale>
<asrwt>0</asrwt>
<pdfrwt beam="1">  1        1 0.81353244E-01 0.83476158E+03</pdfrwt>
<pdfrwt beam="2">  1       -1 0.50683117E-01 0.83476158E+03</pdfrwt>
<totfact> 0.16201497E+02</totfact>
</mgrwt>
</event>
<event>
 6    1  0.1603085E-006  0.1878678E+04  0.7818608E-02  0.8665543E-01
          1   -1    0    0  501    0  0.00000000000E+00  0.00000000000E+00  0.14573425248E+04  0.14573425248E+04  0.00000000000E+00 0. -1.
         -1   -1    0    0    0  501 -0.00000000000E+00 -0.00000000000E+00 -0.60545671952E+03  0.60545671952E+03  0.00000000000E+00 0.  1.
         23    2    1    2    0    0  0.42562897272E+03  0.34812864730E+03 -0.40633147003E+03  0.68967714874E+03  0.90530262775E+02 0.  0.
         11    1    3    3    0    0  0.42244733065E+02  0.33320832660E+02 -0.78126769319E+02  0.94861411781E+02  0.00000000000E+00 0.  1.
        -11    1    3    3    0    0  0.38338423965E+03  0.31480781464E+03 -0.32820470071E+03  0.59481573696E+03  0.00000000000E+00 0. -1.
         22    1    1    2    0    0 -0.42562897272E+03 -0.34812864730E+03  0.12582172753E+04  0.13731220955E+04  0.00000000000E+00 0. -1.
<mgrwt>
<rscale>  0 0.18786781E+04</rscale>
<asrwt>0</asrwt>
<pdfrwt beam="1">  1        1 0.22420654E+00 0.18786781E+04</pdfrwt>
<pdfrwt beam="2">  1       -1 0.93147188E-01 0.18786781E+04</pdfrwt>
<totfact> 0.73469976E+00</totfact>
</mgrwt>
</event>
<event>
 6    1  0.1603085E-006  0.1540340E+04  0.7818608E-02  0.8858062E-01
         -1   -1    0    0    0  501 -0.00000000000E+00  0.00000000000E+00  0.28362985338E+03  0.28362985338E+03  0.00000000000E+00 0.  1.
          1   -1    0    0  501    0  0.00000000000E+00 -0.00000000000E+00 -0.20913241456E+04  0.20913241456E+04  0.00000000000E+00 0. -1.
         23    2    1    2    0    0 -0.75639845097E+03 -0.66571708675E+02 -0.73540795302E+03  0.10610406068E+04  0.91716425987E+02 0.  0.
         13    1    3    3    0    0 -0.49405054056E+03 -0.58710767821E+02 -0.42323803704E+03  0.65319470824E+03  0.00000000000E+00 0. -1.
        -13    1    3    3    0    0 -0.26234791041E+03 -0.78609408549E+01 -0.31216991598E+03  0.40784589851E+03  0.00000000000E+00 0.  1.
         22    1    1    2    0    0  0.75639845097E+03  0.66571708675E+02 -0.10722863392E+04  0.13139133922E+04  0.00000000000E+00 0. -1.
<mgrwt>
<rscale>  0 0.15403402E+04</rscale>
<asrwt>0</asrwt>
<pdfrwt beam="1">  1        1 0.32174218E+00 0.15403402E+04</pdfrwt>
<pdfrwt beam="2">  1       -1 0.43635362E-01 0.15403402E+04</pdfrwt>
<totfact> 0.12929802E+01</totfact>
</mgrwt>
</event>
<event>
 6    1  0.1603085E-006  0.1961930E+04  0.7818608E-02  0.8624629E-01
         -1   -1    0    0    0  501 -0.00000000000E+00  0.00000000000E+00  0.39259414590E+03  0.39259414590E+03  0.00000000000E+00 0.  1.
          1   -1    0    0  501    0  0.00000000000E+00 -0.00000000000E+00 -0.24511123573E+04  0.24511123573E+04  0.00000000000E+00 0. -1.
         23    2    1    2    0    0 -0.20235382884E+03 -0.22717659434E+03 -0.23801192208E+04  0.24010062816E+04  0.85483224958E+02 0.  0.
         11    1    3    3    0    0 -0.12503707603E+03 -0.14464439795E+03 -0.11593614681E+04  0.11750213981E+04  0.00000000000E+00 0.  1.
        -11    1    3    3    0    0 -0.77316752809E+02 -0.82532196399E+02 -0.12207577527E+04  0.12259848835E+04  0.00000000000E+00 0. -1.
         22    1    1    2    0    0  0.20235382884E+03  0.22717659434E+03  0.32160100936E+03  0.44270022169E+03  0.00000000000E+00 0.  1.
<mgrwt>
<rscale>  0 0.19619300E+04</rscale>
<asrwt>0</asrwt>
<pdfrwt beam="1">  1        1 0.37709421E+00 0.19619300E+04</pdfrwt>
<pdfrwt beam="2">  1       -1 0.60399099E-01 0.19619300E+04</pdfrwt>
<totfact> 0.37910041E+00</totfact>
</mgrwt>
</event>
<event>
 6    1  0.1603085E-006  0.1765551E+04  0.7818608E-02  0.8724837E-01
         -1   -1    0    0    0  501 -0.00000000000E+00  0.00000000000E+00  0.37656542069E+03  0.37656542069E+03  0.00000000000E+00 0. -1.
          1   -1    0    0  501    0  0.00000000000E+00 -0.00000000000E+00 -0.20694748680E+04  0.20694748680E+04  0.00000000000E+00 0.  1.
         23    2    1    2    0    0  0.65832249179E+03  0.57128340110E+03 -0.67651713753E+03  0.11070830246E+04  0.90576810007E+02 0.  0.
         13    1    3    3    0    0  0.21263329335E+03  0.14419329473E+03 -0.16433722047E+03  0.30497761511E+03  0.00000000000E+00 0. -1.
        -13    1    3    3    0    0  0.44568919845E+03  0.42709010637E+03 -0.51217991706E+03  0.80210540954E+03  0.00000000000E+00 0.  1.
         22    1    1    2    0    0 -0.65832249179E+03 -0.57128340110E+03 -0.10163923098E+04  0.13389572641E+04  0.00000000000E+00 0.  1.
<mgrwt>
<rscale>  0 0.17655511E+04</rscale>
<asrwt>0</asrwt>
<pdfrwt beam="1">  1        1 0.31838076E+00 0.17655511E+04</pdfrwt>
<pdfrwt beam="2">  1       -1 0.57933140E-01 0.17655511E+04</pdfrwt>
<totfact> 0.76380527E+00</totfact>
</mgrwt>
</event>
<event>
 6    1  0.1603085E-006  0.6182912E+04  0.7818608E-02  0.7668128E-01
         -2   -1    0    0    0  501 -0.00000000000E+00  0.00000000000E+00  0.25059424725E+04  0.25059424725E+04  0.00000000000E+00 0.  1.
          2   -1    0    0  501    0  0.00000000000E+00 -0.00000000000E+00 -0.38137742274E+04  0.38137742274E+04  0.00000000000E+00 0. -1.
         23    2    1    2    0    0 -0.81693419545E+03  0.25957736439E+03 -0.36893279193E+04  0.37886525227E+04  0.89361925974E+02 0.  0.
         11    1    3    3    0    0 -0.66192691507E+03  0.17265154499E+03 -0.29140388539E+04  0.29932554584E+04  0.00000000000E+00 0. -1.
        -11    1    3    3    0    0 -0.15500728038E+03  0.86925819396E+02 -0.77528906541E+03  0.79539706436E+03  0.00000000000E+00 0.  1.
         22    1    1    2    0    0  0.81693419545E+03 -0.25957736439E+03  0.23814961645E+04  0.25310641772E+04  0.00000000000E+00 0.  1.
<mgrwt>
<rscale>  0 0.61829116E+04</rscale>
<asrwt>0</asrwt>
<pdfrwt beam="1">  1        2 0.58673449E+00 0.61829116E+04</pdfrwt>
<pdfrwt beam="2">  1       -2 0.38552961E+00 0.61829116E+04</pdfrwt>
<totfact> 0.29243752E-03</totfact>
</mgrwt>
</event>
<event>
 6    1  0.1603085E-006  0.1704576E+04  0.7818608E-02  0.8758759E-01
          2   -1    0    0  501    0  0.00000000000E+00  0.00000000000E+00  0.13372958100E+04  0.13372958100E+04  0.00000000000E+00 0.  1.
         -2   -1    0    0    0  501 -0.00000000000E+00 -0.00000000000E+00 -0.54318199926E+03  0.54318199926E+03  0.00000000000E+00 0. -1.
         23    2    1    2    0    0 -0.79672324152E+03  0.67768388127E+02  0.80604200933E+02  0.80881720939E+03  0.91256577768E+02 0.  0.
         13    1    3    3    0    0 -0.41988939089E+03  0.68633317876E+01  0.66656637766E+01  0.41999837735E+03  0.00000000000E+00 0.  1.
        -13    1    3    3    0    0 -0.37683385063E+03  0.60905056339E+02  0.73938537156E+02  0.38881883204E+03  0.00000000000E+00 0. -1.
         22    1    1    2    0    0  0.79672324152E+03 -0.67768388127E+02  0.71350960978E+03  0.10716605998E+04  0.00000000000E+00 0.  1.
<mgrwt>
<rscale>  0 0.17045762E+04</rscale>
<asrwt>0</asrwt>
<pdfrwt beam="1">  1        2 0.20573782E+00 0.17045762E+04</pdfrwt>
<pdfrwt beam="2">  1       -2 0.83566462E-01 0.17045762E+04</pdfrwt>
<totfact> 0.18736435E+01</totfact>
</mgrwt>
</event>
<event>
 6    1  0.1603085E-006  0.2744116E+04  0.7818608E-02  0.8320831E-01
          2   -1    0    0  501    0  0.00000000000E+00  0.00000000000E+00  0.22901790662E+04  0.22901790662E+04  0.00000000000E+00 0. -1.
         -2   -1    0    0    0  501 -0.00000000000E+00 -0.00000000000E+00 -0.82200676966E+03  0.82200676966E+03  0.00000000000E+00 0.  1.
         23    2    1    2    0    0 -0.49592551650E+03 -0.10865509335E+04  0.14971994942E+04  0.19174567338E+04  0.92189758506E+02 0.  0.
         13    1    3    3    0    0 -0.38752481016E+03 -0.92629943660E+03  0.12376432598E+04  0.15937273804E+04  0.00000000000E+00 0.  1.
        -13    1    3    3    0    0 -0.10840070635E+03 -0.16025149693E+03  0.25955623446E+03  0.32372935340E+03  0.00000000000E+00 0. -1.
         22    1    1    2    0    0  0.49592551650E+03  0.10865509335E+04 -0.29027197665E+02  0.11947291020E+04  0.00000000000E+00 0.  1.
<mgrwt>
<rscale>  0 0.27441157E+04</rscale>
<asrwt>0</asrwt>
<pdfrwt beam="1">  1        2 0.35233524E+00 0.27441157E+04</pdfrwt>
<pdfrwt beam="2">  1       -2 0.12646258E+00 0.27441157E+04</pdfrwt>
<totfact> 0.18690040E+00</totfact>
</mgrwt>
</event>
<event>
 6    1  0.1603085E-006  0.2625225E+04  0.7818608E-02  0.8359683E-01
         -1   -1    0    0    0  501 -0.00000000000E+00  0.00000000000E+00  0.69256930695E+03  0.69256930695E+03  0.00000000000E+00 0.  1.
          1   -1    0    0  501    0  0.00000000000E+00 -0.00000000000E+00 -0.24877682504E+04  0.24877682504E+04  0.00000000000E+00 0. -1.
         23    2    1    2    0    0  0.82617055836E+03  0.10107442186E+04 -0.75206699992E+03  0.15093241168E+04  0.91065087413E+02 0.  0.
         13    1    3    3    0    0  0.34801294442E+03  0.41639254735E+03 -0.36423977419E+03  0.65357966314E+03  0.00000000000E+00 0. -1.
        -13    1    3    3    0    0  0.47815761394E+03  0.59435167127E+03 -0.38782722573E+03  0.85574445363E+03  0.00000000000E+00 0.  1.
         22    1    1    2    0    0 -0.82617055836E+03 -0.10107442186E+04 -0.10431319435E+04  0.16710134406E+04  0.00000000000E+00 0. -1.
<mgrwt>
<rscale>  0 0.26252253E+04</rscale>
<asrwt>0</asrwt>
<pdfrwt beam="1">  1        1 0.38273358E+00 0.26252253E+04</pdfrwt>
<pdfrwt beam="2">  1       -1 0.10654912E+00 0.26252253E+04</pdfrwt>
<totfact> 0.99840499E-01</totfact>
</mgrwt>
</event>
<event>
 6    1  0.3609885E-006  0.3866166E+04  0.7818608E-02  0.8032103E-01
         -1   -1    0    0    0  501 -0.00000000000E+00  0.00000000000E+00  0.24533746069E+04  0.24533746069E+04  0.00000000000E+00 0.  1.
          1   -1    0    0  501    0  0.00000000000E+00 -0.00000000000E+00 -0.15231304092E+04  0.15231304092E+04  0.00000000000E+00 0. -1.
         23    2    1    2    0    0  0.43645033859E+03 -0.11235630659E+04 -0.10876294511E+04  0.16260376321E+04  0.90430619419E+02 0.  0.
         13    1    3    3    0    0  0.11531239242E+03 -0.40947645054E+03 -0.36389395849E+03  0.55980954299E+03  0.00000000000E+00 0. -1.
        -13    1    3    3    0    0  0.32113794617E+03 -0.71408661532E+03 -0.72373549264E+03  0.10662280891E+04  0.00000000000E+00 0.  1.
         22    1    1    2    0    0 -0.43645033859E+03  0.11235630659E+04  0.20178736488E+04  0.23504673840E+04  0.00000000000E+00 0.  1.
<mgrwt>
<rscale>  0 0.38661658E+04</rscale>
<asrwt>0</asrwt>
<pdfrwt beam="1">  1        1 0.23432776E+00 0.38661658E+04</pdfrwt>
<pdfrwt beam="2">  1       -1 0.37744225E+00 0.38661658E+04</pdfrwt>
<totfact> 0.50759943E-02</totfact>
</mgrwt>
</event>
<event>
 6    1  0.1603085E-006  0.6326480E+03  0.7818608E-02  0.9839895E-01
          1   -1    0    0  501    0  0.00000000000E+00  0.00000000000E+00  0.25796980774E+03  0.25796980774E+03  0.00000000000E+00 0. -1.
         -1   -1    0    0    0  501 -0.00000000000E+00 -0.00000000000E+00 -0.38787826326E+03  0.38787826326E+03  0.00000000000E+00 0.  1.
         23    2    1    2    0    0 -0.21020729128E+02 -0.16822468148E+03 -0.33095690167E+03  0.38286158425E+03  0.91154305552E+02 0.  0.
         13    1    3    3    0    0  0.23536833809E+02 -0.11908037921E+03 -0.25219135284E+03  0.27988318583E+03  0.00000000000E+00 0. -1.
        -13    1    3    3    0    0 -0.44557562937E+02 -0.49144302270E+02 -0.78765548822E+02  0.10297839842E+03  0.00000000000E+00 0.  1.
         22    1    1    2    0    0  0.21020729128E+02  0.16822468148E+03  0.20104844615E+03  0.26298648675E+03  0.00000000000E+00 0. -1.
<mgrwt>
<rscale>  0 0.63264803E+03</rscale>
<asrwt>0</asrwt>
<pdfrwt beam="1">  1        1 0.39687663E-01 0.63264803E+03</pdfrwt>
<pdfrwt beam="2">  1       -1 0.59673578E-01 0.63264803E+03</pdfrwt>
<totfact> 0.30827444E+02</totfact>
</mgrwt>
</event>
<event>
 6    1  0.1603085E-006  0.2319955E+04  0.7818608E-02  0.8470094E-01
         -2   -1    0    0    0  501 -0.00000000000E+00  0.00000000000E+00  0.10120456066E+04  0.10120456066E+04  0.00000000000E+00 0.  1.
          2   -1    0    0  501    0  0.00000000000E+00 -0.00000000000E+00 -0.13295328495E+04  0.13295328495E+04  0.00000000000E+00 0. -1.
         23    2    1    2    0    0 -0.43553472587E+03  0.76131942019E+03 -0.92220895554E+03  0.12762211888E+04  0.94728074826E+02 0.  0.
         13    1    3    3    0    0 -0.68439378989E+02  0.16261246013E+03 -0.14186587228E+03  0.22639056187E+03  0.00000000000E+00 0. -1.
        -13    1    3    3    0    0 -0.36709534688E+03  0.59870696005E+03 -0.78034308325E+03  0.10498306270E+04  0.00000000000E+00 0.  1.
         22    1    1    2    0    0  0.43553472587E+03 -0.76131942019E+03  0.60472171263E+03  0.10653572672E+04  0.00000000000E+00 0.  1.
<mgrwt>
<rscale>  0 0.23199551E+04</rscale>
<asrwt>0</asrwt>
<pdfrwt beam="1">  1        2 0.20454351E+00 0.23199551E+04</pdfrwt>
<pdfrwt beam="2">  1       -2 0.15569933E+00 0.23199551E+04</pdfrwt>
<totfact> 0.39012285E+00</totfact>
</mgrwt>
</event>
<event>
 6    1  0.1603085E-006  0.1390210E+04  0.7818608E-02  0.8960936E-01
          2   -1    0    0  501    0  0.00000000000E+00  0.00000000000E+00  0.19546304007E+04  0.19546304007E+04  0.00000000000E+00 0. -1.
         -2   -1    0    0    0  501 -0.00000000000E+00 -0.00000000000E+00 -0.24719304904E+03  0.24719304904E+03  0.00000000000E+00 0.  1.
         23    2    1    2    0    0  0.54967365537E+03 -0.15160397965E+03  0.14788098139E+04  0.15874982549E+04  0.90262669483E+02 0.  0.
         11    1    3    3    0    0  0.37525494044E+03 -0.14356343600E+03  0.10709561699E+04  0.11438417060E+04  0.00000000000E+00 0.  1.
        -11    1    3    3    0    0  0.17441871493E+03 -0.80405436495E+01  0.40785364395E+03  0.44365654886E+03  0.00000000000E+00 0. -1.
         22    1    1    2    0    0 -0.54967365537E+03  0.15160397965E+03  0.22862753782E+03  0.61432519491E+03  0.00000000000E+00 0.  1.
<mgrwt>
<rscale>  0 0.13902101E+04</rscale>
<asrwt>0</asrwt>
<pdfrwt beam="1">  1        2 0.30071236E+00 0.13902101E+04</pdfrwt>
<pdfrwt beam="2">  1       -2 0.38029701E-01 0.13902101E+04</pdfrwt>
<totfact> 0.45036532E+01</totfact>
</mgrwt>
</event>
<event>
 6    1  0.1603085E-006  0.3316888E+04  0.7818608E-02  0.8158611E-01
          2   -1    0    0  501    0  0.00000000000E+00  0.00000000000E+00  0.18521714989E+04  0.18521714989E+04  0.00000000000E+00 0. -1.
         -2   -1    0    0    0  501 -0.00000000000E+00 -0.00000000000E+00 -0.14849793975E+04  0.14849793975E+04  0.00000000000E+00 0.  1.
         23    2    1    2    0    0 -0.11415441341E+04  0.54905743616E+03  0.12586929504E+04  0.17881638590E+04  0.92924510886E+02 0.  0.
         13    1    3    3    0    0 -0.72082762903E+03  0.33466570284E+03  0.85015616864E+03  0.11637693562E+04  0.00000000000E+00 0.  1.
        -13    1    3    3    0    0 -0.42071650511E+03  0.21439173331E+03  0.40853678175E+03  0.62439450272E+03  0.00000000000E+00 0. -1.
         22    1    1    2    0    0  0.11415441341E+04 -0.54905743616E+03 -0.89150084899E+03  0.15489870374E+04  0.00000000000E+00 0.  1.
<mgrwt>
<rscale>  0 0.33168880E+04</rscale>
<asrwt>0</asrwt>
<pdfrwt beam="1">  1        2 0.28494946E+00 0.33168880E+04</pdfrwt>
<pdfrwt beam="2">  1       -2 0.22845837E+00 0.33168880E+04</pdfrwt>
<totfact> 0.58863184E-01</totfact>
</mgrwt>
</event>
<event>
 6    1  0.1603085E-006  0.2365998E+04  0.7818608E-02  0.8452344E-01
         -1   -1    0    0    0  501 -0.00000000000E+00  0.00000000000E+00  0.34072659191E+04  0.34072659191E+04  0.00000000000E+00 0.  1.
          1   -1    0    0  501    0  0.00000000000E+00 -0.00000000000E+00 -0.41073598393E+03  0.41073598393E+03  0.00000000000E+00 0. -1.
         23    2    1    2    0    0  0.11451050548E+02 -0.11020206166E+04  0.21868233130E+04  0.24504473776E+04  0.88969557432E+02 0.  0.
         11    1    3    3    0    0  0.46224149426E+02 -0.41641957216E+03  0.85186370357E+03  0.94932275940E+03  0.00000000000E+00 0.  1.
        -11    1    3    3    0    0 -0.34773098878E+02 -0.68560104447E+03  0.13349596094E+04  0.15011246182E+04  0.00000000000E+00 0. -1.
         22    1    1    2    0    0 -0.11451050548E+02  0.11020206166E+04  0.80970662217E+03  0.13675545254E+04  0.00000000000E+00 0.  1.
<mgrwt>
<rscale>  0 0.23659981E+04</rscale>
<asrwt>0</asrwt>
<pdfrwt beam="1">  1        1 0.63190154E-01 0.23659981E+04</pdfrwt>
<pdfrwt beam="2">  1       -1 0.52419474E+00 0.23659981E+04</pdfrwt>
<totfact> 0.54361025E-02</totfact>
</mgrwt>
</event>
<event>
 6    1  0.1603085E-006  0.4036003E+04  0.7818608E-02  0.7997323E-01
          1   -1    0    0  501    0  0.00000000000E+00  0.00000000000E+00  0.25885878374E+04  0.25885878374E+04  0.00000000000E+00 0. -1.
         -1   -1    0    0    0  501 -0.00000000000E+00 -0.00000000000E+00 -0.15731857229E+04  0.15731857229E+04  0.00000000000E+00 0.  1.
         23    2    1    2    0    0 -0.13971172954E+04 -0.14538824090E+04  0.55818901332E+03  0.20942255883E+04  0.92168562387E+02 0.  0.
         11    1    3    3    0    0 -0.34872555445E+03 -0.30942653939E+03  0.11689110115E+03  0.48064313698E+03  0.00000000000E+00 0. -1.
        -11    1    3    3    0    0 -0.10483917410E+04 -0.11444558696E+04  0.44129791217E+03  0.16135824513E+04  0.00000000000E+00 0.  1.
         22    1    1    2    0    0  0.13971172954E+04  0.14538824090E+04  0.45721310119E+03  0.20675479719E+04  0.00000000000E+00 0.  1.
<mgrwt>
<rscale>  0 0.40360027E+04</rscale>
<asrwt>0</asrwt>
<pdfrwt beam="1">  1        1 0.39824428E+00 0.40360027E+04</pdfrwt>
<pdfrwt beam="2">  1       -1 0.24202857E+00 0.40360027E+04</pdfrwt>
<totfact> 0.72104354E-02</totfact>
</mgrwt>
</event>
<event>
 6    1  0.1603085E-006  0.1904415E+04  0.7818608E-02  0.8652662E-01
          1   -1    0    0  501    0  0.00000000000E+00  0.00000000000E+00  0.23564358982E+04  0.23564358982E+04  0.00000000000E+00 0. -1.
         -1   -1    0    0    0  501 -0.00000000000E+00 -0.00000000000E+00 -0.38477558060E+03  0.38477558060E+03  0.00000000000E+00 0.  1.
         23    2    1    2    0    0 -0.17794385292E+03  0.93230177054E+03  0.92746307436E+03  0.13301131516E+04  0.90347305949E+02 0.  0.
         13    1    3    3    0    0 -0.10904105751E+03  0.66057209547E+03  0.70488462017E+03  0.97216653578E+03  0.00000000000E+00 0. -1.
        -13    1    3    3    0    0 -0.68902795417E+02  0.27172967507E+03  0.22257845419E+03  0.35794661585E+03  0.00000000000E+00 0.  1.
         22    1    1    2    0    0  0.17794385292E+03 -0.93230177054E+03  0.10441972432E+04  0.14110983271E+04  0.00000000000E+00 0.  1.
<mgrwt>
<rscale>  0 0.19044149E+04</rscale>
<asrwt>0</asrwt>
<pdfrwt beam="1">  1        1 0.36252859E+00 0.19044149E+04</pdfrwt>
<pdfrwt beam="2">  1       -1 0.59196245E-01 0.19044149E+04</pdfrwt>
<totfact> 0.46075894E+00</totfact>
</mgrwt>
</event>
<event>
 6    1  0.1603085E-006  0.5217317E+04  0.7818608E-02  0.7795831E-01
         -2   -1    0    0    0  501 -0.00000000000E+00  0.00000000000E+00  0.13154174071E+04  0.13154174071E+04  0.00000000000E+00 0.  1.
          2   -1    0    0  501    0  0.00000000000E+00 -0.00000000000E+00 -0.51733385451E+04  0.51733385451E+04  0.00000000000E+00 0. -1.
         23    2    1    2    0    0 -0.87078423602E+03 -0.22631987747E+04 -0.73599909933E+03  0.25356899149E+04  0.87719957937E+02 0.  0.
         11    1    3    3    0    0 -0.34716147630E+03 -0.97298671765E+03 -0.27677281721E+03  0.10694986843E+04  0.00000000000E+00 0. -1.
        -11    1    3    3    0    0 -0.52362275972E+03 -0.12902120570E+04 -0.45922628212E+03  0.14661912306E+04  0.00000000000E+00 0.  1.
         22    1    1    2    0    0  0.87078423602E+03  0.22631987747E+04 -0.31219220386E+04  0.39530660372E+04  0.00000000000E+00 0. -1.
<mgrwt>
<rscale>  0 0.52173172E+04</rscale>
<asrwt>0</asrwt>
<pdfrwt beam="1">  1        2 0.79589823E+00 0.52173172E+04</pdfrwt>
<pdfrwt beam="2">  1       -2 0.20237191E+00 0.52173172E+04</pdfrwt>
<totfact> 0.18081541E-03</totfact>
</mgrwt>
</event>
<event>
 6    1  0.1603085E-006  0.1873816E+04  0.7818608E-02  0.8668001E-01
          2   -1    0    0  501    0  0.00000000000E+00  0.00000000000E+00  0.93270440949E+03  0.93270440949E+03  0.00000000000E+00 0. -1.
         -2   -1    0    0    0  501 -0.00000000000E+00 -0.00000000000E+00 -0.94113063183E+03  0.94113063183E+03  0.00000000000E+00 0.  1.
         23    2    1    2    0    0 -0.85358306724E+03  0.37729456013E+03  0.42471241333E+02  0.93919832601E+03  0.96614965008E+02 0.  0.
         13    1    3    3    0    0 -0.38636780898E+03  0.21699883924E+03  0.43340753390E+02  0.44524936940E+03  0.00000000000E+00 0. -1.
        -13    1    3    3    0    0 -0.46721525826E+03  0.16029572089E+03 -0.86951205748E+00  0.49394895661E+03  0.00000000000E+00 0.  1.
         22    1    1    2    0    0  0.85358306724E+03 -0.37729456013E+03 -0.50897463672E+02  0.93463671530E+03  0.00000000000E+00 0. -1.
<mgrwt>
<rscale>  0 0.18738161E+04</rscale>
<asrwt>0</asrwt>
<pdfrwt beam="1">  1        2 0.14349299E+00 0.18738161E+04</pdfrwt>
<pdfrwt beam="2">  1       -2 0.14478933E+00 0.18738161E+04</pdfrwt>
<totfact> 0.86041461E+00</totfact>
</mgrwt>
</event>
<event>
 6    1  0.1603085E-006  0.2162365E+04  0.7818608E-02  0.8534258E-01
          1   -1    0    0  501    0  0.00000000000E+00  0.00000000000E+00  0.19881272768E+04  0.19881272768E+04  0.00000000000E+00 0. -1.
         -1   -1    0    0    0  501 -0.00000000000E+00 -0.00000000000E+00 -0.58796830205E+03  0.58796830205E+03  0.00000000000E+00 0.  1.
         23    2    1    2    0    0  0.66873703416E+03 -0.13959394391E+03 -0.29459595683E+03  0.74883260704E+03  0.85251425552E+02 0.  0.
         13    1    3    3    0    0  0.23746336191E+03 -0.41979716490E+02 -0.14820484347E+03  0.28304738203E+03  0.00000000000E+00 0. -1.
        -13    1    3    3    0    0  0.43127367225E+03 -0.97614227415E+02 -0.14639111336E+03  0.46578522501E+03  0.00000000000E+00 0.  1.
         22    1    1    2    0    0 -0.66873703416E+03  0.13959394391E+03  0.16947549316E+04  0.18272629718E+04  0.00000000000E+00 0. -1.
<mgrwt>
<rscale>  0 0.21623652E+04</rscale>
<asrwt>0</asrwt>
<pdfrwt beam="1">  1        1 0.30586573E+00 0.21623652E+04</pdfrwt>
<pdfrwt beam="2">  1       -1 0.90456662E-01 0.21623652E+04</pdfrwt>
<totfact> 0.33164724E+00</totfact>
</mgrwt>
</event>
<event>
 6    1  0.1603085E-006  0.2498324E+04  0.7818608E-02  0.8403583E-01
          2   -1    0    0  501    0  0.00000000000E+00  0.00000000000E+00  0.10265985250E+04  0.10265985250E+04  0.00000000000E+00 0. -1.
         -2   -1    0    0    0  501 -0.00000000000E+00 -0.00000000000E+00 -0.15199771150E+04  0.15199771150E+04  0.00000000000E+00 0.  1.
         23    2    1    2    0    0 -0.41831547306E+03  0.20943187915E+03  0.93177898392E+03  0.10466010877E+04  0.91171349233E+02 0.  0.
         13    1    3    3    0    0 -0.39023376373E+03  0.20683015900E+03  0.90798751847E+03  0.10097041343E+04  0.00000000000E+00 0.  1.
        -13    1    3    3    0    0 -0.28081709324E+02  0.26017201550E+01  0.23791465446E+02  0.36896953457E+02  0.00000000000E+00 0. -1.
         22    1    1    2    0    0  0.41831547306E+03 -0.20943187915E+03 -0.14251575739E+04  0.14999745523E+04  0.00000000000E+00 0.  1.
<mgrwt>
<rscale>  0 0.24983244E+04</rscale>
<asrwt>0</asrwt>
<pdfrwt beam="1">  1        2 0.15793824E+00 0.24983244E+04</pdfrwt>
<pdfrwt beam="2">  1       -2 0.23384263E+00 0.24983244E+04</pdfrwt>
<totfact> 0.17475647E+00</totfact>
</mgrwt>
</event>
<event>
 6    1  0.1603085E-006  0.1199600E+04  0.7818608E-02  0.9113207E-01
         -2   -1    0    0    0  501 -0.00000000000E+00  0.00000000000E+00  0.15632646374E+03  0.15632646374E+03  0.00000000000E+00 0.  1.
          2   -1    0    0  501    0  0.00000000000E+00 -0.00000000000E+00 -0.23013383398E+04  0.23013383398E+04  0.00000000000E+00 0. -1.
         23    2    1    2    0    0 -0.58852061061E+03 -0.66987797117E+02 -0.12205545359E+04  0.13597279894E+04  0.90900802739E+02 0.  0.
         13    1    3    3    0    0 -0.10981034599E+03 -0.48758080997E+02 -0.23780065195E+03  0.26642975174E+03  0.00000000000E+00 0.  1.
        -13    1    3    3    0    0 -0.47871026462E+03 -0.18229716120E+02 -0.98275388395E+03  0.10932982376E+04  0.00000000000E+00 0. -1.
         22    1    1    2    0    0  0.58852061061E+03  0.66987797117E+02 -0.92445734013E+03  0.10979368141E+04  0.00000000000E+00 0. -1.
<mgrwt>
<rscale>  0 0.11996001E+04</rscale>
<asrwt>0</asrwt>
<pdfrwt beam="1">  1        2 0.35405205E+00 0.11996001E+04</pdfrwt>
<pdfrwt beam="2">  1       -2 0.24050225E-01 0.11996001E+04</pdfrwt>
<totfact> 0.68998017E+01</totfact>
</mgrwt>
</event>
<event>
 6    1  0.1603085E-006  0.5433384E+03  0.7818608E-02  0.1003048E+00
         -2   -1    0    0    0  501 -0.00000000000E+00  0.00000000000E+00  0.47834794971E+03  0.47834794971E+03  0.00000000000E+00 0.  1.
          2   -1    0    0  501    0  0.00000000000E+00 -0.00000000000E+00 -0.15428970318E+03  0.15428970318E+03  0.00000000000E+00 0. -1.
         23    2    1    2    0    0  0.17277480743E+03 -0.55567333576E+02  0.38945670112E+03  0.43972362927E+03  0.93495911396E+02 0.  0.
         13    1    3    3    0    0  0.13831413515E+03 -0.72619461169E+01  0.31791968795E+03  0.34678013759E+03  0.00000000000E+00 0.  1.
        -13    1    3    3    0    0  0.34460672279E+02 -0.48305387459E+02  0.71537013171E+02  0.92943491676E+02  0.00000000000E+00 0. -1.
         22    1    1    2    0    0 -0.17277480743E+03  0.55567333576E+02 -0.65398454593E+02  0.19291402361E+03  0.00000000000E+00 0. -1.
<mgrwt>
<rscale>  0 0.54333843E+03</rscale>
<asrwt>0</asrwt>
<pdfrwt beam="1">  1        2 0.23736878E-01 0.54333843E+03</pdfrwt>
<pdfrwt beam="2">  1       -2 0.73591991E-01 0.54333843E+03</pdfrwt>
<totfact> 0.39133945E+02</totfact>
</mgrwt>
</event>
<event>
 6    1  0.1603085E-006  0.1329018E+04  0.7818608E-02  0.9006865E-01
         -2   -1    0    0    0  501 -0.00000000000E+00  0.00000000000E+00  0.45325582197E+03  0.45325582197E+03  0.00000000000E+00 0.  1.
          2   -1    0    0  501    0  0.00000000000E+00 -0.00000000000E+00 -0.97422287174E+03  0.97422287174E+03  0.00000000000E+00 0. -1.
         23    2    1    2    0    0  0.48555780649E+03 -0.49173365508E+01  0.22068923724E+03  0.54099992256E+03  0.90479904580E+02 0.  0.
         11    1    3    3    0    0  0.11217163857E+03  0.31260525192E+02  0.75327731852E+02  0.13868656792E+03  0.00000000000E+00 0. -1.
        -11    1    3    3    0    0  0.37338616792E+03 -0.36177861743E+02  0.14536150539E+03  0.40231335464E+03  0.00000000000E+00 0.  1.
         22    1    1    2    0    0 -0.48555780649E+03  0.49173365508E+01 -0.74165628700E+03  0.88647877115E+03  0.00000000000E+00 0. -1.
<mgrwt>
<rscale>  0 0.13290180E+04</rscale>
<asrwt>0</asrwt>
<pdfrwt beam="1">  1        2 0.14988044E+00 0.13290180E+04</pdfrwt>
<pdfrwt beam="2">  1       -2 0.69731665E-01 0.13290180E+04</pdfrwt>
<totfact> 0.48011382E+01</totfact>
</mgrwt>
</event>
<event>
 6    1  0.1603085E-006  0.2201537E+04  0.7818608E-02  0.8517789E-01
         -1   -1    0    0    0  501 -0.00000000000E+00  0.00000000000E+00  0.82701454166E+03  0.82701454166E+03  0.00000000000E+00 0.  1.
          1   -1    0    0  501    0  0.00000000000E+00 -0.00000000000E+00 -0.14651390406E+04  0.14651390406E+04  0.00000000000E+00 0. -1.
         23    2    1    2    0    0  0.10822494142E+04  0.12447692379E+03 -0.16811120303E+03  0.11057005501E+04  0.86913927901E+02 0.  0.
         11    1    3    3    0    0  0.10206633919E+04  0.13720070431E+03 -0.16216960536E+03  0.10425338238E+04  0.00000000000E+00 0. -1.
        -11    1    3    3    0    0  0.61586022349E+02 -0.12723780523E+02 -0.59415976695E+01  0.63166726387E+02  0.00000000000E+00 0.  1.
         22    1    1    2    0    0 -0.10822494142E+04 -0.12447692379E+03 -0.47001329595E+03  0.11864530322E+04  0.00000000000E+00 0. -1.
<mgrwt>
<rscale>  0 0.22015370E+04</rscale>
<asrwt>0</asrwt>
<pdfrwt beam="1">  1        1 0.22540600E+00 0.22015370E+04</pdfrwt>
<pdfrwt beam="2">  1       -1 0.12723301E+00 0.22015370E+04</pdfrwt>
<totfact> 0.33760792E+00</totfact>
</mgrwt>
</event>
<event>
 6    1  0.1603085E-006  0.1571679E+04  0.7818608E-02  0.8838138E-01
         -1   -1    0    0    0  501 -0.00000000000E+00  0.00000000000E+00  0.25142191714E+03  0.25142191714E+03  0.00000000000E+00 0.  1.
          1   -1    0    0  501    0  0.00000000000E+00 -0.00000000000E+00 -0.24562054757E+04  0.24562054757E+04  0.00000000000E+00 0. -1.
         23    2    1    2    0    0  0.19282022809E+03 -0.69566803396E+03 -0.58309935167E+03  0.93252364356E+03  0.91988249485E+02 0.  0.
         13    1    3    3    0    0  0.16618257194E+03 -0.63259958316E+03 -0.55753247791E+03  0.85944246100E+03  0.00000000000E+00 0.  1.
        -13    1    3    3    0    0  0.26637656143E+02 -0.63068450804E+02 -0.25566873757E+02  0.73081182567E+02  0.00000000000E+00 0. -1.
         22    1    1    2    0    0 -0.19282022809E+03  0.69566803396E+03 -0.16216842069E+04  0.17751037493E+04  0.00000000000E+00 0. -1.
<mgrwt>
<rscale>  0 0.15716792E+04</rscale>
<asrwt>0</asrwt>
<pdfrwt beam="1">  1        1 0.37787776E+00 0.15716792E+04</pdfrwt>
<pdfrwt beam="2">  1       -1 0.38680295E-01 0.15716792E+04</pdfrwt>
<totfact> 0.90667873E+00</totfact>
</mgrwt>
</event>
<event>
 6    1  0.1603085E-006  0.6269792E+04  0.7818608E-02  0.7657822E-01
         -2   -1    0    0    0  501 -0.00000000000E+00  0.00000000000E+00  0.27149559508E+04  0.27149559508E+04  0.00000000000E+00 0.  1.
          2   -1    0    0  501    0  0.00000000000E+00 -0.00000000000E+00 -0.36197913242E+04  0.36197913242E+04  0.00000000000E+00 0. -1.
         23    2    1    2    0    0  0.41355656770E+03  0.20657769050E+04 -0.27970846968E+04  0.35029508914E+04  0.92297838307E+02 0.  0.
         11    1    3    3    0    0  0.19634068082E+03  0.97611401464E+03 -0.12455287951E+04  0.15945815162E+04  0.00000000000E+00 0.  1.
        -11    1    3    3    0    0  0.21721588688E+03  0.10896628903E+04 -0.15515559017E+04  0.19083693752E+04  0.00000000000E+00 0. -1.
         22    1    1    2    0    0 -0.41355656770E+03 -0.20657769050E+04  0.18922493235E+04  0.28317963836E+04  0.00000000000E+00 0.  1.
<mgrwt>
<rscale>  0 0.62697923E+04</rscale>
<asrwt>0</asrwt>
<pdfrwt beam="1">  1        2 0.55689097E+00 0.62697923E+04</pdfrwt>
<pdfrwt beam="2">  1       -2 0.41768553E+00 0.62697923E+04</pdfrwt>
<totfact> 0.25004445E-03</totfact>
</mgrwt>
</event>
<event>
 6    1  0.1603085E-006  0.2774361E+04  0.7818608E-02  0.8311273E-01
         -2   -1    0    0    0  501 -0.00000000000E+00  0.00000000000E+00  0.13565628086E+04  0.13565628086E+04  0.00000000000E+00 0.  1.
          2   -1    0    0  501    0  0.00000000000E+00 -0.00000000000E+00 -0.14184891138E+04  0.14184891138E+04  0.00000000000E+00 0. -1.
         23    2    1    2    0    0 -0.50945723190E+03 -0.81872347214E+03  0.96406086165E+03  0.13670375541E+04  0.97588597697E+02 0.  0.
         11    1    3    3    0    0 -0.12694965340E+03 -0.24686972452E+03  0.33221788922E+03  0.43293140485E+03  0.00000000000E+00 0. -1.
        -11    1    3    3    0    0 -0.38250757850E+03 -0.57185374762E+03  0.63184297243E+03  0.93410614926E+03  0.00000000000E+00 0.  1.
         22    1    1    2    0    0  0.50945723190E+03  0.81872347214E+03 -0.10259871668E+04  0.14080143683E+04  0.00000000000E+00 0. -1.
<mgrwt>
<rscale>  0 0.27743609E+04</rscale>
<asrwt>0</asrwt>
<pdfrwt beam="1">  1        2 0.21822909E+00 0.27743609E+04</pdfrwt>
<pdfrwt beam="2">  1       -2 0.20870197E+00 0.27743609E+04</pdfrwt>
<totfact> 0.14376468E+00</totfact>
</mgrwt>
</event>
<event>
 6    1  0.1603085E-006  0.1536778E+04  0.7818608E-02  0.8860358E-01
         -2   -1    0    0    0  501 -0.00000000000E+00  0.00000000000E+00  0.21266923654E+03  0.21266923654E+03  0.00000000000E+00 0.  1.
          2   -1    0    0  501    0  0.00000000000E+00 -0.00000000000E+00 -0.27762425132E+04  0.27762425132E+04  0.00000000000E+00 0. -1.
         23    2    1    2    0    0  0.58254124577E+03 -0.37290297416E+03 -0.64701376648E+03  0.95136143448E+03  0.89726438934E+02 0.  0.
         11    1    3    3    0    0  0.84772761977E+02 -0.46658823812E+02 -0.13606954833E+03  0.16696822750E+03  0.00000000000E+00 0.  1.
        -11    1    3    3    0    0  0.49776848379E+03 -0.32624415035E+03 -0.51094421815E+03  0.78439320698E+03  0.00000000000E+00 0. -1.
         22    1    1    2    0    0 -0.58254124577E+03  0.37290297416E+03 -0.19165595101E+04  0.20375503152E+04  0.00000000000E+00 0.  1.
<mgrwt>
<rscale>  0 0.15367776E+04</rscale>
<asrwt>0</asrwt>
<pdfrwt beam="1">  1        2 0.42711422E+00 0.15367776E+04</pdfrwt>
<pdfrwt beam="2">  1       -2 0.32718345E-01 0.15367776E+04</pdfrwt>
<totfact> 0.20153192E+01</totfact>
</mgrwt>
</event>
<event>
 6    1  0.1603085E-006  0.1722438E+04  0.7818608E-02  0.8748670E-01
          2   -1    0    0  501    0  0.00000000000E+00  0.00000000000E+00  0.12596828319E+04  0.12596828319E+04  0.00000000000E+00 0. -1.
         -2   -1    0    0    0  501 -0.00000000000E+00 -0.00000000000E+00 -0.58879730589E+03  0.58879730589E+03  0.00000000000E+00 0.  1.
         23    2    1    2    0    0 -0.22570957422E+03 -0.27593974983E+03  0.11748153272E+04  0.12312015928E+04  0.92621551212E+02 0.  0.
         11    1    3    3    0    0 -0.20104426077E+03 -0.26731703178E+03  0.10002839872E+04  0.10547251990E+04  0.00000000000E+00 0.  1.
        -11    1    3    3    0    0 -0.24665313446E+02 -0.86227180494E+01  0.17453134000E+03  0.17647639388E+03  0.00000000000E+00 0. -1.
         22    1    1    2    0    0  0.22570957422E+03  0.27593974983E+03 -0.50392980124E+03  0.61727854491E+03  0.00000000000E+00 0.  1.
<mgrwt>
<rscale>  0 0.17224376E+04</rscale>
<asrwt>0</asrwt>
<pdfrwt beam="1">  1        2 0.19379736E+00 0.17224376E+04</pdfrwt>
<pdfrwt beam="2">  1       -2 0.90584201E-01 0.17224376E+04</pdfrwt>
<totfact> 0.17265909E+01</totfact>
</mgrwt>
</event>
<event>
 6    1  0.1603085E-006  0.1357223E+04  0.7818608E-02  0.8985378E-01
         -2   -1    0    0    0  501 -0.00000000000E+00  0.00000000000E+00  0.42201659530E+03  0.42201659530E+03  0.00000000000E+00 0.  1.
          2   -1    0    0  501    0  0.00000000000E+00 -0.00000000000E+00 -0.10912211578E+04  0.10912211578E+04  0.00000000000E+00 0. -1.
         23    2    1    2    0    0  0.17525256374E+03 -0.64736678130E+03 -0.42645838045E+03  0.79998960585E+03  0.91210792040E+02 0.  0.
         13    1    3    3    0    0  0.98001194152E+02 -0.31792221897E+03 -0.26360287200E+03  0.42445876772E+03  0.00000000000E+00 0.  1.
        -13    1    3    3    0    0  0.77251369584E+02 -0.32944456233E+03 -0.16285550845E+03  0.37553083813E+03  0.00000000000E+00 0. -1.
         22    1    1    2    0    0 -0.17525256374E+03  0.64736678130E+03 -0.24274618203E+03  0.71324814722E+03  0.00000000000E+00 0.  1.
<mgrwt>
<rscale>  0 0.13572228E+04</rscale>
<asrwt>0</asrwt>
<pdfrwt beam="1">  1        2 0.16788017E+00 0.13572228E+04</pdfrwt>
<pdfrwt beam="2">  1       -2 0.64925632E-01 0.13572228E+04</pdfrwt>
<totfact> 0.47140607E+01</totfact>
</mgrwt>
</event>
<event>
 6    1  0.1603085E-006  0.3682540E+04  0.7818608E-02  0.8071842E-01
         -2   -1    0    0    0  501 -0.00000000000E+00  0.00000000000E+00  0.16533931385E+04  0.16533931385E+04  0.00000000000E+00 0.  1.
          2   -1    0    0  501    0  0.00000000000E+00 -0.00000000000E+00 -0.20504953438E+04  0.20504953438E+04  0.00000000000E+00 0. -1.
         23    2    1    2    0    0  0.84646323442E+03 -0.12968404647E+04  0.80095438142E+03  0.17459214797E+04  0.91753441755E+02 0.  0.
         13    1    3    3    0    0  0.36750158953E+03 -0.55272041916E+03  0.29276778746E+03  0.72544486864E+03  0.00000000000E+00 0.  1.
        -13    1    3    3    0    0  0.47896164489E+03 -0.74412004558E+03  0.50818659396E+03  0.10204766111E+04  0.00000000000E+00 0. -1.
         22    1    1    2    0    0 -0.84646323442E+03  0.12968404647E+04 -0.11980565867E+04  0.19579670026E+04  0.00000000000E+00 0.  1.
<mgrwt>
<rscale>  0 0.36825398E+04</rscale>
<asrwt>0</asrwt>
<pdfrwt beam="1">  1        2 0.31546082E+00 0.36825398E+04</pdfrwt>
<pdfrwt beam="2">  1       -2 0.25436818E+00 0.36825398E+04</pdfrwt>
<totfact> 0.30626391E-01</totfact>
</mgrwt>
</event>
<event>
 6    1  0.1603085E-006  0.4214772E+04  0.7818608E-02  0.7962568E-01
          2   -1    0    0  501    0  0.00000000000E+00  0.00000000000E+00  0.39611346267E+04  0.39611346267E+04  0.00000000000E+00 0. -1.
         -2   -1    0    0    0  501 -0.00000000000E+00 -0.00000000000E+00 -0.11211626308E+04  0.11211626308E+04  0.00000000000E+00 0.  1.
         23    2    1    2    0    0 -0.16587969649E+04  0.91220818735E+02  0.29821506595E+04  0.34149210609E+04  0.92383374604E+02 0.  0.
         11    1    3    3    0    0 -0.73861953131E+03  0.56819084201E+02  0.14181754476E+04  0.16000027565E+04  0.00000000000E+00 0. -1.
        -11    1    3    3    0    0 -0.92017743355E+03  0.34401734534E+02  0.15639752119E+04  0.18149183045E+04  0.00000000000E+00 0.  1.
         22    1    1    2    0    0  0.16587969649E+04 -0.91220818735E+02 -0.14217866366E+03  0.16673761965E+04  0.00000000000E+00 0.  1.
<mgrwt>
<rscale>  0 0.42147722E+04</rscale>
<asrwt>0</asrwt>
<pdfrwt beam="1">  1        2 0.60940532E+00 0.42147722E+04</pdfrwt>
<pdfrwt beam="2">  1       -2 0.17248656E+00 0.42147722E+04</pdfrwt>
<totfact> 0.58126659E-02</totfact>
</mgrwt>
</event>
<event>
 6    1  0.1603085E-006  0.3802126E+04  0.7818608E-02  0.8045699E-01
         -1   -1    0    0    0  501 -0.00000000000E+00  0.00000000000E+00  0.71498264188E+03  0.71498264188E+03  0.00000000000E+00 0.  1.
          1   -1    0    0  501    0  0.00000000000E+00 -0.00000000000E+00 -0.50547251854E+04  0.50547251854E+04  0.00000000000E+00 0. -1.
         23    2    1    2    0    0 -0.97406290464E+03 -0.36702423355E+03 -0.45833649226E+04  0.47006628358E+04  0.74106354465E+02 0.  0.
         11    1    3    3    0    0 -0.70454537860E+03 -0.23319558839E+03 -0.33261005403E+04  0.34078892554E+04  0.00000000000E+00 0. -1.
        -11    1    3    3    0    0 -0.26951752604E+03 -0.13382864517E+03 -0.12572643823E+04  0.12927735804E+04  0.00000000000E+00 0.  1.
         22    1    1    2    0    0  0.97406290464E+03  0.36702423355E+03  0.24362237910E+03  0.10690449915E+04  0.00000000000E+00 0.  1.
<mgrwt>
<rscale>  0 0.38021261E+04</rscale>
<asrwt>0</asrwt>
<pdfrwt beam="1">  1        1 0.77765002E+00 0.38021261E+04</pdfrwt>
<pdfrwt beam="2">  1       -1 0.10999733E+00 0.38021261E+04</pdfrwt>
<totfact> 0.44152252E-03</totfact>
</mgrwt>
</event>
<event>
 6    1  0.1603085E-006  0.7067861E+03  0.7818608E-02  0.9705697E-01
         -2   -1    0    0    0  501 -0.00000000000E+00  0.00000000000E+00  0.12895171678E+03  0.12895171678E+03  0.00000000000E+00 0.  1.
          2   -1    0    0  501    0  0.00000000000E+00 -0.00000000000E+00 -0.96847590790E+03  0.96847590790E+03  0.00000000000E+00 0. -1.
         23    2    1    2    0    0  0.21578372408E+03  0.17055043188E+03 -0.75582366705E+03  0.80992833230E+03  0.95207260205E+02 0.  0.
         13    1    3    3    0    0  0.16295269707E+03  0.84679046730E+02 -0.56518168750E+03  0.59426800547E+03  0.00000000000E+00 0.  1.
        -13    1    3    3    0    0  0.52831027012E+02  0.85871385148E+02 -0.19064197955E+03  0.21566032683E+03  0.00000000000E+00 0. -1.
         22    1    1    2    0    0 -0.21578372408E+03 -0.17055043188E+03 -0.83700524064E+02  0.28749929238E+03  0.00000000000E+00 0.  1.
<mgrwt>
<rscale>  0 0.70678605E+03</rscale>
<asrwt>0</asrwt>
<pdfrwt beam="1">  1        2 0.14899629E+00 0.70678605E+03</pdfrwt>
<pdfrwt beam="2">  1       -2 0.19838725E-01 0.70678605E+03</pdfrwt>
<totfact> 0.57527274E+02</totfact>
</mgrwt>
</event>
<event>
 6    1  0.1603085E-006  0.2368977E+04  0.7818608E-02  0.8451210E-01
         -2   -1    0    0    0  501 -0.00000000000E+00  0.00000000000E+00  0.86903801724E+03  0.86903801724E+03  0.00000000000E+00 0.  1.
          2   -1    0    0  501    0  0.00000000000E+00 -0.00000000000E+00 -0.16144443429E+04  0.16144443429E+04  0.00000000000E+00 0. -1.
         23    2    1    2    0    0  0.56621991933E+03 -0.10382317908E+04 -0.35047242561E+03  0.12366852499E+04  0.89606014121E+02 0.  0.
         11    1    3    3    0    0  0.50012551768E+03 -0.85953463455E+03 -0.27517262295E+03  0.10318165020E+04  0.00000000000E+00 0. -1.
        -11    1    3    3    0    0  0.66094401654E+02 -0.17869715628E+03 -0.75299802662E+02  0.20486874792E+03  0.00000000000E+00 0.  1.
         22    1    1    2    0    0 -0.56621991933E+03  0.10382317908E+04 -0.39493390001E+03  0.12467971102E+04  0.00000000000E+00 0. -1.
<mgrwt>
<rscale>  0 0.23689774E+04</rscale>
<asrwt>0</asrwt>
<pdfrwt beam="1">  1        2 0.24837605E+00 0.23689774E+04</pdfrwt>
<pdfrwt beam="2">  1       -2 0.13369816E+00 0.23689774E+04</pdfrwt>
<totfact> 0.39913765E+00</totfact>
</mgrwt>
</event>
<event>
 6    1  0.1603085E-006  0.1454656E+04  0.7818608E-02  0.8915179E-01
          2   -1    0    0  501    0  0.00000000000E+00  0.00000000000E+00  0.12053237325E+04  0.12053237325E+04  0.00000000000E+00 0. -1.
         -2   -1    0    0    0  501 -0.00000000000E+00 -0.00000000000E+00 -0.43889122193E+03  0.43889122193E+03  0.00000000000E+00 0.  1.
         23    2    1    2    0    0 -0.15150425518E+03  0.64913578718E+03  0.70682577951E+03  0.97497376331E+03  0.81488324519E+02 0.  0.
         13    1    3    3    0    0 -0.75215189130E+02  0.18850940391E+03  0.24656167954E+03  0.31935212832E+03  0.00000000000E+00 0. -1.
        -13    1    3    3    0    0 -0.76289066051E+02  0.46062638326E+03  0.46026409996E+03  0.65562163499E+03  0.00000000000E+00 0.  1.
         22    1    1    2    0    0  0.15150425518E+03 -0.64913578718E+03  0.59606731083E+02  0.66924119114E+03  0.00000000000E+00 0.  1.
<mgrwt>
<rscale>  0 0.14546560E+04</rscale>
<asrwt>0</asrwt>
<pdfrwt beam="1">  1        2 0.18543442E+00 0.14546560E+04</pdfrwt>
<pdfrwt beam="2">  1       -2 0.67521727E-01 0.14546560E+04</pdfrwt>
<totfact> 0.36654438E+01</totfact>
</mgrwt>
</event>
<event>
 6    1  0.1603085E-006  0.3549987E+04  0.7818608E-02  0.8102045E-01
         -2   -1    0    0    0  501 -0.00000000000E+00  0.00000000000E+00  0.17303761366E+04  0.17303761366E+04  0.00000000000E+00 0.  1.
          2   -1    0    0  501    0  0.00000000000E+00 -0.00000000000E+00 -0.18207611998E+04  0.18207611998E+04  0.00000000000E+00 0. -1.
         23    2    1    2    0    0 -0.37489997342E+03 -0.13242650068E+04  0.10743703223E+04  0.17481168411E+04  0.86099374985E+02 0.  0.
         11    1    3    3    0    0 -0.24923604283E+03 -0.75077064305E+03  0.64675189720E+03  0.10217940987E+04  0.00000000000E+00 0. -1.
        -11    1    3    3    0    0 -0.12566393059E+03 -0.57349436372E+03  0.42761842513E+03  0.72632274244E+03  0.00000000000E+00 0.  1.
         22    1    1    2    0    0  0.37489997342E+03  0.13242650068E+04 -0.11647553856E+04  0.18030204953E+04  0.00000000000E+00 0. -1.
<mgrwt>
<rscale>  0 0.35499869E+04</rscale>
<asrwt>0</asrwt>
<pdfrwt beam="1">  1        2 0.28011711E+00 0.35499869E+04</pdfrwt>
<pdfrwt beam="2">  1       -2 0.26621171E+00 0.35499869E+04</pdfrwt>
<totfact> 0.35154852E-01</totfact>
</mgrwt>
</event>
<event>
 6    1  0.1603085E-006  0.1829302E+04  0.7818608E-02  0.8690870E-01
          1   -1    0    0  501    0  0.00000000000E+00  0.00000000000E+00  0.38804474399E+03  0.38804474399E+03  0.00000000000E+00 0. -1.
         -1   -1    0    0    0  501 -0.00000000000E+00 -0.00000000000E+00 -0.21559020308E+04  0.21559020308E+04  0.00000000000E+00 0.  1.
         23    2    1    2    0    0 -0.19875589617E+03 -0.62122819686E+03  0.14475347178E+01  0.65824586258E+03  0.88640517896E+02 0.  0.
         11    1    3    3    0    0 -0.92993657243E+02 -0.21137063487E+03 -0.34296907409E+02  0.23345587041E+03  0.00000000000E+00 0.  1.
        -11    1    3    3    0    0 -0.10576223893E+03 -0.40985756199E+03  0.35744442127E+02  0.42478999217E+03  0.00000000000E+00 0. -1.
         22    1    1    2    0    0  0.19875589617E+03  0.62122819686E+03 -0.17693048215E+04  0.18857009122E+04  0.00000000000E+00 0.  1.
<mgrwt>
<rscale>  0 0.18293020E+04</rscale>
<asrwt>0</asrwt>
<pdfrwt beam="1">  1        1 0.59699191E-01 0.18293020E+04</pdfrwt>
<pdfrwt beam="2">  1       -1 0.33167724E+00 0.18293020E+04</pdfrwt>
<totfact> 0.12091666E+00</totfact>
</mgrwt>
</event>
<event>
 6    1  0.1603085E-006  0.2813670E+04  0.7818608E-02  0.8299037E-01
          2   -1    0    0  501    0  0.00000000000E+00  0.00000000000E+00  0.33860775965E+04  0.33860775965E+04  0.00000000000E+00 0. -1.
         -2   -1    0    0    0  501 -0.00000000000E+00 -0.00000000000E+00 -0.58450647819E+03  0.58450647819E+03  0.00000000000E+00 0.  1.
         23    2    1    2    0    0 -0.11974567419E+04  0.43501320702E+03  0.56562237942E+03  0.13971416522E+04  0.94535608853E+02 0.  0.
         13    1    3    3    0    0 -0.53189147671E+03  0.14589160916E+03  0.22830845691E+03  0.59692349268E+03  0.00000000000E+00 0.  1.
        -13    1    3    3    0    0 -0.66556526515E+03  0.28912159786E+03  0.33731392251E+03  0.80021815953E+03  0.00000000000E+00 0. -1.
         22    1    1    2    0    0  0.11974567419E+04 -0.43501320702E+03  0.22359487389E+04  0.25734424225E+04  0.00000000000E+00 0. -1.
<mgrwt>
<rscale>  0 0.28136697E+04</rscale>
<asrwt>0</asrwt>
<pdfrwt beam="1">  1        2 0.52093500E+00 0.28136697E+04</pdfrwt>
<pdfrwt beam="2">  1       -2 0.89924076E-01 0.28136697E+04</pdfrwt>
<totfact> 0.89659447E-01</totfact>
</mgrwt>
</event>
<event>
 6    1  0.1603085E-006  0.2193994E+04  0.7818608E-02  0.8520932E-01
         -1   -1    0    0    0  501 -0.00000000000E+00  0.00000000000E+00  0.87011720166E+03  0.87011720166E+03  0.00000000000E+00 0.  1.
          1   -1    0    0  501    0  0.00000000000E+00 -0.00000000000E+00 -0.13830348790E+04  0.13830348790E+04  0.00000000000E+00 0. -1.
         23    2    1    2    0    0 -0.90880187021E+03 -0.47959178969E+03  0.13195130427E+03  0.10399805646E+04  0.90660376965E+02 0.  0.
         13    1    3    3    0    0 -0.37139136160E+03 -0.15380392731E+03  0.27582007123E+02  0.40292425919E+03  0.00000000000E+00 0. -1.
        -13    1    3    3    0    0 -0.53741050861E+03 -0.32578786237E+03  0.10436929715E+03  0.63705630538E+03  0.00000000000E+00 0.  1.
         22    1    1    2    0    0  0.90880187021E+03  0.47959178969E+03 -0.64486898165E+03  0.12131715161E+04  0.00000000000E+00 0.  1.
<mgrwt>
<rscale>  0 0.21939940E+04</rscale>
<asrwt>0</asrwt>
<pdfrwt beam="1">  1        1 0.21277460E+00 0.21939940E+04</pdfrwt>
<pdfrwt beam="2">  1       -1 0.13386419E+00 0.21939940E+04</pdfrwt>
<totfact> 0.33911621E+00</totfact>
</mgrwt>
</event>
<event>
 6    1  0.1603085E-006  0.1759522E+04  0.7818608E-02  0.8728126E-01
          2   -1    0    0  501    0  0.00000000000E+00  0.00000000000E+00  0.96493683170E+03  0.96493683170E+03  0.00000000000E+00 0. -1.
         -2   -1    0    0    0  501 -0.00000000000E+00 -0.00000000000E+00 -0.80210397831E+03  0.80210397831E+03  0.00000000000E+00 0.  1.
         23    2    1    2    0    0 -0.97997197755E+02  0.47757677250E+03  0.81406747222E+03  0.95353632130E+03  0.94035324761E+02 0.  0.
         13    1    3    3    0    0 -0.11931799708E+02  0.18664476125E+03  0.24042134925E+03  0.30459983572E+03  0.00000000000E+00 0. -1.
        -13    1    3    3    0    0 -0.86065398047E+02  0.29093201125E+03  0.57364612297E+03  0.64893648557E+03  0.00000000000E+00 0.  1.
         22    1    1    2    0    0  0.97997197755E+02 -0.47757677250E+03 -0.65123461883E+03  0.81350448871E+03  0.00000000000E+00 0.  1.
<mgrwt>
<rscale>  0 0.17595223E+04</rscale>
<asrwt>0</asrwt>
<pdfrwt beam="1">  1        2 0.14845182E+00 0.17595223E+04</pdfrwt>
<pdfrwt beam="2">  1       -2 0.12340061E+00 0.17595223E+04</pdfrwt>
<totfact> 0.12449842E+01</totfact>
</mgrwt>
</event>
<event>
 6    1  0.1603085E-006  0.1462045E+04  0.7818608E-02  0.8910093E-01
         -2   -1    0    0    0  501 -0.00000000000E+00  0.00000000000E+00  0.31327035597E+03  0.31327035597E+03  0.00000000000E+00 0.  1.
          2   -1    0    0  501    0  0.00000000000E+00 -0.00000000000E+00 -0.17058547284E+04  0.17058547284E+04  0.00000000000E+00 0. -1.
         23    2    1    2    0    0  0.15017583300E+03 -0.46057313881E+03 -0.14499456078E+04  0.15313026697E+04  0.88685982506E+02 0.  0.
         11    1    3    3    0    0  0.12809694347E+03 -0.32314923754E+03 -0.92309080739E+03  0.98637259458E+03  0.00000000000E+00 0.  1.
        -11    1    3    3    0    0  0.22078889531E+02 -0.13742390127E+03 -0.52685480042E+03  0.54493007508E+03  0.00000000000E+00 0. -1.
         22    1    1    2    0    0 -0.15017583300E+03  0.46057313881E+03  0.57361235340E+02  0.48782241475E+03  0.00000000000E+00 0.  1.
<mgrwt>
<rscale>  0 0.14620448E+04</rscale>
<asrwt>0</asrwt>
<pdfrwt beam="1">  1        2 0.26243919E+00 0.14620448E+04</pdfrwt>
<pdfrwt beam="2">  1       -2 0.48195439E-01 0.14620448E+04</pdfrwt>
<totfact> 0.38458515E+01</totfact>
</mgrwt>
</event>
<event>
 6    1  0.1603085E-006  0.2923210E+03  0.7818608E-02  0.1089143E+00
          2   -1    0    0  501    0  0.00000000000E+00  0.00000000000E+00  0.12751835384E+03  0.12751835384E+03  0.00000000000E+00 0. -1.
         -2   -1    0    0    0  501 -0.00000000000E+00 -0.00000000000E+00 -0.16752801448E+03  0.16752801448E+03  0.00000000000E+00 0.  1.
         23    2    1    2    0    0  0.89291866667E+00  0.66802838797E+02 -0.13743584108E+03  0.17691391211E+03  0.89143173095E+02 0.  0.
         13    1    3    3    0    0  0.12663009424E+02 -0.12278171382E+02 -0.70403946940E+02  0.72579756440E+02  0.00000000000E+00 0.  1.
        -13    1    3    3    0    0 -0.11770090758E+02  0.79081010179E+02 -0.67031894144E+02  0.10433415567E+03  0.00000000000E+00 0. -1.
         22    1    1    2    0    0 -0.89291866667E+00 -0.66802838797E+02  0.97426180437E+02  0.11813245621E+03  0.00000000000E+00 0. -1.
<mgrwt>
<rscale>  0 0.29232103E+03</rscale>
<asrwt>0</asrwt>
<pdfrwt beam="1">  1        2 0.19618208E-01 0.29232103E+03</pdfrwt>
<pdfrwt beam="2">  1       -2 0.25773541E-01 0.29232103E+03</pdfrwt>
<totfact> 0.38118828E+03</totfact>
</mgrwt>
</event>
<event>
 6    1  0.1603085E-006  0.3815742E+04  0.7818608E-02  0.8042785E-01
          2   -1    0    0  501    0  0.00000000000E+00  0.00000000000E+00  0.43131587972E+04  0.43131587972E+04  0.00000000000E+00 0. -1.
         -2   -1    0    0    0  501 -0.00000000000E+00 -0.00000000000E+00 -0.84392265833E+03  0.84392265833E+03  0.00000000000E+00 0.  1.
         23    2    1    2    0    0 -0.64785947313E+03 -0.10514393908E+04 -0.22814892298E+03  0.12588891841E+04  0.86621921621E+02 0.  0.
         13    1    3    3    0    0 -0.37058038844E+02 -0.92006527626E+02 -0.35366500980E+02  0.10530569197E+03  0.00000000000E+00 0. -1.
        -13    1    3    3    0    0 -0.61080143428E+03 -0.95943286318E+03 -0.19278242200E+03  0.11535834921E+04  0.00000000000E+00 0.  1.
         22    1    1    2    0    0  0.64785947313E+03  0.10514393908E+04  0.36973850618E+04  0.38981922714E+04  0.00000000000E+00 0. -1.
<mgrwt>
<rscale>  0 0.38157424E+04</rscale>
<asrwt>0</asrwt>
<pdfrwt beam="1">  1        2 0.66356288E+00 0.38157424E+04</pdfrwt>
<pdfrwt beam="2">  1       -2 0.12983426E+00 0.38157424E+04</pdfrwt>
<totfact> 0.64064234E-02</totfact>
</mgrwt>
</event>
<event>
 6    1  0.1603085E-006  0.3781457E+04  0.7818608E-02  0.8050146E-01
          2   -1    0    0  501    0  0.00000000000E+00  0.00000000000E+00  0.27806056178E+04  0.27806056178E+04  0.00000000000E+00 0. -1.
         -2   -1    0    0    0  501 -0.00000000000E+00 -0.00000000000E+00 -0.12856385326E+04  0.12856385326E+04  0.00000000000E+00 0.  1.
         23    2    1    2    0    0  0.73984367919E+02  0.55651055597E+03  0.26881083207E+04  0.27476222587E+04  0.91236216329E+02 0.  0.
         11    1    3    3    0    0  0.75517117813E+02  0.32331838039E+03  0.17271375166E+04  0.17587613856E+04  0.00000000000E+00 0. -1.
        -11    1    3    3    0    0 -0.15327498946E+01  0.23319217558E+03  0.96097080407E+03  0.98886087310E+03  0.00000000000E+00 0.  1.
         22    1    1    2    0    0 -0.73984367919E+02 -0.55651055597E+03 -0.11931412355E+04  0.13186218917E+04  0.00000000000E+00 0.  1.
<mgrwt>
<rscale>  0 0.37814567E+04</rscale>
<asrwt>0</asrwt>
<pdfrwt beam="1">  1        2 0.42778548E+00 0.37814567E+04</pdfrwt>
<pdfrwt beam="2">  1       -2 0.19779054E+00 0.37814567E+04</pdfrwt>
<totfact> 0.26229989E-01</totfact>
</mgrwt>
</event>
<event>
 6    1  0.1603085E-006  0.5618377E+03  0.7818608E-02  0.9987905E-01
         -1   -1    0    0    0  501 -0.00000000000E+00  0.00000000000E+00  0.11840115957E+03  0.11840115957E+03  0.00000000000E+00 0.  1.
          1   -1    0    0  501    0  0.00000000000E+00 -0.00000000000E+00 -0.66650865420E+03  0.66650865420E+03  0.00000000000E+00 0. -1.
         23    2    1    2    0    0 -0.22231859226E+03 -0.14480907418E+02 -0.50266592244E+03  0.55753305676E+03  0.92384125557E+02 0.  0.
         11    1    3    3    0    0 -0.70240337329E+02  0.36368306426E+02 -0.19867774354E+03  0.21384387875E+03  0.00000000000E+00 0.  1.
        -11    1    3    3    0    0 -0.15207825494E+03 -0.50849213844E+02 -0.30398817890E+03  0.34368917801E+03  0.00000000000E+00 0. -1.
         22    1    1    2    0    0  0.22231859226E+03  0.14480907418E+02 -0.45441572184E+02  0.22737675701E+03  0.00000000000E+00 0.  1.
<mgrwt>
<rscale>  0 0.56183769E+03</rscale>
<asrwt>0</asrwt>
<pdfrwt beam="1">  1        1 0.10253979E+00 0.56183769E+03</pdfrwt>
<pdfrwt beam="2">  1       -1 0.18215563E-01 0.56183769E+03</pdfrwt>
<totfact> 0.70743573E+02</totfact>
</mgrwt>
</event>
<event>
 6    1  0.1603085E-006  0.4326971E+04  0.7818608E-02  0.7941650E-01
          2   -1    0    0  501    0  0.00000000000E+00  0.00000000000E+00  0.16126301283E+04  0.16126301283E+04  0.00000000000E+00 0. -1.
         -2   -1    0    0    0  501 -0.00000000000E+00 -0.00000000000E+00 -0.29025068070E+04  0.29025068070E+04  0.00000000000E+00 0.  1.
         23    2    1    2    0    0  0.67154404307E+03  0.19736127477E+04 -0.45372994466E+02  0.20871937523E+04  0.90555903246E+02 0.  0.
         11    1    3    3    0    0  0.22901930786E+03  0.69199258824E+03  0.26887065202E+02  0.72940146684E+03  0.00000000000E+00 0. -1.
        -11    1    3    3    0    0  0.44252473521E+03  0.12816201594E+04 -0.72260059668E+02  0.13577922855E+04  0.00000000000E+00 0.  1.
         22    1    1    2    0    0 -0.67154404307E+03 -0.19736127477E+04 -0.12445036842E+04  0.24279431829E+04  0.00000000000E+00 0.  1.
<mgrwt>
<rscale>  0 0.43269712E+04</rscale>
<asrwt>0</asrwt>
<pdfrwt beam="1">  1        2 0.24809694E+00 0.43269712E+04</pdfrwt>
<pdfrwt beam="2">  1       -2 0.44653951E+00 0.43269712E+04</pdfrwt>
<totfact> 0.30866679E-02</totfact>
</mgrwt>
</event>
<event>
 6    1  0.1603085E-006  0.1600375E+04  0.7818608E-02  0.8820318E-01
          2   -1    0    0  501    0  0.00000000000E+00  0.00000000000E+00  0.17762881347E+04  0.17762881347E+04  0.00000000000E+00 0. -1.
         -2   -1    0    0    0  501 -0.00000000000E+00 -0.00000000000E+00 -0.36047085781E+03  0.36047085781E+03  0.00000000000E+00 0.  1.
         23    2    1    2    0    0 -0.11970555421E+03 -0.40812401163E+03 -0.18902899124E+03  0.47651016389E+03  0.10215355196E+03 0.  0.
         11    1    3    3    0    0 -0.10118373499E+03 -0.22617404202E+03 -0.14954209820E+03  0.28940574397E+03  0.00000000000E+00 0.  1.
        -11    1    3    3    0    0 -0.18521819221E+02 -0.18194996961E+03 -0.39486893039E+02  0.18710441991E+03  0.00000000000E+00 0. -1.
         22    1    1    2    0    0  0.11970555421E+03  0.40812401163E+03  0.16048462681E+04  0.16602488286E+04  0.00000000000E+00 0. -1.
<mgrwt>
<rscale>  0 0.16003751E+04</rscale>
<asrwt>0</asrwt>
<pdfrwt beam="1">  1        2 0.27327509E+00 0.16003751E+04</pdfrwt>
<pdfrwt beam="2">  1       -2 0.55457056E-01 0.16003751E+04</pdfrwt>
<totfact> 0.26060854E+01</totfact>
</mgrwt>
</event>
<event>
 6    1  0.1603085E-006  0.1402932E+04  0.7818608E-02  0.8951699E-01
          2   -1    0    0  501    0  0.00000000000E+00  0.00000000000E+00  0.75086777672E+03  0.75086777672E+03  0.00000000000E+00 0. -1.
         -2   -1    0    0    0  501 -0.00000000000E+00 -0.00000000000E+00 -0.65531428486E+03  0.65531428486E+03  0.00000000000E+00 0.  1.
         23    2    1    2    0    0 -0.27951288062E+03 -0.26207702435E+03 -0.53744610671E+03  0.66624942349E+03  0.90709203284E+02 0.  0.
         13    1    3    3    0    0 -0.60918064002E+02 -0.11226007464E+03 -0.15281198483E+03  0.19916033136E+03  0.00000000000E+00 0.  1.
        -13    1    3    3    0    0 -0.21859481662E+03 -0.14981694971E+03 -0.38463412188E+03  0.46708909213E+03  0.00000000000E+00 0. -1.
         22    1    1    2    0    0  0.27951288062E+03  0.26207702435E+03  0.63299959857E+03  0.73993263809E+03  0.00000000000E+00 0. -1.
<mgrwt>
<rscale>  0 0.14029318E+04</rscale>
<asrwt>0</asrwt>
<pdfrwt beam="1">  1        2 0.11551812E+00 0.14029318E+04</pdfrwt>
<pdfrwt beam="2">  1       -2 0.10081758E+00 0.14029318E+04</pdfrwt>
<totfact> 0.29525952E+01</totfact>
</mgrwt>
</event>
<event>
 6    1  0.1603085E-006  0.1144748E+04  0.7818608E-02  0.9162643E-01
          2   -1    0    0  501    0  0.00000000000E+00  0.00000000000E+00  0.59733142467E+03  0.59733142467E+03  0.00000000000E+00 0. -1.
         -2   -1    0    0    0  501 -0.00000000000E+00 -0.00000000000E+00 -0.54845901007E+03  0.54845901007E+03  0.00000000000E+00 0.  1.
         23    2    1    2    0    0 -0.95189757030E+02  0.18028510833E+03  0.55588478119E+03  0.59932419607E+03  0.92832062949E+02 0.  0.
         13    1    3    3    0    0 -0.88617238453E+02  0.18426905936E+03  0.55514501648E+03  0.59160298386E+03  0.00000000000E+00 0.  1.
        -13    1    3    3    0    0 -0.65725185775E+01 -0.39839510213E+01  0.73976470365E+00  0.77212122111E+01  0.00000000000E+00 0. -1.
         22    1    1    2    0    0  0.95189757030E+02 -0.18028510833E+03 -0.50701236659E+03  0.54646623867E+03  0.00000000000E+00 0.  1.
<mgrwt>
<rscale>  0 0.11447477E+04</rscale>
<asrwt>0</asrwt>
<pdfrwt beam="1">  1        2 0.91897143E-01 0.11447477E+04</pdfrwt>
<pdfrwt beam="2">  1       -2 0.84378309E-01 0.11447477E+04</pdfrwt>
<totfact> 0.60529025E+01</totfact>
</mgrwt>
</event>
<event>
 6    1  0.1603085E-006  0.1995497E+04  0.7818608E-02  0.8608729E-01
          1   -1    0    0  501    0  0.00000000000E+00  0.00000000000E+00  0.14870317725E+04  0.14870317725E+04  0.00000000000E+00 0. -1.
         -1   -1    0    0    0  501 -0.00000000000E+00 -0.00000000000E+00 -0.66945575911E+03  0.66945575911E+03  0.00000000000E+00 0.  1.
         23    2    1    2    0    0 -0.64978971029E+03 -0.33781487626E+03 -0.31917887499E+03  0.80424597238E+03  0.92686955008E+02 0.  0.
         11    1    3    3    0    0 -0.52552814642E+03 -0.23168791723E+03 -0.23669194619E+03  0.62119417339E+03  0.00000000000E+00 0.  1.
        -11    1    3    3    0    0 -0.12426156387E+03 -0.10612695903E+03 -0.82486928807E+02  0.18305179899E+03  0.00000000000E+00 0. -1.
         22    1    1    2    0    0  0.64978971029E+03  0.33781487626E+03  0.11367548884E+04  0.13522415592E+04  0.00000000000E+00 0. -1.
<mgrwt>
<rscale>  0 0.19954969E+04</rscale>
<asrwt>0</asrwt>
<pdfrwt beam="1">  1        1 0.22877412E+00 0.19954969E+04</pdfrwt>
<pdfrwt beam="2">  1       -1 0.10299319E+00 0.19954969E+04</pdfrwt>
<totfact> 0.55187078E+00</totfact>
</mgrwt>
</event>
<event>
 6    1  0.1603085E-006  0.2059024E+04  0.7818608E-02  0.8579512E-01
          1   -1    0    0  501    0  0.00000000000E+00  0.00000000000E+00  0.13112344529E+04  0.13112344529E+04  0.00000000000E+00 0. -1.
         -1   -1    0    0    0  501 -0.00000000000E+00 -0.00000000000E+00 -0.80831814914E+03  0.80831814914E+03  0.00000000000E+00 0.  1.
         23    2    1    2    0    0  0.62943106790E+02 -0.61674545454E+03 -0.59129968402E+03  0.86191775111E+03  0.94499221998E+02 0.  0.
         13    1    3    3    0    0 -0.38909166425E+01 -0.22444121255E+03 -0.16397935686E+03  0.27798961599E+03  0.00000000000E+00 0. -1.
        -13    1    3    3    0    0  0.66834023433E+02 -0.39230424200E+03 -0.42732032716E+03  0.58392813512E+03  0.00000000000E+00 0.  1.
         22    1    1    2    0    0 -0.62943106790E+02  0.61674545454E+03  0.10942159878E+04  0.12576348510E+04  0.00000000000E+00 0. -1.
<mgrwt>
<rscale>  0 0.20590237E+04</rscale>
<asrwt>0</asrwt>
<pdfrwt beam="1">  1        1 0.20172838E+00 0.20590237E+04</pdfrwt>
<pdfrwt beam="2">  1       -1 0.12435664E+00 0.20590237E+04</pdfrwt>
<totfact> 0.46461049E+00</totfact>
</mgrwt>
</event>
<event>
 6    1  0.1603085E-006  0.4703459E+04  0.7818608E-02  0.7875954E-01
         -2   -1    0    0    0  501 -0.00000000000E+00  0.00000000000E+00  0.20695858073E+04  0.20695858073E+04  0.00000000000E+00 0.  1.
          2   -1    0    0  501    0  0.00000000000E+00 -0.00000000000E+00 -0.26723379384E+04  0.26723379384E+04  0.00000000000E+00 0. -1.
         23    2    1    2    0    0 -0.16284758714E+04  0.76262795361E+03  0.12251849415E+04  0.21777691091E+04  0.89805857776E+02 0.  0.
         11    1    3    3    0    0 -0.40322236171E+03  0.21539308436E+03  0.34907776777E+03  0.57518496306E+03  0.00000000000E+00 0.  1.
        -11    1    3    3    0    0 -0.12252535097E+04  0.54723486925E+03  0.87610717373E+03  0.16025841460E+04  0.00000000000E+00 0. -1.
         22    1    1    2    0    0  0.16284758714E+04 -0.76262795361E+03 -0.18279370726E+04  0.25641546366E+04  0.00000000000E+00 0. -1.
<mgrwt>
<rscale>  0 0.47034594E+04</rscale>
<asrwt>0</asrwt>
<pdfrwt beam="1">  1        2 0.41112891E+00 0.47034594E+04</pdfrwt>
<pdfrwt beam="2">  1       -2 0.31839782E+00 0.47034594E+04</pdfrwt>
<totfact> 0.50354417E-02</totfact>
</mgrwt>
</event>
<event>
 6    1  0.1603085E-006  0.2256969E+04  0.7818608E-02  0.8495083E-01
          2   -1    0    0  501    0  0.00000000000E+00  0.00000000000E+00  0.19337288079E+04  0.19337288079E+04  0.00000000000E+00 0. -1.
         -2   -1    0    0    0  501 -0.00000000000E+00 -0.00000000000E+00 -0.65856061859E+03  0.65856061859E+03  0.00000000000E+00 0.  1.
         23    2    1    2    0    0 -0.41751441311E+03 -0.70262826949E+03 -0.25193167087E+03  0.86022743186E+03  0.92287038588E+02 0.  0.
         11    1    3    3    0    0 -0.22311647608E+03 -0.36666714612E+03 -0.18018444393E+03  0.46550208568E+03  0.00000000000E+00 0. -1.
        -11    1    3    3    0    0 -0.19439793703E+03 -0.33596112337E+03 -0.71747226942E+02  0.39472534618E+03  0.00000000000E+00 0.  1.
         22    1    1    2    0    0  0.41751441311E+03  0.70262826949E+03  0.15270998602E+04  0.17320619946E+04  0.00000000000E+00 0. -1.
<mgrwt>
<rscale>  0 0.22569693E+04</rscale>
<asrwt>0</asrwt>
<pdfrwt beam="1">  1        2 0.29749674E+00 0.22569693E+04</pdfrwt>
<pdfrwt beam="2">  1       -2 0.10131702E+00 0.22569693E+04</pdfrwt>
<totfact> 0.52977647E+00</totfact>
</mgrwt>
</event>
<event>
 6    1  0.1603085E-006  0.3732122E+04  0.7818608E-02  0.8060880E-01
          2   -1    0    0  501    0  0.00000000000E+00  0.00000000000E+00  0.25936677576E+04  0.25936677576E+04  0.00000000000E+00 0. -1.
         -2   -1    0    0    0  501 -0.00000000000E+00 -0.00000000000E+00 -0.13425715188E+04  0.13425715188E+04  0.00000000000E+00 0.  1.
         23    2    1    2    0    0 -0.13680507809E+04  0.80392089442E+03 -0.40753330790E+03  0.16408300064E+04  0.91585858512E+02 0.  0.
         11    1    3    3    0    0 -0.57395268969E+03  0.33190539143E+03 -0.12400109056E+03  0.67450659695E+03  0.00000000000E+00 0. -1.
        -11    1    3    3    0    0 -0.79409809116E+03  0.47201550299E+03 -0.28353221733E+03  0.96632340948E+03  0.00000000000E+00 0.  1.
         22    1    1    2    0    0  0.13680507809E+04 -0.80392089442E+03  0.16586295467E+04  0.22954092700E+04  0.00000000000E+00 0. -1.
<mgrwt>
<rscale>  0 0.37321224E+04</rscale>
<asrwt>0</asrwt>
<pdfrwt beam="1">  1        2 0.39902581E+00 0.37321224E+04</pdfrwt>
<pdfrwt beam="2">  1       -2 0.20654947E+00 0.37321224E+04</pdfrwt>
<totfact> 0.29826676E-01</totfact>
</mgrwt>
</event>
<event>
 6    1  0.1603085E-006  0.1434049E+04  0.7818608E-02  0.8929534E-01
          2   -1    0    0  501    0  0.00000000000E+00  0.00000000000E+00  0.17133170854E+04  0.17133170854E+04  0.00000000000E+00 0. -1.
         -2   -1    0    0    0  501 -0.00000000000E+00 -0.00000000000E+00 -0.30007537077E+03  0.30007537077E+03  0.00000000000E+00 0.  1.
         23    2    1    2    0    0 -0.34048508956E+03 -0.23726787270E+03  0.15254370405E+04  0.15834925483E+04  0.90908450449E+02 0.  0.
         13    1    3    3    0    0 -0.50039985685E+02 -0.73788501589E+02  0.39557360066E+03  0.40549625976E+03  0.00000000000E+00 0. -1.
        -13    1    3    3    0    0 -0.29044510388E+03 -0.16347937111E+03  0.11298634398E+04  0.11779962886E+04  0.00000000000E+00 0.  1.
         22    1    1    2    0    0  0.34048508956E+03  0.23726787270E+03 -0.11219532589E+03  0.42989990786E+03  0.00000000000E+00 0.  1.
<mgrwt>
<rscale>  0 0.14340492E+04</rscale>
<asrwt>0</asrwt>
<pdfrwt beam="1">  1        2 0.26358724E+00 0.14340492E+04</pdfrwt>
<pdfrwt beam="2">  1       -2 0.46165443E-01 0.14340492E+04</pdfrwt>
<totfact> 0.41638835E+01</totfact>
</mgrwt>
</event>
<event>
 6    1  0.1603085E-006  0.2682174E+04  0.7818608E-02  0.8340812E-01
          2   -1    0    0  501    0  0.00000000000E+00  0.00000000000E+00  0.10436248028E+04  0.10436248028E+04  0.00000000000E+00 0.  1.
         -2   -1    0    0    0  501 -0.00000000000E+00 -0.00000000000E+00 -0.17233348326E+04  0.17233348326E+04  0.00000000000E+00 0. -1.
         23    2    1    2    0    0 -0.72359925874E+03 -0.11337512092E+03 -0.14972682351E+04  0.16693024830E+04  0.91152656615E+02 0.  0.
         13    1    3    3    0    0 -0.56643891082E+03 -0.12414234062E+03 -0.11475747021E+04  0.12857651642E+04  0.00000000000E+00 0.  1.
        -13    1    3    3    0    0 -0.15716034792E+03  0.10767219696E+02 -0.34969353293E+03  0.38353731885E+03  0.00000000000E+00 0. -1.
         22    1    1    2    0    0  0.72359925874E+03  0.11337512092E+03  0.81755820528E+03  0.10976571524E+04  0.00000000000E+00 0.  1.
<mgrwt>
<rscale>  0 0.26821745E+04</rscale>
<asrwt>0</asrwt>
<pdfrwt beam="1">  1        2 0.16055766E+00 0.26821745E+04</pdfrwt>
<pdfrwt beam="2">  1       -2 0.26512843E+00 0.26821745E+04</pdfrwt>
<totfact> 0.10773843E+00</totfact>
</mgrwt>
</event>
<event>
 6    1  0.1603085E-006  0.3860422E+04  0.7818608E-02  0.8033311E-01
          1   -1    0    0  501    0  0.00000000000E+00  0.00000000000E+00  0.19295496604E+04  0.19295496604E+04  0.00000000000E+00 0. -1.
         -1   -1    0    0    0  501 -0.00000000000E+00 -0.00000000000E+00 -0.19308721473E+04  0.19308721473E+04  0.00000000000E+00 0.  1.
         23    2    1    2    0    0  0.45323568438E+03 -0.15126925871E+04 -0.11088673743E+04  0.19316094462E+04  0.88694701704E+02 0.  0.
         13    1    3    3    0    0  0.29261980815E+03 -0.88951956331E+03 -0.61339942429E+03  0.11194330080E+04  0.00000000000E+00 0. -1.
        -13    1    3    3    0    0  0.16061587623E+03 -0.62317302376E+03 -0.49546795001E+03  0.81217643817E+03  0.00000000000E+00 0.  1.
         22    1    1    2    0    0 -0.45323568438E+03  0.15126925871E+04  0.11075448874E+04  0.19288123616E+04  0.00000000000E+00 0. -1.
<mgrwt>
<rscale>  0 0.38604216E+04</rscale>
<asrwt>0</asrwt>
<pdfrwt beam="1">  1        1 0.29685380E+00 0.38604216E+04</pdfrwt>
<pdfrwt beam="2">  1       -1 0.29705725E+00 0.38604216E+04</pdfrwt>
<totfact> 0.90884596E-02</totfact>
</mgrwt>
</event>
<event>
 6    1  0.1603085E-006  0.2406398E+04  0.7818608E-02  0.8437112E-01
          1   -1    0    0  501    0  0.00000000000E+00  0.00000000000E+00  0.20240173496E+04  0.20240173496E+04  0.00000000000E+00 0. -1.
         -1   -1    0    0    0  501 -0.00000000000E+00 -0.00000000000E+00 -0.71525453452E+03  0.71525453452E+03  0.00000000000E+00 0.  1.
         23    2    1    2    0    0 -0.68441874072E+03 -0.14744286589E+03 -0.45615381192E+03  0.84056202961E+03  0.91103315763E+02 0.  0.
         11    1    3    3    0    0 -0.28054684398E+03 -0.39555875446E+02 -0.23220693405E+03  0.36632125132E+03  0.00000000000E+00 0. -1.
        -11    1    3    3    0    0 -0.40387189674E+03 -0.10788699045E+03 -0.22394687787E+03  0.47424077829E+03  0.00000000000E+00 0.  1.
         22    1    1    2    0    0  0.68441874072E+03  0.14744286589E+03  0.17649166270E+04  0.18987098546E+04  0.00000000000E+00 0. -1.
<mgrwt>
<rscale>  0 0.24063978E+04</rscale>
<asrwt>0</asrwt>
<pdfrwt beam="1">  1        1 0.31138728E+00 0.24063978E+04</pdfrwt>
<pdfrwt beam="2">  1       -1 0.11003916E+00 0.24063978E+04</pdfrwt>
<totfact> 0.19597897E+00</totfact>
</mgrwt>
</event>
<event>
 6    1  0.1603085E-006  0.6337909E+04  0.7818608E-02  0.7649861E-01
          2   -1    0    0  501    0  0.00000000000E+00  0.00000000000E+00  0.25746221969E+04  0.25746221969E+04  0.00000000000E+00 0. -1.
         -2   -1    0    0    0  501 -0.00000000000E+00 -0.00000000000E+00 -0.39004838299E+04  0.39004838299E+04  0.00000000000E+00 0.  1.
         23    2    1    2    0    0  0.28114439604E+04  0.14303205114E+04 -0.96618886067E+03  0.33002991964E+04  0.91760357204E+02 0.  0.
         11    1    3    3    0    0  0.22933429901E+04  0.11408768147E+04 -0.75555759362E+03  0.26705597267E+04  0.00000000000E+00 0. -1.
        -11    1    3    3    0    0  0.51810097031E+03  0.28944369674E+03 -0.21063126705E+03  0.62973946968E+03  0.00000000000E+00 0.  1.
         22    1    1    2    0    0 -0.28114439604E+04 -0.14303205114E+04 -0.35967277231E+03  0.31748068305E+04  0.00000000000E+00 0.  1.
<mgrwt>
<rscale>  0 0.63379089E+04</rscale>
<asrwt>0</asrwt>
<pdfrwt beam="1">  1        2 0.39609572E+00 0.63379089E+04</pdfrwt>
<pdfrwt beam="2">  1       -2 0.60007443E+00 0.63379089E+04</pdfrwt>
<totfact> 0.10732970E-03</totfact>
</mgrwt>
</event>
<event>
 6    1  0.1603085E-006  0.1204350E+04  0.7818608E-02  0.9109057E-01
         -1   -1    0    0    0  501 -0.00000000000E+00  0.00000000000E+00  0.77010102789E+03  0.77010102789E+03  0.00000000000E+00 0.  1.
          1   -1    0    0  501    0  0.00000000000E+00 -0.00000000000E+00 -0.47086662857E+03  0.47086662857E+03  0.00000000000E+00 0. -1.
         23    2    1    2    0    0 -0.39221076030E+03  0.55092776949E+02 -0.31226430514E+03  0.51241075401E+03  0.90505745610E+02 0.  0.
         11    1    3    3    0    0 -0.21347242737E+03 -0.13431414792E+02 -0.18225475337E+03  0.28101187747E+03  0.00000000000E+00 0. -1.
        -11    1    3    3    0    0 -0.17873833293E+03  0.68524191740E+02 -0.13000955176E+03  0.23139887654E+03  0.00000000000E+00 0.  1.
         22    1    1    2    0    0  0.39221076030E+03 -0.55092776949E+02  0.61149870445E+03  0.72855690246E+03  0.00000000000E+00 0.  1.
<mgrwt>
<rscale>  0 0.12043502E+04</rscale>
<asrwt>0</asrwt>
<pdfrwt beam="1">  1        1 0.72441020E-01 0.12043502E+04</pdfrwt>
<pdfrwt beam="2">  1       -1 0.11847708E+00 0.12043502E+04</pdfrwt>
<totfact> 0.30434584E+01</totfact>
</mgrwt>
</event>
<event>
 6    1  0.1603085E-006  0.2415372E+04  0.7818608E-02  0.8433771E-01
         -1   -1    0    0    0  501 -0.00000000000E+00  0.00000000000E+00  0.59938700017E+03  0.59938700017E+03  0.00000000000E+00 0. -1.
          1   -1    0    0  501    0  0.00000000000E+00 -0.00000000000E+00 -0.24333279447E+04  0.24333279447E+04  0.00000000000E+00 0.  1.
         23    2    1    2    0    0  0.13095240964E+03  0.21648521201E+03 -0.23987832893E+04  0.24137955196E+04  0.90736764816E+02 0.  0.
         11    1    3    3    0    0  0.51712736193E+01  0.82108281694E+02 -0.59862103383E+03  0.60424800714E+03  0.00000000000E+00 0. -1.
        -11    1    3    3    0    0  0.12578113602E+03  0.13437693032E+03 -0.18001622555E+04  0.18095475124E+04  0.00000000000E+00 0.  1.
         22    1    1    2    0    0 -0.13095240964E+03 -0.21648521201E+03  0.56484234477E+03  0.61891942534E+03  0.00000000000E+00 0. -1.
<mgrwt>
<rscale>  0 0.24153717E+04</rscale>
<asrwt>0</asrwt>
<pdfrwt beam="1">  1        1 0.37435815E+00 0.24153717E+04</pdfrwt>
<pdfrwt beam="2">  1       -1 0.92213384E-01 0.24153717E+04</pdfrwt>
<totfact> 0.15429377E+00</totfact>
</mgrwt>
</event>
<event>
 6    1  0.1603085E-006  0.1744829E+04  0.7818608E-02  0.8736202E-01
          1   -1    0    0  501    0  0.00000000000E+00  0.00000000000E+00  0.47126365859E+03  0.47126365859E+03  0.00000000000E+00 0. -1.
         -1   -1    0    0    0  501 -0.00000000000E+00 -0.00000000000E+00 -0.16150341055E+04  0.16150341055E+04  0.00000000000E+00 0.  1.
         23    2    1    2    0    0  0.19193195271E+03 -0.83238069431E+03 -0.77116545156E+03  0.11543482068E+04  0.90156165490E+02 0.  0.
         11    1    3    3    0    0  0.80734542124E+02 -0.50147911373E+03 -0.49487457828E+03  0.70915457837E+03  0.00000000000E+00 0. -1.
        -11    1    3    3    0    0  0.11119741059E+03 -0.33090158058E+03 -0.27629087328E+03  0.44519362845E+03  0.00000000000E+00 0.  1.
         22    1    1    2    0    0 -0.19193195271E+03  0.83238069431E+03 -0.37260499534E+03  0.93194955726E+03  0.00000000000E+00 0.  1.
<mgrwt>
<rscale>  0 0.17448288E+04</rscale>
<asrwt>0</asrwt>
<pdfrwt beam="1">  1        1 0.72502101E-01 0.17448288E+04</pdfrwt>
<pdfrwt beam="2">  1       -1 0.24846679E+00 0.17448288E+04</pdfrwt>
<totfact> 0.32527626E+00</totfact>
</mgrwt>
</event>
<event>
 6    1  0.1603085E-006  0.1059631E+04  0.7818608E-02  0.9245457E-01
         -1   -1    0    0    0  501 -0.00000000000E+00  0.00000000000E+00  0.25285127901E+03  0.25285127901E+03  0.00000000000E+00 0. -1.
          1   -1    0    0  501    0  0.00000000000E+00 -0.00000000000E+00 -0.11101560349E+04  0.11101560349E+04  0.00000000000E+00 0.  1.
         23    2    1    2    0    0  0.35799668928E+03  0.19420259040E+03 -0.44359277182E+01  0.41788218265E+03  0.93432143656E+02 0.  0.
         11    1    3    3    0    0  0.71451954361E+02  0.17208018093E+02 -0.31572831351E+02  0.79989632754E+02  0.00000000000E+00 0.  1.
        -11    1    3    3    0    0  0.28654473492E+03  0.17699457231E+03  0.27136903633E+02  0.33789254990E+03  0.00000000000E+00 0. -1.
         22    1    1    2    0    0 -0.35799668928E+03 -0.19420259040E+03 -0.85286882818E+03  0.94512513126E+03  0.00000000000E+00 0.  1.
<mgrwt>
<rscale>  0 0.10596308E+04</rscale>
<asrwt>0</asrwt>
<pdfrwt beam="1">  1        1 0.17079323E+00 0.10596308E+04</pdfrwt>
<pdfrwt beam="2">  1       -1 0.38900197E-01 0.10596308E+04</pdfrwt>
<totfact> 0.79701912E+01</totfact>
</mgrwt>
</event>
<event>
 6    1  0.1810739E-006  0.3671918E+04  0.7818608E-02  0.8074214E-01
          2   -1    0    0  501    0  0.00000000000E+00  0.00000000000E+00  0.22630195152E+04  0.22630195152E+04  0.00000000000E+00 0. -1.
         -2   -1    0    0    0  501 -0.00000000000E+00 -0.00000000000E+00 -0.14894902478E+04  0.14894902478E+04  0.00000000000E+00 0.  1.
         23    2    1    2    0    0 -0.49649153106E+03  0.49635753416E+03 -0.13454887913E+04  0.15202212119E+04  0.88644252779E+02 0.  0.
         13    1    3    3    0    0 -0.37182288369E+03  0.36669670194E+03 -0.10786603703E+04  0.11984268532E+04  0.00000000000E+00 0. -1.
        -13    1    3    3    0    0 -0.12466864737E+03  0.12966083222E+03 -0.26682842105E+03  0.32179435876E+03  0.00000000000E+00 0.  1.
         22    1    1    2    0    0  0.49649153106E+03 -0.49635753416E+03  0.21190180587E+04  0.22322885511E+04  0.00000000000E+00 0. -1.
<mgrwt>
<rscale>  0 0.36719180E+04</rscale>
<asrwt>0</asrwt>
<pdfrwt beam="1">  1        2 0.34815685E+00 0.36719180E+04</pdfrwt>
<pdfrwt beam="2">  1       -2 0.22915235E+00 0.36719180E+04</pdfrwt>
<totfact> 0.33366978E-01</totfact>
</mgrwt>
</event>
<event>
 6    1  0.1603085E-006  0.1883638E+04  0.7818608E-02  0.8663044E-01
         -1   -1    0    0    0  501 -0.00000000000E+00  0.00000000000E+00  0.26898973480E+03  0.26898973480E+03  0.00000000000E+00 0.  1.
          1   -1    0    0  501    0  0.00000000000E+00 -0.00000000000E+00 -0.32976099888E+04  0.32976099888E+04  0.00000000000E+00 0. -1.
         23    2    1    2    0    0 -0.12679150969E+02  0.50918447322E+03 -0.23041778204E+02  0.51816872342E+03  0.92402996461E+02 0.  0.
         13    1    3    3    0    0 -0.42726868109E+02  0.43932967844E+03 -0.14414696489E+02  0.44163778721E+03  0.00000000000E+00 0. -1.
        -13    1    3    3    0    0  0.30047717139E+02  0.69854794784E+02 -0.86270817154E+01  0.76530936218E+02  0.00000000000E+00 0.  1.
         22    1    1    2    0    0  0.12679150969E+02 -0.50918447322E+03 -0.30055784758E+04  0.30484310002E+04  0.00000000000E+00 0. -1.
<mgrwt>
<rscale>  0 0.18836382E+04</rscale>
<asrwt>0</asrwt>
<pdfrwt beam="1">  1        1 0.50732463E+00 0.18836382E+04</pdfrwt>
<pdfrwt beam="2">  1       -1 0.41383034E-01 0.18836382E+04</pdfrwt>
<totfact> 0.19306549E+00</totfact>
</mgrwt>
</event>
<event>
 6    1  0.1603085E-006  0.1162135E+04  0.7818608E-02  0.9146661E-01
         -2   -1    0    0    0  501 -0.00000000000E+00  0.00000000000E+00  0.31765607569E+03  0.31765607569E+03  0.00000000000E+00 0.  1.
          2   -1    0    0  501    0  0.00000000000E+00 -0.00000000000E+00 -0.10629078924E+04  0.10629078924E+04  0.00000000000E+00 0. -1.
         23    2    1    2    0    0 -0.18164960570E+03  0.15764988555E+03  0.24855670301E+03  0.35806436441E+03  0.92626069700E+02 0.  0.
         11    1    3    3    0    0 -0.89249259207E+02  0.43209446331E+02  0.15414530143E+03  0.18328464331E+03  0.00000000000E+00 0.  1.
        -11    1    3    3    0    0 -0.92400346494E+02  0.11444043921E+03  0.94411401577E+02  0.17477972110E+03  0.00000000000E+00 0. -1.
         22    1    1    2    0    0  0.18164960570E+03 -0.15764988555E+03 -0.99380851969E+03  0.10224996037E+04  0.00000000000E+00 0. -1.
<mgrwt>
<rscale>  0 0.11621345E+04</rscale>
<asrwt>0</asrwt>
<pdfrwt beam="1">  1        2 0.16352429E+00 0.11621345E+04</pdfrwt>
<pdfrwt beam="2">  1       -2 0.48870165E-01 0.11621345E+04</pdfrwt>
<totfact> 0.90075923E+01</totfact>
</mgrwt>
</event>
<event>
 6    1  0.1603085E-006  0.1769281E+04  0.7818608E-02  0.8722808E-01
          2   -1    0    0  501    0  0.00000000000E+00  0.00000000000E+00  0.33771643832E+04  0.33771643832E+04  0.00000000000E+00 0. -1.
         -2   -1    0    0    0  501 -0.00000000000E+00 -0.00000000000E+00 -0.23172955585E+03  0.23172955585E+03  0.00000000000E+00 0.  1.
         23    2    1    2    0    0 -0.15562141847E+03  0.67478062923E+03  0.26912545250E+04  0.27807474118E+04  0.10078852480E+03 0.  0.
         11    1    3    3    0    0 -0.43239887815E+02  0.25800744108E+03  0.83793612461E+03  0.87782371606E+03  0.00000000000E+00 0.  1.
        -11    1    3    3    0    0 -0.11238153065E+03  0.41677318815E+03  0.18533184004E+04  0.19029236958E+04  0.00000000000E+00 0. -1.
         22    1    1    2    0    0  0.15562141847E+03 -0.67478062923E+03  0.45418030236E+03  0.82814652720E+03  0.00000000000E+00 0.  1.
<mgrwt>
<rscale>  0 0.17692810E+04</rscale>
<asrwt>0</asrwt>
<pdfrwt beam="1">  1        2 0.51956371E+00 0.17692810E+04</pdfrwt>
<pdfrwt beam="2">  1       -2 0.35650703E-01 0.17692810E+04</pdfrwt>
<totfact> 0.69673012E+00</totfact>
</mgrwt>
</event>
<event>
 6    1  0.1603085E-006  0.3545939E+04  0.7818608E-02  0.8102988E-01
         -2   -1    0    0    0  501 -0.00000000000E+00  0.00000000000E+00  0.96838688093E+03  0.96838688093E+03  0.00000000000E+00 0.  1.
          2   -1    0    0  501    0  0.00000000000E+00 -0.00000000000E+00 -0.32460387669E+04  0.32460387669E+04  0.00000000000E+00 0. -1.
         23    2    1    2    0    0 -0.14363334176E+04 -0.67556311553E+03 -0.20752384936E+04  0.26142974058E+04  0.92178690788E+02 0.  0.
         11    1    3    3    0    0 -0.61008802635E+03 -0.30125714837E+03 -0.96184971529E+03  0.11781842573E+04  0.00000000000E+00 0.  1.
        -11    1    3    3    0    0 -0.82624539126E+03 -0.37430596716E+03 -0.11133887783E+04  0.14361131485E+04  0.00000000000E+00 0. -1.
         22    1    1    2    0    0  0.14363334176E+04  0.67556311553E+03 -0.20241339239E+03  0.16001282421E+04  0.00000000000E+00 0.  1.
<mgrwt>
<rscale>  0 0.35459393E+04</rscale>
<asrwt>0</asrwt>
<pdfrwt beam="1">  1        2 0.49939057E+00 0.35459393E+04</pdfrwt>
<pdfrwt beam="2">  1       -2 0.14898260E+00 0.35459393E+04</pdfrwt>
<totfact> 0.30174820E-01</totfact>
</mgrwt>
</event>
<event>
 6    1  0.1603085E-006  0.3503516E+04  0.7818608E-02  0.8112957E-01
          1   -1    0    0  501    0  0.00000000000E+00  0.00000000000E+00  0.89508826907E+03  0.89508826907E+03  0.00000000000E+00 0. -1.
         -1   -1    0    0    0  501 -0.00000000000E+00 -0.00000000000E+00 -0.34283278603E+04  0.34283278603E+04  0.00000000000E+00 0.  1.
         23    2    1    2    0    0 -0.11551089404E+04 -0.11527176171E+04 -0.20495428511E+04  0.26213594014E+04  0.88682825609E+02 0.  0.
         13    1    3    3    0    0 -0.59300634586E+03 -0.60144955917E+03 -0.99043614883E+03  0.13016765587E+04  0.00000000000E+00 0. -1.
        -13    1    3    3    0    0 -0.56210259457E+03 -0.55126805792E+03 -0.10591067023E+04  0.13196828427E+04  0.00000000000E+00 0.  1.
         22    1    1    2    0    0  0.11551089404E+04  0.11527176171E+04 -0.48369674013E+03  0.17020567280E+04  0.00000000000E+00 0. -1.
<mgrwt>
<rscale>  0 0.35035160E+04</rscale>
<asrwt>0</asrwt>
<pdfrwt beam="1">  1        1 0.13770589E+00 0.35035160E+04</pdfrwt>
<pdfrwt beam="2">  1       -1 0.52743506E+00 0.35035160E+04</pdfrwt>
<totfact> 0.15051095E-02</totfact>
</mgrwt>
</event>
<event>
 6    1  0.1603085E-006  0.2732375E+04  0.7818608E-02  0.8324576E-01
         -1   -1    0    0    0  501 -0.00000000000E+00  0.00000000000E+00  0.11496272753E+04  0.11496272753E+04  0.00000000000E+00 0.  1.
          1   -1    0    0  501    0  0.00000000000E+00 -0.00000000000E+00 -0.16235418703E+04  0.16235418703E+04  0.00000000000E+00 0. -1.
         23    2    1    2    0    0 -0.11574248929E+04  0.72269867525E+03 -0.21825414227E+03  0.13849011509E+04  0.91600050403E+02 0.  0.
         11    1    3    3    0    0 -0.88385145887E+03  0.53290192113E+03 -0.12843763819E+03  0.10400356176E+04  0.00000000000E+00 0. -1.
        -11    1    3    3    0    0 -0.27357343406E+03  0.18979675412E+03 -0.89816504080E+02  0.34486553337E+03  0.00000000000E+00 0.  1.
         22    1    1    2    0    0  0.11574248929E+04 -0.72269867525E+03 -0.25566045270E+03  0.13882679947E+04  0.00000000000E+00 0. -1.
<mgrwt>
<rscale>  0 0.27323748E+04</rscale>
<asrwt>0</asrwt>
<pdfrwt beam="1">  1        1 0.24977567E+00 0.27323748E+04</pdfrwt>
<pdfrwt beam="2">  1       -1 0.17686574E+00 0.27323748E+04</pdfrwt>
<totfact> 0.10263721E+00</totfact>
</mgrwt>
</event>
<event>
 6    1  0.1897706E-006  0.4064599E+04  0.7818608E-02  0.7991640E-01
         -2   -1    0    0    0  501 -0.00000000000E+00  0.00000000000E+00  0.25610512521E+04  0.25610512521E+04  0.00000000000E+00 0.  1.
          2   -1    0    0  501    0  0.00000000000E+00 -0.00000000000E+00 -0.16127128804E+04  0.16127128804E+04  0.00000000000E+00 0. -1.
         23    2    1    2    0    0 -0.83918729821E+03  0.24546159989E+03  0.23571045803E+04  0.25157204211E+04  0.91763371078E+02 0.  0.
         13    1    3    3    0    0 -0.61622406405E+03  0.21136178206E+03  0.16715481567E+04  0.17940120234E+04  0.00000000000E+00 0. -1.
        -13    1    3    3    0    0 -0.22296323416E+03  0.34099817833E+02  0.68555642358E+03  0.72170839768E+03  0.00000000000E+00 0.  1.
         22    1    1    2    0    0  0.83918729821E+03 -0.24546159989E+03 -0.14087662086E+04  0.16580437114E+04  0.00000000000E+00 0. -1.
<mgrwt>
<rscale>  0 0.40645985E+04</rscale>
<asrwt>0</asrwt>
<pdfrwt beam="1">  1        2 0.24810967E+00 0.40645985E+04</pdfrwt>
<pdfrwt beam="2">  1       -2 0.39400788E+00 0.40645985E+04</pdfrwt>
<totfact> 0.69901306E-02</totfact>
</mgrwt>
</event>
<event>
 6    1  0.1603085E-006  0.1900912E+04  0.7818608E-02  0.8654402E-01
          1   -1    0    0  501    0  0.00000000000E+00  0.00000000000E+00  0.23014211346E+04  0.23014211346E+04  0.00000000000E+00 0. -1.
         -1   -1    0    0    0  501 -0.00000000000E+00 -0.00000000000E+00 -0.39252574060E+03  0.39252574060E+03  0.00000000000E+00 0.  1.
         23    2    1    2    0    0 -0.65711785519E+03 -0.13765240383E+03  0.19057100873E+04  0.20225586074E+04  0.90886322440E+02 0.  0.
         13    1    3    3    0    0 -0.48331962204E+03 -0.60332324351E+02  0.13474607641E+04  0.14327904094E+04  0.00000000000E+00 0.  1.
        -13    1    3    3    0    0 -0.17379823314E+03 -0.77320079481E+02  0.55824932324E+03  0.58976819806E+03  0.00000000000E+00 0. -1.
         22    1    1    2    0    0  0.65711785519E+03  0.13765240383E+03  0.31853066364E+01  0.67138826774E+03  0.00000000000E+00 0.  1.
<mgrwt>
<rscale>  0 0.19009124E+04</rscale>
<asrwt>0</asrwt>
<pdfrwt beam="1">  1        1 0.35406478E+00 0.19009124E+04</pdfrwt>
<pdfrwt beam="2">  1       -1 0.60388577E-01 0.19009124E+04</pdfrwt>
<totfact> 0.48325811E+00</totfact>
</mgrwt>
</event>
<event>
 6    1  0.1603085E-006  0.2431679E+04  0.7818608E-02  0.8427738E-01
         -1   -1    0    0    0  501 -0.00000000000E+00  0.00000000000E+00  0.38284206073E+03  0.38284206073E+03  0.00000000000E+00 0.  1.
          1   -1    0    0  501    0  0.00000000000E+00 -0.00000000000E+00 -0.38612948156E+04  0.38612948156E+04  0.00000000000E+00 0. -1.
         23    2    1    2    0    0 -0.21976093209E+03  0.67928775563E+03 -0.34556650795E+04  0.35298218195E+04  0.91072575424E+02 0.  0.
         11    1    3    3    0    0 -0.68615199822E+02  0.35629561836E+03 -0.17926066690E+04  0.18289596177E+04  0.00000000000E+00 0. -1.
        -11    1    3    3    0    0 -0.15114573227E+03  0.32299213727E+03 -0.16630584104E+04  0.17008622018E+04  0.00000000000E+00 0.  1.
         22    1    1    2    0    0  0.21976093209E+03 -0.67928775563E+03 -0.22787675399E+02  0.71431505680E+03  0.00000000000E+00 0.  1.
<mgrwt>
<rscale>  0 0.24316793E+04</rscale>
<asrwt>0</asrwt>
<pdfrwt beam="1">  1        1 0.59404536E+00 0.24316793E+04</pdfrwt>
<pdfrwt beam="2">  1       -1 0.58898778E-01 0.24316793E+04</pdfrwt>
<totfact> 0.33116242E-01</totfact>
</mgrwt>
</event>
<event>
 6    1  0.1603085E-006  0.3251966E+04  0.7818608E-02  0.8175226E-01
         -2   -1    0    0    0  501 -0.00000000000E+00  0.00000000000E+00  0.23014073996E+04  0.23014073996E+04  0.00000000000E+00 0. -1.
          2   -1    0    0  501    0  0.00000000000E+00 -0.00000000000E+00 -0.11487840141E+04  0.11487840141E+04  0.00000000000E+00 0.  1.
         23    2    1    2    0    0  0.30657946925E+03  0.12381688096E+04 -0.49085412420E+03  0.13697896984E+04  0.91285675371E+02 0.  0.
         11    1    3    3    0    0  0.19761015621E+03  0.71913297318E+03 -0.24299197821E+03  0.78437689182E+03  0.00000000000E+00 0. -1.
        -11    1    3    3    0    0  0.10896931304E+03  0.51903583639E+03 -0.24786214599E+03  0.58541280654E+03  0.00000000000E+00 0.  1.
         22    1    1    2    0    0 -0.30657946925E+03 -0.12381688096E+04  0.16434775097E+04  0.20804017153E+04  0.00000000000E+00 0. -1.
<mgrwt>
<rscale>  0 0.32519656E+04</rscale>
<asrwt>0</asrwt>
<pdfrwt beam="1">  1        2 0.17673600E+00 0.32519656E+04</pdfrwt>
<pdfrwt beam="2">  1       -2 0.35406268E+00 0.32519656E+04</pdfrwt>
<totfact> 0.24996379E-01</totfact>
</mgrwt>
</event>
<event>
 6    1  0.1603085E-006  0.1873829E+04  0.7818608E-02  0.8667994E-01
          2   -1    0    0  501    0  0.00000000000E+00  0.00000000000E+00  0.11510739953E+04  0.11510739953E+04  0.00000000000E+00 0. -1.
         -2   -1    0    0    0  501 -0.00000000000E+00 -0.00000000000E+00 -0.76259983520E+03  0.76259983520E+03  0.00000000000E+00 0.  1.
         23    2    1    2    0    0  0.40820720253E+03  0.53041394413E+03  0.86090128746E+03  0.10944306047E+04  0.93033593355E+02 0.  0.
         11    1    3    3    0    0  0.31035474159E+03  0.45503401658E+03  0.67452526459E+03  0.87083887973E+03  0.00000000000E+00 0. -1.
        -11    1    3    3    0    0  0.97852460933E+02  0.75379927551E+02  0.18637602287E+03  0.22359172500E+03  0.00000000000E+00 0.  1.
         22    1    1    2    0    0 -0.40820720253E+03 -0.53041394413E+03 -0.47242712736E+03  0.81924322578E+03  0.00000000000E+00 0.  1.
<mgrwt>
<rscale>  0 0.18738291E+04</rscale>
<asrwt>0</asrwt>
<pdfrwt beam="1">  1        2 0.17708831E+00 0.18738291E+04</pdfrwt>
<pdfrwt beam="2">  1       -2 0.11732305E+00 0.18738291E+04</pdfrwt>
<totfact> 0.10683927E+01</totfact>
</mgrwt>
</event>
<event>
 6    1  0.1603085E-006  0.5392683E+04  0.7818608E-02  0.7770631E-01
         -1   -1    0    0    0  501 -0.00000000000E+00  0.00000000000E+00  0.22314515959E+04  0.22314515959E+04  0.00000000000E+00 0.  1.
          1   -1    0    0  501    0  0.00000000000E+00 -0.00000000000E+00 -0.32580837600E+04  0.32580837600E+04  0.00000000000E+00 0. -1.
         23    2    1    2    0    0  0.28066591734E+03  0.23557914580E+04  0.78923753457E+03  0.25019092893E+04  0.90152400514E+02 0.  0.
         13    1    3    3    0    0  0.23871878034E+03  0.21577658908E+04  0.74000688302E+03  0.22935889960E+04  0.00000000000E+00 0.  1.
        -13    1    3    3    0    0  0.41947137005E+02  0.19802556717E+03  0.49230651558E+02  0.20832029332E+03  0.00000000000E+00 0. -1.
         22    1    1    2    0    0 -0.28066591734E+03 -0.23557914580E+04 -0.18158696987E+04  0.29876260665E+04  0.00000000000E+00 0. -1.
<mgrwt>
<rscale>  0 0.53926825E+04</rscale>
<asrwt>0</asrwt>
<pdfrwt beam="1">  1        1 0.50124365E+00 0.53926825E+04</pdfrwt>
<pdfrwt beam="2">  1       -1 0.34330025E+00 0.53926825E+04</pdfrwt>
<totfact> 0.46274423E-03</totfact>
</mgrwt>
</event>
<event>
 6    1  0.1603085E-006  0.9607665E+03  0.7818608E-02  0.9352654E-01
         -3   -1    0    0    0  501 -0.00000000000E+00  0.00000000000E+00  0.17703920541E+04  0.17703920541E+04  0.00000000000E+00 0.  1.
          3   -1    0    0  501    0  0.00000000000E+00 -0.00000000000E+00 -0.13034857972E+03  0.13034857972E+03  0.00000000000E+00 0. -1.
         23    2    1    2    0    0 -0.17025101621E+03 -0.10228130352E+03  0.16834192372E+04  0.16974469291E+04  0.89324550983E+02 0.  0.
         13    1    3    3    0    0 -0.67446538624E+02  0.47849532808E+01  0.43277671362E+03  0.43802695717E+03  0.00000000000E+00 0. -1.
        -13    1    3    3    0    0 -0.10280447758E+03 -0.10706625680E+03  0.12506425236E+04  0.12594199720E+04  0.00000000000E+00 0.  1.
         22    1    1    2    0    0  0.17025101621E+03  0.10228130352E+03 -0.43375762824E+02  0.20329370470E+03  0.00000000000E+00 0. -1.
<mgrwt>
<rscale>  0 0.96076655E+03</rscale>
<asrwt>0</asrwt>
<pdfrwt beam="1">  1        3 0.20053629E-01 0.96076655E+03</pdfrwt>
<pdfrwt beam="2">  1       -3 0.27236799E+00 0.96076655E+03</pdfrwt>
<totfact> 0.32998766E+00</totfact>
</mgrwt>
</event>
<event>
 6    1  0.1603085E-006  0.1770263E+04  0.7818608E-02  0.8722275E-01
         -1   -1    0    0    0  501 -0.00000000000E+00  0.00000000000E+00  0.32311157169E+03  0.32311157169E+03  0.00000000000E+00 0.  1.
          1   -1    0    0  501    0  0.00000000000E+00 -0.00000000000E+00 -0.24247280979E+04  0.24247280979E+04  0.00000000000E+00 0. -1.
         23    2    1    2    0    0  0.11871781142E+03  0.55925062929E+03 -0.20976836892E+04  0.21761136405E+04  0.91315560309E+02 0.  0.
         11    1    3    3    0    0  0.47631084650E+02  0.25178613488E+03 -0.77333237327E+03  0.81468272198E+03  0.00000000000E+00 0. -1.
        -11    1    3    3    0    0  0.71086726771E+02  0.30746449441E+03 -0.13243513159E+04  0.13614309186E+04  0.00000000000E+00 0.  1.
         22    1    1    2    0    0 -0.11871781142E+03 -0.55925062929E+03 -0.39328370462E+01  0.57172602907E+03  0.00000000000E+00 0.  1.
<mgrwt>
<rscale>  0 0.17702629E+04</rscale>
<asrwt>0</asrwt>
<pdfrwt beam="1">  1        1 0.37303510E+00 0.17702629E+04</pdfrwt>
<pdfrwt beam="2">  1       -1 0.49709471E-01 0.17702629E+04</pdfrwt>
<totfact> 0.58706704E+00</totfact>
</mgrwt>
</event>
<event>
 6    1  0.1603085E-006  0.4906355E+03  0.7818608E-02  0.1016252E+00
          1   -1    0    0  501    0  0.00000000000E+00  0.00000000000E+00  0.13474410154E+04  0.13474410154E+04  0.00000000000E+00 0. -1.
         -1   -1    0    0    0  501 -0.00000000000E+00 -0.00000000000E+00 -0.44663033773E+02  0.44663033773E+02  0.00000000000E+00 0.  1.
         23    2    1    2    0    0  0.14449211082E+03  0.12171185371E+03  0.26945518247E+03  0.34165283532E+03  0.91808600351E+02 0.  0.
         11    1    3    3    0    0  0.97283698379E+02  0.98966067843E+02  0.24965855271E+03  0.28563577069E+03  0.00000000000E+00 0. -1.
        -11    1    3    3    0    0  0.47208412446E+02  0.22745785869E+02  0.19796629761E+02  0.56017064635E+02  0.00000000000E+00 0.  1.
         22    1    1    2    0    0 -0.14449211082E+03 -0.12171185371E+03  0.10333227992E+04  0.10504512139E+04  0.00000000000E+00 0. -1.
<mgrwt>
<rscale>  0 0.49063552E+03</rscale>
<asrwt>0</asrwt>
<pdfrwt beam="1">  1        1 0.20729859E+00 0.49063552E+03</pdfrwt>
<pdfrwt beam="2">  1       -1 0.68712370E-02 0.49063552E+03</pdfrwt>
<totfact> 0.97454399E+02</totfact>
</mgrwt>
</event>
<event>
 6    1  0.1603085E-006  0.2133571E+04  0.7818608E-02  0.8546598E-01
          2   -1    0    0  501    0  0.00000000000E+00  0.00000000000E+00  0.92595839420E+03  0.92595839420E+03  0.00000000000E+00 0. -1.
         -2   -1    0    0    0  501 -0.00000000000E+00 -0.00000000000E+00 -0.12290306561E+04  0.12290306561E+04  0.00000000000E+00 0.  1.
         23    2    1    2    0    0  0.10730793131E+03 -0.38274947960E+03  0.84586905404E+03  0.93922661309E+03  0.92951696570E+02 0.  0.
         11    1    3    3    0    0  0.70702123095E+02 -0.35578449208E+03  0.74843420767E+03  0.83170617302E+03  0.00000000000E+00 0. -1.
        -11    1    3    3    0    0  0.36605808214E+02 -0.26964987512E+02  0.97434846368E+02  0.10752044007E+03  0.00000000000E+00 0.  1.
         22    1    1    2    0    0 -0.10730793131E+03  0.38274947960E+03 -0.11489413159E+04  0.12157624372E+04  0.00000000000E+00 0.  1.
<mgrwt>
<rscale>  0 0.21335710E+04</rscale>
<asrwt>0</asrwt>
<pdfrwt beam="1">  1        2 0.14245514E+00 0.21335710E+04</pdfrwt>
<pdfrwt beam="2">  1       -2 0.18908164E+00 0.21335710E+04</pdfrwt>
<totfact> 0.40683732E+00</totfact>
</mgrwt>
</event>
<event>
 6    1  0.1603085E-006  0.1100940E+04  0.7818608E-02  0.9204276E-01
          2   -1    0    0  501    0  0.00000000000E+00  0.00000000000E+00  0.24239970431E+04  0.24239970431E+04  0.00000000000E+00 0. -1.
         -2   -1    0    0    0  501 -0.00000000000E+00 -0.00000000000E+00 -0.12500720606E+03  0.12500720606E+03  0.00000000000E+00 0.  1.
         23    2    1    2    0    0  0.34138718285E+03 -0.38232185573E+03  0.15976105179E+04  0.16802993745E+04  0.91276563345E+02 0.  0.
         11    1    3    3    0    0  0.17557742104E+03 -0.12935463061E+03  0.65543666368E+03  0.69076571378E+03  0.00000000000E+00 0. -1.
        -11    1    3    3    0    0  0.16580976181E+03 -0.25296722512E+03  0.94217385419E+03  0.98953366068E+03  0.00000000000E+00 0.  1.
         22    1    1    2    0    0 -0.34138718285E+03  0.38232185573E+03  0.70137931920E+03  0.86870487474E+03  0.00000000000E+00 0.  1.
<mgrwt>
<rscale>  0 0.11009398E+04</rscale>
<asrwt>0</asrwt>
<pdfrwt beam="1">  1        2 0.37292259E+00 0.11009398E+04</pdfrwt>
<pdfrwt beam="2">  1       -2 0.19231880E-01 0.11009398E+04</pdfrwt>
<totfact> 0.88205879E+01</totfact>
</mgrwt>
</event>
<event>
 6    1  0.1603085E-006  0.2482632E+04  0.7818608E-02  0.8409199E-01
         -2   -1    0    0    0  501 -0.00000000000E+00  0.00000000000E+00  0.11451547620E+04  0.11451547620E+04  0.00000000000E+00 0.  1.
          2   -1    0    0  501    0  0.00000000000E+00 -0.00000000000E+00 -0.13455518203E+04  0.13455518203E+04  0.00000000000E+00 0. -1.
         23    2    1    2    0    0  0.11589695847E+04  0.36277883113E+03 -0.34697245984E+03  0.12674718024E+04  0.10618805693E+03 0.  0.
         13    1    3    3    0    0  0.83287978241E+03  0.27195351873E+03 -0.20145647601E+03  0.89901733022E+03  0.00000000000E+00 0.  1.
        -13    1    3    3    0    0  0.32608980226E+03  0.90825312403E+02 -0.14551598382E+03  0.36845447216E+03  0.00000000000E+00 0. -1.
         22    1    1    2    0    0 -0.11589695847E+04 -0.36277883113E+03  0.14657540153E+03  0.12232347799E+04  0.00000000000E+00 0.  1.
<mgrwt>
<rscale>  0 0.24826317E+04</rscale>
<asrwt>0</asrwt>
<pdfrwt beam="1">  1        2 0.20700797E+00 0.24826317E+04</pdfrwt>
<pdfrwt beam="2">  1       -2 0.17617766E+00 0.24826317E+04</pdfrwt>
<totfact> 0.26783070E+00</totfact>
</mgrwt>
</event>
<event>
 6    1  0.1838462E-006  0.2765108E+04  0.7818608E-02  0.8314184E-01
          1   -1    0    0  501    0  0.00000000000E+00  0.00000000000E+00  0.86130315631E+03  0.86130315631E+03  0.00000000000E+00 0. -1.
         -1   -1    0    0    0  501 -0.00000000000E+00 -0.00000000000E+00 -0.22192594404E+04  0.22192594404E+04  0.00000000000E+00 0.  1.
         23    2    1    2    0    0 -0.52746566631E+03  0.88860923699E+03 -0.17001225273E+04  0.19920203866E+04  0.99409291521E+02 0.  0.
         11    1    3    3    0    0 -0.28315051404E+03  0.56104114976E+03 -0.10735957905E+04  0.12440053484E+04  0.00000000000E+00 0. -1.
        -11    1    3    3    0    0 -0.24431515227E+03  0.32756808723E+03 -0.62652673682E+03  0.74801503818E+03  0.00000000000E+00 0.  1.
         22    1    1    2    0    0  0.52746566631E+03 -0.88860923699E+03  0.34216624328E+03  0.10885422101E+04  0.00000000000E+00 0. -1.
<mgrwt>
<rscale>  0 0.27651077E+04</rscale>
<asrwt>0</asrwt>
<pdfrwt beam="1">  1        1 0.13250818E+00 0.27651077E+04</pdfrwt>
<pdfrwt beam="2">  1       -1 0.34142452E+00 0.27651077E+04</pdfrwt>
<totfact> 0.30122323E-01</totfact>
</mgrwt>
</event>
<event>
 6    1  0.1603085E-006  0.4125926E+04  0.7818608E-02  0.7979614E-01
         -2   -1    0    0    0  501 -0.00000000000E+00  0.00000000000E+00  0.24436196931E+04  0.24436196931E+04  0.00000000000E+00 0.  1.
          2   -1    0    0  501    0  0.00000000000E+00 -0.00000000000E+00 -0.17416029827E+04  0.17416029827E+04  0.00000000000E+00 0. -1.
         23    2    1    2    0    0 -0.14383366876E+04 -0.14533487146E+04  0.80857624556E+02  0.20481982204E+04  0.86850914790E+02 0.  0.
         11    1    3    3    0    0 -0.61707754832E+03 -0.68467978009E+03  0.40443755302E+02  0.92260869237E+03  0.00000000000E+00 0. -1.
        -11    1    3    3    0    0 -0.82125913927E+03 -0.76866893456E+03  0.40413869254E+02  0.11255895280E+04  0.00000000000E+00 0.  1.
         22    1    1    2    0    0  0.14383366876E+04  0.14533487146E+04  0.62115908578E+03  0.21370244554E+04  0.00000000000E+00 0.  1.
<mgrwt>
<rscale>  0 0.41259255E+04</rscale>
<asrwt>0</asrwt>
<pdfrwt beam="1">  1        2 0.26793892E+00 0.41259255E+04</pdfrwt>
<pdfrwt beam="2">  1       -2 0.37594149E+00 0.41259255E+04</pdfrwt>
<totfact> 0.77187615E-02</totfact>
</mgrwt>
</event>
<event>
 6    1  0.1603085E-006  0.2884494E+04  0.7818608E-02  0.8277506E-01
         -2   -1    0    0    0  501 -0.00000000000E+00  0.00000000000E+00  0.76746829755E+03  0.76746829755E+03  0.00000000000E+00 0.  1.
          2   -1    0    0  501    0  0.00000000000E+00 -0.00000000000E+00 -0.27103084900E+04  0.27103084900E+04  0.00000000000E+00 0. -1.
         23    2    1    2    0    0 -0.85345264320E+03  0.60363948753E+03  0.22310355145E+03  0.10727665284E+04  0.91053745641E+02 0.  0.
         11    1    3    3    0    0 -0.14702755464E+03  0.14087240785E+03  0.63653840633E+02  0.21333998346E+03  0.00000000000E+00 0. -1.
        -11    1    3    3    0    0 -0.70642508856E+03  0.46276707968E+03  0.15944971082E+03  0.85942654489E+03  0.00000000000E+00 0.  1.
         22    1    1    2    0    0  0.85345264320E+03 -0.60363948753E+03 -0.21659437439E+04  0.24050102592E+04  0.00000000000E+00 0. -1.
<mgrwt>
<rscale>  0 0.28844936E+04</rscale>
<asrwt>0</asrwt>
<pdfrwt beam="1">  1        2 0.41697054E+00 0.28844936E+04</pdfrwt>
<pdfrwt beam="2">  1       -2 0.11807205E+00 0.28844936E+04</pdfrwt>
<totfact> 0.12501928E+00</totfact>
</mgrwt>
</event>
<event>
 6    1  0.1603085E-006  0.1759084E+04  0.7818608E-02  0.8728366E-01
          2   -1    0    0  501    0  0.00000000000E+00  0.00000000000E+00  0.19344495899E+04  0.19344495899E+04  0.00000000000E+00 0. -1.
         -2   -1    0    0    0  501 -0.00000000000E+00 -0.00000000000E+00 -0.39990402814E+03  0.39990402814E+03  0.00000000000E+00 0.  1.
         23    2    1    2    0    0  0.45715344203E+03  0.61794496677E+03  0.13295441503E+04  0.15388218272E+04  0.97158205089E+02 0.  0.
         11    1    3    3    0    0  0.94714237507E+02  0.90846036453E+02  0.17283281545E+03  0.21701375814E+03  0.00000000000E+00 0. -1.
        -11    1    3    3    0    0  0.36243920452E+03  0.52709893032E+03  0.11567113348E+04  0.13218080690E+04  0.00000000000E+00 0.  1.
         22    1    1    2    0    0 -0.45715344203E+03 -0.61794496677E+03  0.20500141147E+03  0.79553179083E+03  0.00000000000E+00 0.  1.
<mgrwt>
<rscale>  0 0.17590841E+04</rscale>
<asrwt>0</asrwt>
<pdfrwt beam="1">  1        2 0.29760762E+00 0.17590841E+04</pdfrwt>
<pdfrwt beam="2">  1       -2 0.61523698E-01 0.17590841E+04</pdfrwt>
<totfact> 0.16899742E+01</totfact>
</mgrwt>
</event>
<event>
 6    1  0.1603085E-006  0.1394069E+04  0.7818608E-02  0.8958123E-01
         -2   -1    0    0    0  501 -0.00000000000E+00  0.00000000000E+00  0.34434646000E+03  0.34434646000E+03  0.00000000000E+00 0.  1.
          2   -1    0    0  501    0  0.00000000000E+00 -0.00000000000E+00 -0.14109544445E+04  0.14109544445E+04  0.00000000000E+00 0. -1.
         23    2    1    2    0    0 -0.25078534188E+03  0.62380277414E+03 -0.31960949722E+03  0.75029845239E+03  0.93671491023E+02 0.  0.
         11    1    3    3    0    0 -0.12014136252E+03  0.26471723674E+03 -0.18780451597E+03  0.34609203780E+03  0.00000000000E+00 0.  1.
        -11    1    3    3    0    0 -0.13064397936E+03  0.35908553740E+03 -0.13180498125E+03  0.40420641459E+03  0.00000000000E+00 0. -1.
         22    1    1    2    0    0  0.25078534188E+03 -0.62380277414E+03 -0.74699848724E+03  0.10050024521E+04  0.00000000000E+00 0. -1.
<mgrwt>
<rscale>  0 0.13940691E+04</rscale>
<asrwt>0</asrwt>
<pdfrwt beam="1">  1        2 0.21706991E+00 0.13940691E+04</pdfrwt>
<pdfrwt beam="2">  1       -2 0.52976380E-01 0.13940691E+04</pdfrwt>
<totfact> 0.46660230E+01</totfact>
</mgrwt>
</event>
<event>
 6    1  0.1603085E-006  0.1731876E+04  0.7818608E-02  0.8743390E-01
          1   -1    0    0  501    0  0.00000000000E+00  0.00000000000E+00  0.25263938489E+04  0.25263938489E+04  0.00000000000E+00 0. -1.
         -1   -1    0    0    0  501 -0.00000000000E+00 -0.00000000000E+00 -0.29680584291E+03  0.29680584291E+03  0.00000000000E+00 0.  1.
         23    2    1    2    0    0  0.35732101047E+03 -0.38721540714E+02  0.23978050695E+04  0.24263689437E+04  0.92840925759E+02 0.  0.
         13    1    3    3    0    0  0.18423693662E+03 -0.21683242695E+02  0.93207222783E+03  0.95035364456E+03  0.00000000000E+00 0. -1.
        -13    1    3    3    0    0  0.17308407385E+03 -0.17038298018E+02  0.14657328416E+04  0.14760152991E+04  0.00000000000E+00 0.  1.
         22    1    1    2    0    0 -0.35732101047E+03  0.38721540714E+02 -0.16821706345E+03  0.39683074814E+03  0.00000000000E+00 0.  1.
<mgrwt>
<rscale>  0 0.17318758E+04</rscale>
<asrwt>0</asrwt>
<pdfrwt beam="1">  1        1 0.38867596E+00 0.17318758E+04</pdfrwt>
<pdfrwt beam="2">  1       -1 0.45662439E-01 0.17318758E+04</pdfrwt>
<totfact> 0.58821311E+00</totfact>
</mgrwt>
</event>
<event>
 6    1  0.1603085E-006  0.1777778E+04  0.7818608E-02  0.8718207E-01
          3   -1    0    0  501    0  0.00000000000E+00  0.00000000000E+00  0.11330272692E+04  0.11330272692E+04  0.00000000000E+00 0.  1.
         -3   -1    0    0    0  501 -0.00000000000E+00 -0.00000000000E+00 -0.69735641235E+03  0.69735641235E+03  0.00000000000E+00 0. -1.
         23    2    1    2    0    0 -0.88418025713E+01 -0.23260157041E+03  0.10993916138E+04  0.11270296376E+04  0.85745060362E+02 0.  0.
         11    1    3    3    0    0 -0.21558617550E+02 -0.96725349232E+02  0.64560449430E+03  0.65316592856E+03  0.00000000000E+00 0.  1.
        -11    1    3    3    0    0  0.12716814979E+02 -0.13587622118E+03  0.45378711951E+03  0.47386370899E+03  0.00000000000E+00 0. -1.
         22    1    1    2    0    0  0.88418025713E+01  0.23260157041E+03 -0.66372075694E+03  0.70335404401E+03  0.00000000000E+00 0. -1.
<mgrwt>
<rscale>  0 0.17777782E+04</rscale>
<asrwt>0</asrwt>
<pdfrwt beam="1">  1        3 0.17431189E+00 0.17777782E+04</pdfrwt>
<pdfrwt beam="2">  1       -3 0.10728560E+00 0.17777782E+04</pdfrwt>
<totfact> 0.39726687E-01</totfact>
</mgrwt>
</event>
<event>
 6    1  0.1603085E-006  0.1464945E+04  0.7818608E-02  0.8908105E-01
          2   -1    0    0  501    0  0.00000000000E+00  0.00000000000E+00  0.20539296393E+04  0.20539296393E+04  0.00000000000E+00 0.  1.
         -2   -1    0    0    0  501 -0.00000000000E+00 -0.00000000000E+00 -0.26121421754E+03  0.26121421754E+03  0.00000000000E+00 0. -1.
         23    2    1    2    0    0  0.76453840647E+01 -0.10493917521E+03  0.20408045304E+04  0.20456649371E+04  0.93761513912E+02 0.  0.
         11    1    3    3    0    0 -0.42208229798E+02 -0.43553659492E+02  0.10202923203E+04  0.10220933787E+04  0.00000000000E+00 0. -1.
        -11    1    3    3    0    0  0.49853613863E+02 -0.61385515722E+02  0.10205122101E+04  0.10235715584E+04  0.00000000000E+00 0.  1.
         22    1    1    2    0    0 -0.76453840647E+01  0.10493917521E+03 -0.24808910857E+03  0.26947891974E+03  0.00000000000E+00 0. -1.
<mgrwt>
<rscale>  0 0.14649445E+04</rscale>
<asrwt>0</asrwt>
<pdfrwt beam="1">  1        2 0.31598916E+00 0.14649445E+04</pdfrwt>
<pdfrwt beam="2">  1       -2 0.40186804E-01 0.14649445E+04</pdfrwt>
<totfact> 0.35416509E+01</totfact>
</mgrwt>
</event>
<event>
 6    1  0.1603085E-006  0.2570329E+04  0.7818608E-02  0.8378350E-01
          2   -1    0    0  501    0  0.00000000000E+00  0.00000000000E+00  0.17711041462E+04  0.17711041462E+04  0.00000000000E+00 0. -1.
         -2   -1    0    0    0  501 -0.00000000000E+00 -0.00000000000E+00 -0.93255226863E+03  0.93255226863E+03  0.00000000000E+00 0.  1.
         23    2    1    2    0    0 -0.94330307695E+03 -0.29224696393E+03  0.12822433917E+04  0.16210248327E+04  0.91347742192E+02 0.  0.
         13    1    3    3    0    0 -0.77150421397E+03 -0.25007542305E+03  0.11041963482E+04  0.13700387019E+04  0.00000000000E+00 0.  1.
        -13    1    3    3    0    0 -0.17179886297E+03 -0.42171540888E+02  0.17804704349E+03  0.25098613084E+03  0.00000000000E+00 0. -1.
         22    1    1    2    0    0  0.94330307695E+03  0.29224696393E+03 -0.44369151407E+03  0.10826315821E+04  0.00000000000E+00 0.  1.
<mgrwt>
<rscale>  0 0.25703285E+04</rscale>
<asrwt>0</asrwt>
<pdfrwt beam="1">  1        2 0.27247756E+00 0.25703285E+04</pdfrwt>
<pdfrwt beam="2">  1       -2 0.14346958E+00 0.25703285E+04</pdfrwt>
<totfact> 0.26753716E+00</totfact>
</mgrwt>
</event>
<event>
 6    1  0.1603085E-006  0.2015042E+04  0.7818608E-02  0.8599620E-01
         -1   -1    0    0    0  501 -0.00000000000E+00  0.00000000000E+00  0.66593277219E+03  0.66593277219E+03  0.00000000000E+00 0.  1.
          1   -1    0    0  501    0  0.00000000000E+00 -0.00000000000E+00 -0.15243252875E+04  0.15243252875E+04  0.00000000000E+00 0. -1.
         23    2    1    2    0    0 -0.47246404038E+03  0.48496017775E+03  0.37770077693E+03  0.78088398920E+03  0.93344974342E+02 0.  0.
         11    1    3    3    0    0 -0.32367632804E+03  0.27956564656E+03  0.20691035845E+03  0.47511599900E+03  0.00000000000E+00 0.  1.
        -11    1    3    3    0    0 -0.14878771235E+03  0.20539453119E+03  0.17079041848E+03  0.30576799020E+03  0.00000000000E+00 0. -1.
         22    1    1    2    0    0  0.47246404038E+03 -0.48496017775E+03 -0.12360932922E+04  0.14093740705E+04  0.00000000000E+00 0. -1.
<mgrwt>
<rscale>  0 0.20150416E+04</rscale>
<asrwt>0</asrwt>
<pdfrwt beam="1">  1        1 0.23451158E+00 0.20150416E+04</pdfrwt>
<pdfrwt beam="2">  1       -1 0.10245120E+00 0.20150416E+04</pdfrwt>
<totfact> 0.52546640E+00</totfact>
</mgrwt>
</event>
<event>
 6    1  0.1603085E-006  0.4137835E+04  0.7818608E-02  0.7977304E-01
          2   -1    0    0  501    0  0.00000000000E+00  0.00000000000E+00  0.42682247160E+04  0.42682247160E+04  0.00000000000E+00 0. -1.
         -2   -1    0    0    0  501 -0.00000000000E+00 -0.00000000000E+00 -0.10028572160E+04  0.10028572160E+04  0.00000000000E+00 0.  1.
         23    2    1    2    0    0 -0.19578971458E+04  0.53184848247E+03  0.21427620987E+04  0.29523609636E+04  0.93711289798E+02 0.  0.
         13    1    3    3    0    0 -0.16864061589E+04  0.42596956637E+03  0.18194534168E+04  0.25171067796E+04  0.00000000000E+00 0. -1.
        -13    1    3    3    0    0 -0.27149098694E+03  0.10587891610E+03  0.32330868196E+03  0.43525418400E+03  0.00000000000E+00 0.  1.
         22    1    1    2    0    0  0.19578971458E+04 -0.53184848247E+03  0.11226054013E+04  0.23187209683E+04  0.00000000000E+00 0. -1.
<mgrwt>
<rscale>  0 0.41378352E+04</rscale>
<asrwt>0</asrwt>
<pdfrwt beam="1">  1        2 0.65664995E+00 0.41378352E+04</pdfrwt>
<pdfrwt beam="2">  1       -2 0.15428573E+00 0.41378352E+04</pdfrwt>
<totfact> 0.43672148E-02</totfact>
</mgrwt>
</event>
<event>
 6    1  0.1603085E-006  0.2159503E+04  0.7818608E-02  0.8535475E-01
         -1   -1    0    0    0  501 -0.00000000000E+00  0.00000000000E+00  0.12138844576E+04  0.12138844576E+04  0.00000000000E+00 0.  1.
          1   -1    0    0  501    0  0.00000000000E+00 -0.00000000000E+00 -0.96044052359E+03  0.96044052359E+03  0.00000000000E+00 0. -1.
         23    2    1    2    0    0 -0.78119942914E+03  0.24730640879E+03 -0.57800034848E+03  0.10069635964E+04  0.91968873282E+02 0.  0.
         13    1    3    3    0    0 -0.55080156947E+03  0.13146659601E+03 -0.38246401842E+03  0.68333341802E+03  0.00000000000E+00 0.  1.
        -13    1    3    3    0    0 -0.23039785967E+03  0.11583981278E+03 -0.19553633005E+03  0.32363017835E+03  0.00000000000E+00 0. -1.
         22    1    1    2    0    0  0.78119942914E+03 -0.24730640879E+03  0.83144428250E+03  0.11673613848E+04  0.00000000000E+00 0.  1.
<mgrwt>
<rscale>  0 0.21595035E+04</rscale>
<asrwt>0</asrwt>
<pdfrwt beam="1">  1        1 0.14776008E+00 0.21595035E+04</pdfrwt>
<pdfrwt beam="2">  1       -1 0.18675146E+00 0.21595035E+04</pdfrwt>
<totfact> 0.27709823E+00</totfact>
</mgrwt>
</event>
<event>
 6    1  0.1603085E-006  0.6506071E+03  0.7818608E-02  0.9805641E-01
          2   -1    0    0  501    0  0.00000000000E+00  0.00000000000E+00  0.21054990353E+03  0.21054990353E+03  0.00000000000E+00 0.  1.
         -2   -1    0    0    0  501 -0.00000000000E+00 -0.00000000000E+00 -0.50260014345E+03  0.50260014345E+03  0.00000000000E+00 0. -1.
         23    2    1    2    0    0  0.22751690112E+03  0.13081748929E+03  0.49436928850E+02  0.28246380129E+03  0.92003441836E+02 0.  0.
         11    1    3    3    0    0  0.13271574041E+03  0.41344006319E+02 -0.96507533131E+01  0.13934106232E+03  0.00000000000E+00 0. -1.
        -11    1    3    3    0    0  0.94801160709E+02  0.89473482968E+02  0.59087682163E+02  0.14312273897E+03  0.00000000000E+00 0.  1.
         22    1    1    2    0    0 -0.22751690112E+03 -0.13081748929E+03 -0.34148716876E+03  0.43068624569E+03  0.00000000000E+00 0. -1.
<mgrwt>
<rscale>  0 0.65060714E+03</rscale>
<asrwt>0</asrwt>
<pdfrwt beam="1">  1        2 0.32392293E-01 0.65060714E+03</pdfrwt>
<pdfrwt beam="2">  1       -2 0.77323098E-01 0.65060714E+03</pdfrwt>
<totfact> 0.24604766E+02</totfact>
</mgrwt>
</event>
<event>
 6    1  0.1603085E-006  0.1986682E+04  0.7818608E-02  0.8612873E-01
         -2   -1    0    0    0  501 -0.00000000000E+00  0.00000000000E+00  0.87192266981E+03  0.87192266981E+03  0.00000000000E+00 0.  1.
          2   -1    0    0  501    0  0.00000000000E+00 -0.00000000000E+00 -0.11316676738E+04  0.11316676738E+04  0.00000000000E+00 0. -1.
         23    2    1    2    0    0  0.92586712654E+03 -0.34937258168E+03 -0.17691132938E+03  0.10105382027E+04  0.10295000652E+03 0.  0.
         11    1    3    3    0    0  0.72780468202E+03 -0.28131513104E+03 -0.96596742005E+02  0.78623710717E+03  0.00000000000E+00 0.  1.
        -11    1    3    3    0    0  0.19806244452E+03 -0.68057450635E+02 -0.80314587380E+02  0.22430109555E+03  0.00000000000E+00 0. -1.
         22    1    1    2    0    0 -0.92586712654E+03  0.34937258168E+03 -0.82833674574E+02  0.99305214087E+03  0.00000000000E+00 0. -1.
<mgrwt>
<rscale>  0 0.19866824E+04</rscale>
<asrwt>0</asrwt>
<pdfrwt beam="1">  1        2 0.17410272E+00 0.19866824E+04</pdfrwt>
<pdfrwt beam="2">  1       -2 0.13414195E+00 0.19866824E+04</pdfrwt>
<totfact> 0.77697558E+00</totfact>
</mgrwt>
</event>
<event>
 6    1  0.1603085E-006  0.1911280E+04  0.7818608E-02  0.8649262E-01
          1   -1    0    0  501    0  0.00000000000E+00  0.00000000000E+00  0.20729395536E+04  0.20729395536E+04  0.00000000000E+00 0. -1.
         -1   -1    0    0    0  501 -0.00000000000E+00 -0.00000000000E+00 -0.44055677046E+03  0.44055677046E+03  0.00000000000E+00 0.  1.
         23    2    1    2    0    0  0.80180799505E+03 -0.29419244638E+03  0.13752310959E+04  0.16215477567E+04  0.93334365834E+02 0.  0.
         13    1    3    3    0    0  0.72588997825E+03 -0.23532205460E+03  0.12239347595E+04  0.14423276415E+04  0.00000000000E+00 0. -1.
        -13    1    3    3    0    0  0.75918016794E+02 -0.58870391775E+02  0.15129633641E+03  0.17922011526E+03  0.00000000000E+00 0.  1.
         22    1    1    2    0    0 -0.80180799505E+03  0.29419244638E+03  0.25715168720E+03  0.89194856727E+03  0.00000000000E+00 0.  1.
<mgrwt>
<rscale>  0 0.19112797E+04</rscale>
<asrwt>0</asrwt>
<pdfrwt beam="1">  1        1 0.31891377E+00 0.19112797E+04</pdfrwt>
<pdfrwt beam="2">  1       -1 0.67777966E-01 0.19112797E+04</pdfrwt>
<totfact> 0.54781244E+00</totfact>
</mgrwt>
</event>
<event>
 6    1  0.1603085E-006  0.1233630E+04  0.7818608E-02  0.9083919E-01
         -3   -1    0    0    0  501 -0.00000000000E+00  0.00000000000E+00  0.99446411456E+02  0.99446411456E+02  0.00000000000E+00 0.  1.
          3   -1    0    0  501    0  0.00000000000E+00 -0.00000000000E+00 -0.38257836962E+04  0.38257836962E+04  0.00000000000E+00 0. -1.
         23    2    1    2    0    0  0.47204988591E+03  0.37943549895E+03 -0.15674989995E+04  0.16830469896E+04  0.93763870541E+02 0.  0.
         11    1    3    3    0    0  0.40297287931E+03  0.31369741109E+03 -0.12169068206E+04  0.13197179309E+04  0.00000000000E+00 0. -1.
        -11    1    3    3    0    0  0.69077006593E+02  0.65738087868E+02 -0.35059217889E+03  0.36332905875E+03  0.00000000000E+00 0.  1.
         22    1    1    2    0    0 -0.47204988591E+03 -0.37943549895E+03 -0.21588382852E+04  0.22421831180E+04  0.00000000000E+00 0. -1.
<mgrwt>
<rscale>  0 0.12336295E+04</rscale>
<asrwt>0</asrwt>
<pdfrwt beam="1">  1        3 0.58858206E+00 0.12336295E+04</pdfrwt>
<pdfrwt beam="2">  1       -3 0.15299449E-01 0.12336295E+04</pdfrwt>
<totfact> 0.12654128E-01</totfact>
</mgrwt>
</event>
<event>
 6    1  0.1603085E-006  0.1292846E+04  0.7818608E-02  0.9035258E-01
         -2   -1    0    0    0  501 -0.00000000000E+00  0.00000000000E+00  0.13426619752E+03  0.13426619752E+03  0.00000000000E+00 0.  1.
          2   -1    0    0  501    0  0.00000000000E+00 -0.00000000000E+00 -0.31121938801E+04  0.31121938801E+04  0.00000000000E+00 0. -1.
         23    2    1    2    0    0  0.31689825430E+03 -0.36665483079E+02 -0.28988495873E+04  0.29177927589E+04  0.91743080568E+02 0.  0.
         11    1    3    3    0    0  0.28465926693E+03 -0.51590629940E+02 -0.23400162588E+04  0.23578313305E+04  0.00000000000E+00 0.  1.
        -11    1    3    3    0    0  0.32238987374E+02  0.14925146861E+02 -0.55883332850E+03  0.55996142845E+03  0.00000000000E+00 0. -1.
         22    1    1    2    0    0 -0.31689825430E+03  0.36665483079E+02 -0.79078095241E+02  0.32866731869E+03  0.00000000000E+00 0.  1.
<mgrwt>
<rscale>  0 0.12928456E+04</rscale>
<asrwt>0</asrwt>
<pdfrwt beam="1">  1        2 0.47879908E+00 0.12928456E+04</pdfrwt>
<pdfrwt beam="2">  1       -2 0.20656337E-01 0.12928456E+04</pdfrwt>
<totfact> 0.29665295E+01</totfact>
</mgrwt>
</event>
<event>
 6    1  0.2019304E-006  0.2659269E+04  0.7818608E-02  0.8348343E-01
         -2   -1    0    0    0  501 -0.00000000000E+00  0.00000000000E+00  0.96096858112E+03  0.96096858112E+03  0.00000000000E+00 0.  1.
          2   -1    0    0  501    0  0.00000000000E+00 -0.00000000000E+00 -0.18397359324E+04  0.18397359324E+04  0.00000000000E+00 0. -1.
         23    2    1    2    0    0 -0.54876149444E+03 -0.10940870852E+03 -0.17084118956E+04  0.17999950087E+04  0.90561489143E+02 0.  0.
         11    1    3    3    0    0 -0.25539932372E+03 -0.53549278447E+01 -0.78839946373E+03  0.82875280043E+03  0.00000000000E+00 0. -1.
        -11    1    3    3    0    0 -0.29336217072E+03 -0.10405378067E+03 -0.92001243182E+03  0.97124220830E+03  0.00000000000E+00 0.  1.
         22    1    1    2    0    0  0.54876149444E+03  0.10940870852E+03  0.82964454423E+03  0.10007095048E+04  0.00000000000E+00 0.  1.
<mgrwt>
<rscale>  0 0.26592694E+04</rscale>
<asrwt>0</asrwt>
<pdfrwt beam="1">  1        2 0.28303629E+00 0.26592694E+04</pdfrwt>
<pdfrwt beam="2">  1       -2 0.14784132E+00 0.26592694E+04</pdfrwt>
<totfact> 0.22479532E+00</totfact>
</mgrwt>
</event>
<event>
 6    1  0.1603085E-006  0.2540371E+04  0.7818608E-02  0.8388743E-01
          1   -1    0    0  501    0  0.00000000000E+00  0.00000000000E+00  0.29199431030E+04  0.29199431030E+04  0.00000000000E+00 0. -1.
         -1   -1    0    0    0  501 -0.00000000000E+00 -0.00000000000E+00 -0.55253518281E+03  0.55253518281E+03  0.00000000000E+00 0.  1.
         23    2    1    2    0    0 -0.62235888259E+03 -0.10168446250E+04  0.59251492554E+03  0.13343602553E+04  0.90220750468E+02 0.  0.
         11    1    3    3    0    0 -0.47229106416E+03 -0.74632669734E+03  0.39646905047E+03  0.96811677830E+03  0.00000000000E+00 0. -1.
        -11    1    3    3    0    0 -0.15006781843E+03 -0.27051792763E+03  0.19604587507E+03  0.36624347698E+03  0.00000000000E+00 0.  1.
         22    1    1    2    0    0  0.62235888259E+03  0.10168446250E+04  0.17748929947E+04  0.21381180305E+04  0.00000000000E+00 0.  1.
<mgrwt>
<rscale>  0 0.25403711E+04</rscale>
<asrwt>0</asrwt>
<pdfrwt beam="1">  1        1 0.44922201E+00 0.25403711E+04</pdfrwt>
<pdfrwt beam="2">  1       -1 0.85005414E-01 0.25403711E+04</pdfrwt>
<totfact> 0.82808877E-01</totfact>
</mgrwt>
</event>
<event>
 6    1  0.1603085E-006  0.3579919E+04  0.7818608E-02  0.8095107E-01
         -1   -1    0    0    0  501 -0.00000000000E+00  0.00000000000E+00  0.19765282348E+04  0.19765282348E+04  0.00000000000E+00 0.  1.
          1   -1    0    0  501    0  0.00000000000E+00 -0.00000000000E+00 -0.16210012135E+04  0.16210012135E+04  0.00000000000E+00 0. -1.
         23    2    1    2    0    0 -0.11852088398E+04  0.60459529337E+03 -0.10235556344E+04  0.16812506497E+04  0.93178043057E+02 0.  0.
         13    1    3    3    0    0 -0.30091522829E+03  0.13671726513E+03 -0.30241133295E+03  0.44798906181E+03  0.00000000000E+00 0. -1.
        -13    1    3    3    0    0 -0.88429361152E+03  0.46787802824E+03 -0.72114430145E+03  0.12332615879E+04  0.00000000000E+00 0.  1.
         22    1    1    2    0    0  0.11852088398E+04 -0.60459529337E+03  0.13790826557E+04  0.19162787986E+04  0.00000000000E+00 0.  1.
<mgrwt>
<rscale>  0 0.35799188E+04</rscale>
<asrwt>0</asrwt>
<pdfrwt beam="1">  1        1 0.24938480E+00 0.35799188E+04</pdfrwt>
<pdfrwt beam="2">  1       -1 0.30408127E+00 0.35799188E+04</pdfrwt>
<totfact> 0.13590050E-01</totfact>
</mgrwt>
</event>
<event>
 6    1  0.1603085E-006  0.4919868E+04  0.7818608E-02  0.7840989E-01
          1   -1    0    0  501    0  0.00000000000E+00  0.00000000000E+00  0.35357663061E+04  0.35357663061E+04  0.00000000000E+00 0. -1.
         -1   -1    0    0    0  501 -0.00000000000E+00 -0.00000000000E+00 -0.17114463362E+04  0.17114463362E+04  0.00000000000E+00 0.  1.
         23    2    1    2    0    0  0.20066529492E+04  0.10756873378E+04  0.19034777999E+04  0.29690499463E+04  0.90942517531E+02 0.  0.
         13    1    3    3    0    0  0.12503482491E+04  0.70865097477E+03  0.12372410883E+04  0.18963972312E+04  0.00000000000E+00 0.  1.
        -13    1    3    3    0    0  0.75630470015E+03  0.36703636299E+03  0.66623671168E+03  0.10726527151E+04  0.00000000000E+00 0. -1.
         22    1    1    2    0    0 -0.20066529492E+04 -0.10756873378E+04 -0.79157829978E+02  0.22781626960E+04  0.00000000000E+00 0.  1.
<mgrwt>
<rscale>  0 0.49198676E+04</rscale>
<asrwt>0</asrwt>
<pdfrwt beam="1">  1        1 0.54396405E+00 0.49198676E+04</pdfrwt>
<pdfrwt beam="2">  1       -1 0.26329944E+00 0.49198676E+04</pdfrwt>
<totfact> 0.97022082E-03</totfact>
</mgrwt>
</event>
<event>
 6    1  0.1603085E-006  0.2980800E+04  0.7818608E-02  0.8249235E-01
         -2   -1    0    0    0  501 -0.00000000000E+00  0.00000000000E+00  0.87031869791E+03  0.87031869791E+03  0.00000000000E+00 0.  1.
          2   -1    0    0  501    0  0.00000000000E+00 -0.00000000000E+00 -0.25522738701E+04  0.25522738701E+04  0.00000000000E+00 0. -1.
         23    2    1    2    0    0 -0.24605001171E+03 -0.12336815832E+04 -0.17565277926E+04  0.21624053071E+04  0.89977601790E+02 0.  0.
         13    1    3    3    0    0 -0.23812881757E+03 -0.10309561397E+04 -0.14882995678E+04  0.18260918649E+04  0.00000000000E+00 0.  1.
        -13    1    3    3    0    0 -0.79211941412E+01 -0.20272544353E+03 -0.26822822484E+03  0.33631344215E+03  0.00000000000E+00 0. -1.
         22    1    1    2    0    0  0.24605001171E+03  0.12336815832E+04  0.74572620400E+02  0.12601872610E+04  0.00000000000E+00 0.  1.
<mgrwt>
<rscale>  0 0.29807997E+04</rscale>
<asrwt>0</asrwt>
<pdfrwt beam="1">  1        2 0.39265752E+00 0.29807997E+04</pdfrwt>
<pdfrwt beam="2">  1       -2 0.13389518E+00 0.29807997E+04</pdfrwt>
<totfact> 0.11208078E+00</totfact>
</mgrwt>
</event>
<event>
 6    1  0.1603085E-006  0.1767199E+04  0.7818608E-02  0.8723940E-01
          2   -1    0    0  501    0  0.00000000000E+00  0.00000000000E+00  0.17987111094E+04  0.17987111094E+04  0.00000000000E+00 0. -1.
         -2   -1    0    0    0  501 -0.00000000000E+00 -0.00000000000E+00 -0.43405991523E+03  0.43405991523E+03  0.00000000000E+00 0.  1.
         23    2    1    2    0    0 -0.74461872093E+02  0.79767846454E+03  0.11478186994E+04  0.14028000408E+04  0.92329218403E+02 0.  0.
         11    1    3    3    0    0 -0.12546291687E+02  0.39642607256E+03  0.63548105915E+03  0.74909760177E+03  0.00000000000E+00 0.  1.
        -11    1    3    3    0    0 -0.61915580405E+02  0.40125239197E+03  0.51233764023E+03  0.65370243901E+03  0.00000000000E+00 0. -1.
         22    1    1    2    0    0  0.74461872093E+02 -0.79767846454E+03  0.21683249475E+03  0.82997098380E+03  0.00000000000E+00 0.  1.
<mgrwt>
<rscale>  0 0.17671994E+04</rscale>
<asrwt>0</asrwt>
<pdfrwt beam="1">  1        2 0.27672478E+00 0.17671994E+04</pdfrwt>
<pdfrwt beam="2">  1       -2 0.66778450E-01 0.17671994E+04</pdfrwt>
<totfact> 0.16847478E+01</totfact>
</mgrwt>
</event>
<event>
 6    1  0.1603085E-006  0.4239246E+04  0.7818608E-02  0.7957948E-01
          1   -1    0    0  501    0  0.00000000000E+00  0.00000000000E+00  0.29497623806E+04  0.29497623806E+04  0.00000000000E+00 0. -1.
         -1   -1    0    0    0  501 -0.00000000000E+00 -0.00000000000E+00 -0.15231065789E+04  0.15231065789E+04  0.00000000000E+00 0.  1.
         23    2    1    2    0    0  0.15239936800E+04 -0.99910007929E+03 -0.42655840884E+03  0.18737997771E+04  0.91737796745E+02 0.  0.
         11    1    3    3    0    0  0.88526324542E+03 -0.58527406234E+03 -0.20205073174E+03  0.10803060862E+04  0.00000000000E+00 0.  1.
        -11    1    3    3    0    0  0.63873043457E+03 -0.41382601694E+03 -0.22450767710E+03  0.79349369085E+03  0.00000000000E+00 0. -1.
         22    1    1    2    0    0 -0.15239936800E+04  0.99910007929E+03  0.18532142105E+04  0.25990691825E+04  0.00000000000E+00 0. -1.
<mgrwt>
<rscale>  0 0.42392464E+04</rscale>
<asrwt>0</asrwt>
<pdfrwt beam="1">  1        1 0.45380960E+00 0.42392464E+04</pdfrwt>
<pdfrwt beam="2">  1       -1 0.23432409E+00 0.42392464E+04</pdfrwt>
<totfact> 0.44090690E-02</totfact>
</mgrwt>
</event>
<event>
 6    1  0.1603085E-006  0.1508899E+04  0.7818608E-02  0.8878557E-01
         -2   -1    0    0    0  501 -0.00000000000E+00  0.00000000000E+00  0.11492162812E+04  0.11492162812E+04  0.00000000000E+00 0.  1.
          2   -1    0    0  501    0  0.00000000000E+00 -0.00000000000E+00 -0.49528856419E+03  0.49528856419E+03  0.00000000000E+00 0. -1.
         23    2    1    2    0    0 -0.13623560044E+03  0.41829009642E+03  0.99044198630E+03  0.10906378965E+04  0.12242936506E+03 0.  0.
         13    1    3    3    0    0 -0.72799371288E+02  0.21092085611E+03  0.35588333996E+03  0.42004798257E+03  0.00000000000E+00 0.  1.
        -13    1    3    3    0    0 -0.63436229150E+02  0.20736924031E+03  0.63455864633E+03  0.67058991391E+03  0.00000000000E+00 0. -1.
         22    1    1    2    0    0  0.13623560044E+03 -0.41829009642E+03 -0.33651426933E+03  0.55386694887E+03  0.00000000000E+00 0. -1.
<mgrwt>
<rscale>  0 0.15088985E+04</rscale>
<asrwt>0</asrwt>
<pdfrwt beam="1">  1        2 0.76198241E-01 0.15088985E+04</pdfrwt>
<pdfrwt beam="2">  1       -2 0.17680250E+00 0.15088985E+04</pdfrwt>
<totfact> 0.11460730E+01</totfact>
</mgrwt>
</event>
<event>
 6    1  0.1659754E-006  0.2796564E+04  0.7818608E-02  0.8304336E-01
         -2   -1    0    0    0  501 -0.00000000000E+00  0.00000000000E+00  0.19790284917E+04  0.19790284917E+04  0.00000000000E+00 0.  1.
          2   -1    0    0  501    0  0.00000000000E+00 -0.00000000000E+00 -0.98795557111E+03  0.98795557111E+03  0.00000000000E+00 0. -1.
         23    2    1    2    0    0 -0.51412792177E+03 -0.74223471981E+03 -0.63458575009E+03  0.11074126034E+04  0.91780720390E+02 0.  0.
         11    1    3    3    0    0 -0.34753134206E+03 -0.53758516090E+03 -0.40388758314E+03  0.75690225178E+03  0.00000000000E+00 0. -1.
        -11    1    3    3    0    0 -0.16659657971E+03 -0.20464955891E+03 -0.23069816695E+03  0.35051035158E+03  0.00000000000E+00 0.  1.
         22    1    1    2    0    0  0.51412792177E+03  0.74223471981E+03  0.16256586707E+04  0.18595714594E+04  0.00000000000E+00 0.  1.
<mgrwt>
<rscale>  0 0.27965638E+04</rscale>
<asrwt>0</asrwt>
<pdfrwt beam="1">  1        2 0.15199317E+00 0.27965638E+04</pdfrwt>
<pdfrwt beam="2">  1       -2 0.30446592E+00 0.27965638E+04</pdfrwt>
<totfact> 0.66607061E-01</totfact>
</mgrwt>
</event>
<event>
 6    1  0.1603085E-006  0.1873821E+04  0.7818608E-02  0.8667998E-01
          1   -1    0    0  501    0  0.00000000000E+00  0.00000000000E+00  0.71762140834E+03  0.71762140834E+03  0.00000000000E+00 0. -1.
         -1   -1    0    0    0  501 -0.00000000000E+00 -0.00000000000E+00 -0.12232089312E+04  0.12232089312E+04  0.00000000000E+00 0.  1.
         23    2    1    2    0    0  0.73491454501E+03  0.51837906758E+03 -0.51697796532E+03  0.10414160921E+04  0.92005511679E+02 0.  0.
         11    1    3    3    0    0  0.43271197099E+03  0.32041724077E+03 -0.35885769495E+03  0.64705927337E+03  0.00000000000E+00 0. -1.
        -11    1    3    3    0    0  0.30220257402E+03  0.19796182681E+03 -0.15812027037E+03  0.39435681878E+03  0.00000000000E+00 0.  1.
         22    1    1    2    0    0 -0.73491454501E+03 -0.51837906758E+03  0.11390442489E+02  0.89941424736E+03  0.00000000000E+00 0. -1.
<mgrwt>
<rscale>  0 0.18738206E+04</rscale>
<asrwt>0</asrwt>
<pdfrwt beam="1">  1        1 0.11040329E+00 0.18738206E+04</pdfrwt>
<pdfrwt beam="2">  1       -1 0.18818599E+00 0.18738206E+04</pdfrwt>
<totfact> 0.44747184E+00</totfact>
</mgrwt>
</event>
<event>
 6    1  0.1603085E-006  0.2196587E+04  0.7818608E-02  0.8519850E-01
         -2   -1    0    0    0  501 -0.00000000000E+00  0.00000000000E+00  0.71685053176E+03  0.71685053176E+03  0.00000000000E+00 0.  1.
          2   -1    0    0  501    0  0.00000000000E+00 -0.00000000000E+00 -0.16827059938E+04  0.16827059938E+04  0.00000000000E+00 0. -1.
         23    2    1    2    0    0  0.10768653801E+04 -0.43762536980E+01 -0.25909249459E+03  0.11114679841E+04  0.92595682681E+02 0.  0.
         11    1    3    3    0    0  0.36957426472E+03  0.37671949071E+02 -0.68631688909E+02  0.37777588808E+03  0.00000000000E+00 0.  1.
        -11    1    3    3    0    0  0.70729111539E+03 -0.42048202769E+02 -0.19046080569E+03  0.73369209602E+03  0.00000000000E+00 0. -1.
         22    1    1    2    0    0 -0.10768653801E+04  0.43762536980E+01 -0.70676296745E+03  0.12880885415E+04  0.00000000000E+00 0. -1.
<mgrwt>
<rscale>  0 0.21965871E+04</rscale>
<asrwt>0</asrwt>
<pdfrwt beam="1">  1        2 0.25887785E+00 0.21965871E+04</pdfrwt>
<pdfrwt beam="2">  1       -2 0.11028470E+00 0.21965871E+04</pdfrwt>
<totfact> 0.59861121E+00</totfact>
</mgrwt>
</event>
<event>
 6    1  0.1603085E-006  0.1280515E+04  0.7818608E-02  0.9045161E-01
         -2   -1    0    0    0  501 -0.00000000000E+00  0.00000000000E+00  0.28315883238E+03  0.28315883238E+03  0.00000000000E+00 0.  1.
          2   -1    0    0  501    0  0.00000000000E+00 -0.00000000000E+00 -0.14477020206E+04  0.14477020206E+04  0.00000000000E+00 0. -1.
         23    2    1    2    0    0  0.39260788541E+02  0.13593509062E+03 -0.14248272288E+04  0.14346049836E+04  0.89101451950E+02 0.  0.
         11    1    3    3    0    0 -0.20619905125E+02  0.83408154615E+02 -0.83886075518E+03  0.84324935063E+03  0.00000000000E+00 0. -1.
        -11    1    3    3    0    0  0.59880693667E+02  0.52526936007E+02 -0.58596647359E+03  0.59135563297E+03  0.00000000000E+00 0.  1.
         22    1    1    2    0    0 -0.39260788541E+02 -0.13593509062E+03  0.26028404054E+03  0.29625586938E+03  0.00000000000E+00 0.  1.
<mgrwt>
<rscale>  0 0.12805149E+04</rscale>
<asrwt>0</asrwt>
<pdfrwt beam="1">  1        2 0.22272338E+00 0.12805149E+04</pdfrwt>
<pdfrwt beam="2">  1       -2 0.43562898E-01 0.12805149E+04</pdfrwt>
<totfact> 0.66625303E+01</totfact>
</mgrwt>
</event>
<event>
 6    1  0.1603085E-006  0.1926165E+04  0.7818608E-02  0.8641941E-01
         -2   -1    0    0    0  501 -0.00000000000E+00  0.00000000000E+00  0.67258480377E+03  0.67258480377E+03  0.00000000000E+00 0. -1.
          2   -1    0    0  501    0  0.00000000000E+00 -0.00000000000E+00 -0.13790493154E+04  0.13790493154E+04  0.00000000000E+00 0.  1.
         23    2    1    2    0    0  0.37173223252E+03  0.30031202236E+01 -0.12978410260E+04  0.13531213754E+04  0.91390680485E+02 0.  0.
         13    1    3    3    0    0  0.18924122784E+03  0.35914096191E+02 -0.76728348908E+03  0.79109166172E+03  0.00000000000E+00 0. -1.
        -13    1    3    3    0    0  0.18249100468E+03 -0.32910975968E+02 -0.53055753692E+03  0.56202971373E+03  0.00000000000E+00 0.  1.
         22    1    1    2    0    0 -0.37173223252E+03 -0.30031202236E+01  0.59137651436E+03  0.69851274373E+03  0.00000000000E+00 0. -1.
<mgrwt>
<rscale>  0 0.19261647E+04</rscale>
<asrwt>0</asrwt>
<pdfrwt beam="1">  1        2 0.21216143E+00 0.19261647E+04</pdfrwt>
<pdfrwt beam="2">  1       -2 0.10347459E+00 0.19261647E+04</pdfrwt>
<totfact> 0.10587468E+01</totfact>
</mgrwt>
</event>
<event>
 6    1  0.1603085E-006  0.1245402E+04  0.7818608E-02  0.9074019E-01
          4   -1    0    0  501    0  0.00000000000E+00  0.00000000000E+00  0.17289992990E+03  0.17289992990E+03  0.00000000000E+00 0.  1.
         -4   -1    0    0    0  501 -0.00000000000E+00 -0.00000000000E+00 -0.22426641873E+04  0.22426641873E+04  0.00000000000E+00 0. -1.
         23    2    1    2    0    0 -0.37302565801E+02 -0.61409332858E+03 -0.92078697102E+03  0.11122410942E+04  0.10358333863E+03 0.  0.
         11    1    3    3    0    0 -0.26775760368E+02 -0.26670531663E+03 -0.49212991524E+03  0.56039318406E+03  0.00000000000E+00 0. -1.
        -11    1    3    3    0    0 -0.10526805433E+02 -0.34738801195E+03 -0.42865705578E+03  0.55184791016E+03  0.00000000000E+00 0.  1.
         22    1    1    2    0    0  0.37302565801E+02  0.61409332858E+03 -0.11489772864E+04  0.13033230230E+04  0.00000000000E+00 0. -1.
<mgrwt>
<rscale>  0 0.12454019E+04</rscale>
<asrwt>0</asrwt>
<pdfrwt beam="1">  1        4 0.26599991E-01 0.12454019E+04</pdfrwt>
<pdfrwt beam="2">  1       -4 0.34502523E+00 0.12454019E+04</pdfrwt>
<totfact> 0.43326689E-01</totfact>
</mgrwt>
</event>
<event>
 6    1  0.1603085E-006  0.3482807E+04  0.7818608E-02  0.8117877E-01
         -2   -1    0    0    0  501 -0.00000000000E+00  0.00000000000E+00  0.94987106790E+03  0.94987106790E+03  0.00000000000E+00 0.  1.
          2   -1    0    0  501    0  0.00000000000E+00 -0.00000000000E+00 -0.31925231215E+04  0.31925231215E+04  0.00000000000E+00 0. -1.
         23    2    1    2    0    0 -0.85253823525E+03  0.15092627728E+04 -0.93815933506E+03  0.19729710374E+04  0.88182858318E+02 0.  0.
         13    1    3    3    0    0 -0.66637821279E+03  0.11386294652E+04 -0.74940013508E+03  0.15172796525E+04  0.00000000000E+00 0.  1.
        -13    1    3    3    0    0 -0.18616002246E+03  0.37063330762E+03 -0.18875919998E+03  0.45569138488E+03  0.00000000000E+00 0. -1.
         22    1    1    2    0    0  0.85253823525E+03 -0.15092627728E+04 -0.13044927186E+04  0.21694231521E+04  0.00000000000E+00 0.  1.
<mgrwt>
<rscale>  0 0.34828065E+04</rscale>
<asrwt>0</asrwt>
<pdfrwt beam="1">  1        2 0.49115739E+00 0.34828065E+04</pdfrwt>
<pdfrwt beam="2">  1       -2 0.14613401E+00 0.34828065E+04</pdfrwt>
<totfact> 0.34607333E-01</totfact>
</mgrwt>
</event>
<event>
 6    1  0.1603085E-006  0.2719780E+04  0.7818608E-02  0.8328615E-01
          1   -1    0    0  501    0  0.00000000000E+00  0.00000000000E+00  0.14140997366E+04  0.14140997366E+04  0.00000000000E+00 0. -1.
         -1   -1    0    0    0  501 -0.00000000000E+00 -0.00000000000E+00 -0.13077583871E+04  0.13077583871E+04  0.00000000000E+00 0.  1.
         23    2    1    2    0    0  0.53226891582E+03 -0.37473529647E+03  0.12455007494E+04  0.14098288255E+04  0.11228739517E+03 0.  0.
         13    1    3    3    0    0  0.25704045598E+03 -0.16355116777E+03  0.69911307497E+03  0.76261253076E+03  0.00000000000E+00 0. -1.
        -13    1    3    3    0    0  0.27522845984E+03 -0.21118412870E+03  0.54638767446E+03  0.64721629470E+03  0.00000000000E+00 0.  1.
         22    1    1    2    0    0 -0.53226891582E+03  0.37473529647E+03 -0.11391593999E+04  0.13120292983E+04  0.00000000000E+00 0.  1.
<mgrwt>
<rscale>  0 0.27197800E+04</rscale>
<asrwt>0</asrwt>
<pdfrwt beam="1">  1        1 0.21755381E+00 0.27197800E+04</pdfrwt>
<pdfrwt beam="2">  1       -1 0.20119360E+00 0.27197800E+04</pdfrwt>
<totfact> 0.96674321E-01</totfact>
</mgrwt>
</event>
<event>
 6    1  0.1603085E-006  0.1710613E+04  0.7818608E-02  0.8755335E-01
         -2   -1    0    0    0  501 -0.00000000000E+00  0.00000000000E+00  0.10157427629E+04  0.10157427629E+04  0.00000000000E+00 0.  1.
          2   -1    0    0  501    0  0.00000000000E+00 -0.00000000000E+00 -0.72021095856E+03  0.72021095856E+03  0.00000000000E+00 0. -1.
         23    2    1    2    0    0  0.24114686526E+03  0.77084494852E+03  0.42554777362E+03  0.91787188110E+03  0.95100668732E+02 0.  0.
         11    1    3    3    0    0  0.19117575046E+03  0.47527586546E+03  0.29250569439E+03  0.58991092303E+03  0.00000000000E+00 0.  1.
        -11    1    3    3    0    0  0.49971114805E+02  0.29556908306E+03  0.13304207923E+03  0.32796095807E+03  0.00000000000E+00 0. -1.
         22    1    1    2    0    0 -0.24114686526E+03 -0.77084494852E+03 -0.13001596926E+03  0.81808184037E+03  0.00000000000E+00 0. -1.
<mgrwt>
<rscale>  0 0.17106128E+04</rscale>
<asrwt>0</asrwt>
<pdfrwt beam="1">  1        2 0.11080169E+00 0.17106128E+04</pdfrwt>
<pdfrwt beam="2">  1       -2 0.15626812E+00 0.17106128E+04</pdfrwt>
<totfact> 0.10083079E+01</totfact>
</mgrwt>
</event>
<event>
 6    1  0.1603085E-006  0.2287378E+04  0.7818608E-02  0.8482914E-01
         -1   -1    0    0    0  501 -0.00000000000E+00  0.00000000000E+00  0.96127755368E+03  0.96127755368E+03  0.00000000000E+00 0.  1.
          1   -1    0    0  501    0  0.00000000000E+00 -0.00000000000E+00 -0.13607148683E+04  0.13607148683E+04  0.00000000000E+00 0. -1.
         23    2    1    2    0    0  0.72870935048E+03  0.24469817137E+03 -0.10572729025E+04  0.13102403906E+04  0.89495129800E+02 0.  0.
         13    1    3    3    0    0  0.18645488568E+03  0.26043552758E+02 -0.28597206916E+03  0.34237949029E+03  0.00000000000E+00 0.  1.
        -13    1    3    3    0    0  0.54225446480E+03  0.21865461861E+03 -0.77130083332E+03  0.96786090029E+03  0.00000000000E+00 0. -1.
         22    1    1    2    0    0 -0.72870935048E+03 -0.24469817137E+03  0.65783558781E+03  0.10117520314E+04  0.00000000000E+00 0.  1.
<mgrwt>
<rscale>  0 0.22873781E+04</rscale>
<asrwt>0</asrwt>
<pdfrwt beam="1">  1        1 0.20934075E+00 0.22873781E+04</pdfrwt>
<pdfrwt beam="2">  1       -1 0.14788885E+00 0.22873781E+04</pdfrwt>
<totfact> 0.26860748E+00</totfact>
</mgrwt>
</event>
<event>
 6    1  0.1603085E-006  0.2216250E+04  0.7818608E-02  0.8511695E-01
         -1   -1    0    0    0  501 -0.00000000000E+00  0.00000000000E+00  0.11109269635E+04  0.11109269635E+04  0.00000000000E+00 0.  1.
          1   -1    0    0  501    0  0.00000000000E+00 -0.00000000000E+00 -0.11053298429E+04  0.11053298429E+04  0.00000000000E+00 0. -1.
         23    2    1    2    0    0  0.29558093872E+03  0.10397341851E+04 -0.23247424656E+03  0.11094175034E+04  0.91365499531E+02 0.  0.
         11    1    3    3    0    0  0.25939954896E+03  0.80642073385E+03 -0.15695823601E+03  0.86153259592E+03  0.00000000000E+00 0. -1.
        -11    1    3    3    0    0  0.36181389761E+02  0.23331345123E+03 -0.75516010551E+02  0.24788490744E+03  0.00000000000E+00 0.  1.
         22    1    1    2    0    0 -0.29558093872E+03 -0.10397341851E+04  0.23807136711E+03  0.11068393031E+04  0.00000000000E+00 0.  1.
<mgrwt>
<rscale>  0 0.22162497E+04</rscale>
<asrwt>0</asrwt>
<pdfrwt beam="1">  1        1 0.17005075E+00 0.22162497E+04</pdfrwt>
<pdfrwt beam="2">  1       -1 0.17091184E+00 0.22162497E+04</pdfrwt>
<totfact> 0.27712479E+00</totfact>
</mgrwt>
</event>
<event>
 6    1  0.1603085E-006  0.3965426E+04  0.7818608E-02  0.8011558E-01
          2   -1    0    0  501    0  0.00000000000E+00  0.00000000000E+00  0.28113356427E+04  0.28113356427E+04  0.00000000000E+00 0. -1.
         -2   -1    0    0    0  501 -0.00000000000E+00 -0.00000000000E+00 -0.13983211761E+04  0.13983211761E+04  0.00000000000E+00 0.  1.
         23    2    1    2    0    0  0.65062414094E+03  0.82590793866E+03  0.24900861197E+04  0.27044926942E+04  0.91192944965E+02 0.  0.
         13    1    3    3    0    0  0.48734032039E+03  0.65625603797E+03  0.18529922776E+04  0.20252784885E+04  0.00000000000E+00 0. -1.
        -13    1    3    3    0    0  0.16328382056E+03  0.16965190070E+03  0.63709384214E+03  0.67921420565E+03  0.00000000000E+00 0.  1.
         22    1    1    2    0    0 -0.65062414094E+03 -0.82590793866E+03 -0.10770716532E+04  0.15051641246E+04  0.00000000000E+00 0.  1.
<mgrwt>
<rscale>  0 0.39654257E+04</rscale>
<asrwt>0</asrwt>
<pdfrwt beam="1">  1        2 0.43251317E+00 0.39654257E+04</pdfrwt>
<pdfrwt beam="2">  1       -2 0.21512634E+00 0.39654257E+04</pdfrwt>
<totfact> 0.19108101E-01</totfact>
</mgrwt>
</event>
<event>
 6    1  0.1603085E-006  0.1816909E+04  0.7818608E-02  0.8697359E-01
          2   -1    0    0  501    0  0.00000000000E+00  0.00000000000E+00  0.45459147629E+03  0.45459147629E+03  0.00000000000E+00 0. -1.
         -2   -1    0    0    0  501 -0.00000000000E+00 -0.00000000000E+00 -0.18154540968E+04  0.18154540968E+04  0.00000000000E+00 0.  1.
         23    2    1    2    0    0  0.11378920278E+03 -0.88371004733E+03 -0.88820820023E+03  0.12614358213E+04  0.91733821097E+02 0.  0.
         13    1    3    3    0    0  0.19816043292E+02 -0.46409751096E+03 -0.49365295386E+03  0.67784394524E+03  0.00000000000E+00 0. -1.
        -13    1    3    3    0    0  0.93973159484E+02 -0.41961253637E+03 -0.39455524637E+03  0.58359187607E+03  0.00000000000E+00 0.  1.
         22    1    1    2    0    0 -0.11378920278E+03  0.88371004733E+03 -0.47265442033E+03  0.10086097518E+04  0.00000000000E+00 0. -1.
<mgrwt>
<rscale>  0 0.18169094E+04</rscale>
<asrwt>0</asrwt>
<pdfrwt beam="1">  1        2 0.69937151E-01 0.18169094E+04</pdfrwt>
<pdfrwt beam="2">  1       -2 0.27930063E+00 0.18169094E+04</pdfrwt>
<totfact> 0.27586186E+00</totfact>
</mgrwt>
</event>
<event>
 6    1  0.1603085E-006  0.2180892E+04  0.7818608E-02  0.8526423E-01
         -2   -1    0    0    0  501 -0.00000000000E+00  0.00000000000E+00  0.12131977699E+04  0.12131977699E+04  0.00000000000E+00 0. -1.
          2   -1    0    0  501    0  0.00000000000E+00 -0.00000000000E+00 -0.98011464838E+03  0.98011464838E+03  0.00000000000E+00 0.  1.
         23    2    1    2    0    0 -0.29580537972E+03  0.80779062087E+03  0.78672258527E+03  0.11703054947E+04  0.10322797502E+03 0.  0.
         11    1    3    3    0    0 -0.26367687834E+03  0.75594911765E+03  0.75937452645E+03  0.11034646510E+04  0.00000000000E+00 0. -1.
        -11    1    3    3    0    0 -0.32128501374E+02  0.51841503219E+02  0.27348058827E+02  0.66840843637E+02  0.00000000000E+00 0.  1.
         22    1    1    2    0    0  0.29580537972E+03 -0.80779062087E+03 -0.55363946379E+03  0.10230069236E+04  0.00000000000E+00 0.  1.
<mgrwt>
<rscale>  0 0.21808924E+04</rscale>
<asrwt>0</asrwt>
<pdfrwt beam="1">  1        2 0.15078687E+00 0.21808924E+04</pdfrwt>
<pdfrwt beam="2">  1       -2 0.18664581E+00 0.21808924E+04</pdfrwt>
<totfact> 0.38776218E+00</totfact>
</mgrwt>
</event>
<event>
 6    1  0.1603085E-006  0.1432256E+04  0.7818608E-02  0.8930795E-01
         -2   -1    0    0    0  501 -0.00000000000E+00  0.00000000000E+00  0.76605967151E+03  0.76605967151E+03  0.00000000000E+00 0.  1.
          2   -1    0    0  501    0  0.00000000000E+00 -0.00000000000E+00 -0.66945102463E+03  0.66945102463E+03  0.00000000000E+00 0. -1.
         23    2    1    2    0    0  0.78336927103E+02 -0.63063300037E+03  0.37281800790E+03  0.74259925416E+03  0.92874808031E+02 0.  0.
         13    1    3    3    0    0  0.43338176387E+00 -0.16719693671E+03  0.14040074048E+03  0.21832858584E+03  0.00000000000E+00 0. -1.
        -13    1    3    3    0    0  0.77903545339E+02 -0.46343606365E+03  0.23241726742E+03  0.52427066832E+03  0.00000000000E+00 0.  1.
         22    1    1    2    0    0 -0.78336927103E+02  0.63063300037E+03 -0.27620936102E+03  0.69291144197E+03  0.00000000000E+00 0. -1.
<mgrwt>
<rscale>  0 0.14322562E+04</rscale>
<asrwt>0</asrwt>
<pdfrwt beam="1">  1        2 0.10299247E+00 0.14322562E+04</pdfrwt>
<pdfrwt beam="2">  1       -2 0.11785533E+00 0.14322562E+04</pdfrwt>
<totfact> 0.23366370E+01</totfact>
</mgrwt>
</event>
<event>
 6    1  0.1603085E-006  0.5527776E+04  0.7818608E-02  0.7751879E-01
          1   -1    0    0  501    0  0.00000000000E+00  0.00000000000E+00  0.30766351695E+04  0.30766351695E+04  0.00000000000E+00 0. -1.
         -1   -1    0    0    0  501 -0.00000000000E+00 -0.00000000000E+00 -0.24829326200E+04  0.24829326200E+04  0.00000000000E+00 0.  1.
         23    2    1    2    0    0  0.11562477637E+04  0.19741085509E+04  0.18552293249E+04  0.29470090309E+04  0.94725491201E+02 0.  0.
         11    1    3    3    0    0  0.38200155720E+03  0.73428791807E+03  0.69488874729E+03  0.10807286003E+04  0.00000000000E+00 0.  1.
        -11    1    3    3    0    0  0.77424620645E+03  0.12398206329E+04  0.11603405776E+04  0.18662804307E+04  0.00000000000E+00 0. -1.
         22    1    1    2    0    0 -0.11562477637E+04 -0.19741085509E+04 -0.12615267754E+04  0.26125587586E+04  0.00000000000E+00 0.  1.
<mgrwt>
<rscale>  0 0.55277763E+04</rscale>
<asrwt>0</asrwt>
<pdfrwt beam="1">  1        1 0.47332849E+00 0.55277763E+04</pdfrwt>
<pdfrwt beam="2">  1       -1 0.38198963E+00 0.55277763E+04</pdfrwt>
<totfact> 0.34508918E-03</totfact>
</mgrwt>
</event>
<event>
 6    1  0.1603085E-006  0.1100825E+04  0.7818608E-02  0.9204388E-01
         -2   -1    0    0    0  501 -0.00000000000E+00  0.00000000000E+00  0.11012222849E+04  0.11012222849E+04  0.00000000000E+00 0.  1.
          2   -1    0    0  501    0  0.00000000000E+00 -0.00000000000E+00 -0.27510705744E+03  0.27510705744E+03  0.00000000000E+00 0. -1.
         23    2    1    2    0    0 -0.40746261863E+03 -0.20109635932E+03  0.79581811734E+03  0.92093561574E+03  0.91271031191E+02 0.  0.
         13    1    3    3    0    0 -0.15285703486E+03 -0.11349120791E+03  0.38890703900E+03  0.43300601885E+03  0.00000000000E+00 0. -1.
        -13    1    3    3    0    0 -0.25460558377E+03 -0.87605151413E+02  0.40691107834E+03  0.48792959688E+03  0.00000000000E+00 0.  1.
         22    1    1    2    0    0  0.40746261863E+03  0.20109635932E+03  0.30297110076E+02  0.45539372657E+03  0.00000000000E+00 0. -1.
<mgrwt>
<rscale>  0 0.11008252E+04</rscale>
<asrwt>0</asrwt>
<pdfrwt beam="1">  1        2 0.42324163E-01 0.11008252E+04</pdfrwt>
<pdfrwt beam="2">  1       -2 0.16941881E+00 0.11008252E+04</pdfrwt>
<totfact> 0.25808303E+01</totfact>
</mgrwt>
</event>
<event>
 6    1  0.1603085E-006  0.3166572E+04  0.7818608E-02  0.8197702E-01
          1   -1    0    0  501    0  0.00000000000E+00  0.00000000000E+00  0.39089357604E+04  0.39089357604E+04  0.00000000000E+00 0. -1.
         -1   -1    0    0    0  501 -0.00000000000E+00 -0.00000000000E+00 -0.64129845160E+03  0.64129845160E+03  0.00000000000E+00 0.  1.
         23    2    1    2    0    0  0.15761470983E+04 -0.12704259154E+03  0.17076087067E+04  0.23289578368E+04  0.87963712285E+02 0.  0.
         13    1    3    3    0    0  0.62863681467E+03 -0.35766812330E+02  0.62087563184E+03  0.88427940145E+03  0.00000000000E+00 0. -1.
        -13    1    3    3    0    0  0.94751028367E+03 -0.91275779210E+02  0.10867330749E+04  0.14446784354E+04  0.00000000000E+00 0.  1.
         22    1    1    2    0    0 -0.15761470983E+04  0.12704259154E+03  0.15600286020E+04  0.22212763752E+04  0.00000000000E+00 0.  1.
<mgrwt>
<rscale>  0 0.31665719E+04</rscale>
<asrwt>0</asrwt>
<pdfrwt beam="1">  1        1 0.60137472E+00 0.31665719E+04</pdfrwt>
<pdfrwt beam="2">  1       -1 0.98661303E-01 0.31665719E+04</pdfrwt>
<totfact> 0.94842291E-02</totfact>
</mgrwt>
</event>
<event>
 6    1  0.1603085E-006  0.1208670E+04  0.7818608E-02  0.9105301E-01
         -2   -1    0    0    0  501 -0.00000000000E+00  0.00000000000E+00  0.38156265141E+03  0.38156265141E+03  0.00000000000E+00 0.  1.
          2   -1    0    0  501    0  0.00000000000E+00 -0.00000000000E+00 -0.95717172671E+03  0.95717172671E+03  0.00000000000E+00 0. -1.
         23    2    1    2    0    0 -0.55135122537E+03 -0.16899549736E+03 -0.47642586324E+03  0.75359767495E+03  0.91543436001E+02 0.  0.
         11    1    3    3    0    0 -0.15963437383E+03 -0.84397227789E+02 -0.18149449800E+03  0.25602007376E+03  0.00000000000E+00 0. -1.
        -11    1    3    3    0    0 -0.39171685154E+03 -0.84598269568E+02 -0.29493136525E+03  0.49757760118E+03  0.00000000000E+00 0.  1.
         22    1    1    2    0    0  0.55135122537E+03  0.16899549736E+03 -0.99183212060E+02  0.58513670317E+03  0.00000000000E+00 0.  1.
<mgrwt>
<rscale>  0 0.12086703E+04</rscale>
<asrwt>0</asrwt>
<pdfrwt beam="1">  1        2 0.14725719E+00 0.12086703E+04</pdfrwt>
<pdfrwt beam="2">  1       -2 0.58701946E-01 0.12086703E+04</pdfrwt>
<totfact> 0.71848942E+01</totfact>
</mgrwt>
</event>
<event>
 6    1  0.1603085E-006  0.1694607E+04  0.7818608E-02  0.8764446E-01
         -1   -1    0    0    0  501 -0.00000000000E+00  0.00000000000E+00  0.67629477044E+03  0.67629477044E+03  0.00000000000E+00 0.  1.
          1   -1    0    0  501    0  0.00000000000E+00 -0.00000000000E+00 -0.10615543034E+04  0.10615543034E+04  0.00000000000E+00 0. -1.
         23    2    1    2    0    0  0.42922795907E+03  0.72043532129E+03 -0.29793230848E+03  0.89470629998E+03  0.92043521178E+02 0.  0.
         11    1    3    3    0    0  0.15507211727E+03  0.18587051654E+03 -0.10345939665E+03  0.26324714097E+03  0.00000000000E+00 0. -1.
        -11    1    3    3    0    0  0.27415584180E+03  0.53456480475E+03 -0.19447291182E+03  0.63145915901E+03  0.00000000000E+00 0.  1.
         22    1    1    2    0    0 -0.42922795907E+03 -0.72043532129E+03 -0.87327224512E+02  0.84314277388E+03  0.00000000000E+00 0.  1.
<mgrwt>
<rscale>  0 0.16946075E+04</rscale>
<asrwt>0</asrwt>
<pdfrwt beam="1">  1        1 0.16331605E+00 0.16946075E+04</pdfrwt>
<pdfrwt beam="2">  1       -1 0.10404535E+00 0.16946075E+04</pdfrwt>
<totfact> 0.11229282E+01</totfact>
</mgrwt>
</event>
<event>
 6    1  0.1603085E-006  0.2194700E+04  0.7818608E-02  0.8520637E-01
         -3   -1    0    0    0  501 -0.00000000000E+00  0.00000000000E+00  0.57879510115E+03  0.57879510115E+03  0.00000000000E+00 0.  1.
          3   -1    0    0  501    0  0.00000000000E+00 -0.00000000000E+00 -0.20804900595E+04  0.20804900595E+04  0.00000000000E+00 0. -1.
         23    2    1    2    0    0  0.85347544946E+03 -0.66244902200E+03 -0.97173169395E+03  0.14559065373E+04  0.90234752832E+02 0.  0.
         13    1    3    3    0    0  0.64541871361E+03 -0.45078811904E+03 -0.69660547565E+03  0.10512061800E+04  0.00000000000E+00 0.  1.
        -13    1    3    3    0    0  0.20805673584E+03 -0.21166090296E+03 -0.27512621830E+03  0.40470035726E+03  0.00000000000E+00 0. -1.
         22    1    1    2    0    0 -0.85347544946E+03  0.66244902200E+03 -0.52996326436E+03  0.12033786234E+04  0.00000000000E+00 0.  1.
<mgrwt>
<rscale>  0 0.21947004E+04</rscale>
<asrwt>0</asrwt>
<pdfrwt beam="1">  1        3 0.32007539E+00 0.21947004E+04</pdfrwt>
<pdfrwt beam="2">  1       -3 0.89045402E-01 0.21947004E+04</pdfrwt>
<totfact> 0.81880559E-02</totfact>
</mgrwt>
</event>
<event>
 6    1  0.1603085E-006  0.2118356E+04  0.7818608E-02  0.8553200E-01
         -1   -1    0    0    0  501 -0.00000000000E+00  0.00000000000E+00  0.55877845629E+03  0.55877845629E+03  0.00000000000E+00 0.  1.
          1   -1    0    0  501    0  0.00000000000E+00 -0.00000000000E+00 -0.20076972954E+04  0.20076972954E+04  0.00000000000E+00 0. -1.
         23    2    1    2    0    0 -0.66467639832E+03 -0.66916634963E+03 -0.14697918492E+03  0.95879879995E+03  0.90077411311E+02 0.  0.
         11    1    3    3    0    0 -0.46813117955E+02 -0.23598508193E+02  0.38399750076E+01  0.52565226240E+02  0.00000000000E+00 0. -1.
        -11    1    3    3    0    0 -0.61786328036E+03 -0.64556784144E+03 -0.15081915993E+03  0.90623357371E+03  0.00000000000E+00 0.  1.
         22    1    1    2    0    0  0.66467639832E+03  0.66916634963E+03 -0.13019396542E+04  0.16076769517E+04  0.00000000000E+00 0. -1.
<mgrwt>
<rscale>  0 0.21183560E+04</rscale>
<asrwt>0</asrwt>
<pdfrwt beam="1">  1        1 0.30887651E+00 0.21183560E+04</pdfrwt>
<pdfrwt beam="2">  1       -1 0.85965916E-01 0.21183560E+04</pdfrwt>
<totfact> 0.36110381E+00</totfact>
</mgrwt>
</event>
<event>
 6    1  0.1603085E-006  0.2191545E+04  0.7818608E-02  0.8521955E-01
          2   -1    0    0  501    0  0.00000000000E+00  0.00000000000E+00  0.10474792880E+04  0.10474792880E+04  0.00000000000E+00 0. -1.
         -2   -1    0    0    0  501 -0.00000000000E+00 -0.00000000000E+00 -0.11462926559E+04  0.11462926559E+04  0.00000000000E+00 0.  1.
         23    2    1    2    0    0  0.26735512477E+03 -0.57062261187E+03  0.84550343440E+03  0.10585084717E+04  0.92060845439E+02 0.  0.
         13    1    3    3    0    0  0.92658094984E+02 -0.30496579876E+03  0.41151020834E+03  0.52050966615E+03  0.00000000000E+00 0. -1.
        -13    1    3    3    0    0  0.17469702978E+03 -0.26565681311E+03  0.43399322606E+03  0.53799880560E+03  0.00000000000E+00 0.  1.
         22    1    1    2    0    0 -0.26735512477E+03  0.57062261187E+03 -0.94431680234E+03  0.11352634721E+04  0.00000000000E+00 0. -1.
<mgrwt>
<rscale>  0 0.21915454E+04</rscale>
<asrwt>0</asrwt>
<pdfrwt beam="1">  1        2 0.16115066E+00 0.21915454E+04</pdfrwt>
<pdfrwt beam="2">  1       -2 0.17635272E+00 0.21915454E+04</pdfrwt>
<totfact> 0.41304596E+00</totfact>
</mgrwt>
</event>
<event>
 6    1  0.1603085E-006  0.1379975E+04  0.7818608E-02  0.8968442E-01
         -1   -1    0    0    0  501 -0.00000000000E+00  0.00000000000E+00  0.63194983151E+03  0.63194983151E+03  0.00000000000E+00 0.  1.
          1   -1    0    0  501    0  0.00000000000E+00 -0.00000000000E+00 -0.75335549658E+03  0.75335549658E+03  0.00000000000E+00 0. -1.
         23    2    1    2    0    0  0.48173528546E+03  0.42954166125E+03  0.17525813963E+03  0.67496432756E+03  0.91030236525E+02 0.  0.
         13    1    3    3    0    0  0.27100614246E+03  0.18326701934E+03  0.74412099074E+02  0.33551198208E+03  0.00000000000E+00 0. -1.
        -13    1    3    3    0    0  0.21072914301E+03  0.24627464191E+03  0.10084604055E+03  0.33945234548E+03  0.00000000000E+00 0.  1.
         22    1    1    2    0    0 -0.48173528546E+03 -0.42954166125E+03 -0.29666380470E+03  0.71034100053E+03  0.00000000000E+00 0. -1.
<mgrwt>
<rscale>  0 0.13799752E+04</rscale>
<asrwt>0</asrwt>
<pdfrwt beam="1">  1        1 0.11590085E+00 0.13799752E+04</pdfrwt>
<pdfrwt beam="2">  1       -1 0.97223051E-01 0.13799752E+04</pdfrwt>
<totfact> 0.24149445E+01</totfact>
</mgrwt>
</event>
<event>
 6    1  0.1603085E-006  0.4330770E+04  0.7818608E-02  0.7940953E-01
         -2   -1    0    0    0  501 -0.00000000000E+00  0.00000000000E+00  0.19535348155E+04  0.19535348155E+04  0.00000000000E+00 0.  1.
          2   -1    0    0  501    0  0.00000000000E+00 -0.00000000000E+00 -0.24002090644E+04  0.24002090644E+04  0.00000000000E+00 0. -1.
         23    2    1    2    0    0 -0.21497185691E+04  0.21286155987E+03 -0.87672293705E+02  0.21638848950E+04  0.90063520750E+02 0.  0.
         13    1    3    3    0    0 -0.13656108873E+04  0.91872387968E+02 -0.60322857566E+02  0.13700264517E+04  0.00000000000E+00 0.  1.
        -13    1    3    3    0    0 -0.78410768172E+03  0.12098917190E+03 -0.27349436140E+02  0.79385844324E+03  0.00000000000E+00 0. -1.
         22    1    1    2    0    0  0.21497185691E+04 -0.21286155987E+03 -0.35900195526E+03  0.21898589849E+04  0.00000000000E+00 0. -1.
<mgrwt>
<rscale>  0 0.43307699E+04</rscale>
<asrwt>0</asrwt>
<pdfrwt beam="1">  1        2 0.36926293E+00 0.43307699E+04</pdfrwt>
<pdfrwt beam="2">  1       -2 0.30054382E+00 0.43307699E+04</pdfrwt>
<totfact> 0.96291720E-02</totfact>
</mgrwt>
</event>
<event>
 6    1  0.1603085E-006  0.1590389E+04  0.7818608E-02  0.8826474E-01
          2   -1    0    0  501    0  0.00000000000E+00  0.00000000000E+00  0.10295792295E+04  0.10295792295E+04  0.00000000000E+00 0. -1.
         -2   -1    0    0    0  501 -0.00000000000E+00 -0.00000000000E+00 -0.61416759363E+03  0.61416759363E+03  0.00000000000E+00 0.  1.
         23    2    1    2    0    0 -0.20806315533E+03 -0.20230187998E+03 -0.55379400041E+03  0.63202754753E+03  0.92491614182E+02 0.  0.
         11    1    3    3    0    0 -0.64703904021E+02 -0.12469701726E+03 -0.22994381167E+03  0.26946260934E+03  0.00000000000E+00 0.  1.
        -11    1    3    3    0    0 -0.14335925131E+03 -0.77604862723E+02 -0.32385018874E+03  0.36256493818E+03  0.00000000000E+00 0. -1.
         22    1    1    2    0    0  0.20806315533E+03  0.20230187998E+03  0.96920563630E+03  0.10117192756E+04  0.00000000000E+00 0. -1.
<mgrwt>
<rscale>  0 0.15903889E+04</rscale>
<asrwt>0</asrwt>
<pdfrwt beam="1">  1        2 0.15839680E+00 0.15903889E+04</pdfrwt>
<pdfrwt beam="2">  1       -2 0.94487322E-01 0.15903889E+04</pdfrwt>
<totfact> 0.21847365E+01</totfact>
</mgrwt>
</event>
<event>
 6    1  0.1603085E-006  0.2374570E+04  0.7818608E-02  0.8449086E-01
         -1   -1    0    0    0  501 -0.00000000000E+00  0.00000000000E+00  0.64988582059E+03  0.64988582059E+03  0.00000000000E+00 0.  1.
          1   -1    0    0  501    0  0.00000000000E+00 -0.00000000000E+00 -0.21690657747E+04  0.21690657747E+04  0.00000000000E+00 0. -1.
         23    2    1    2    0    0 -0.35233775393E+02 -0.11579064326E+04 -0.46173003421E+03  0.12504526126E+04  0.91915103878E+02 0.  0.
         13    1    3    3    0    0 -0.52697313042E+02 -0.10869392787E+04 -0.42123155214E+03  0.11668976060E+04  0.00000000000E+00 0.  1.
        -13    1    3    3    0    0  0.17463537649E+02 -0.70967153927E+02 -0.40498482078E+02  0.83555006638E+02  0.00000000000E+00 0. -1.
         22    1    1    2    0    0  0.35233775393E+02  0.11579064326E+04 -0.10574499199E+04  0.15684989827E+04  0.00000000000E+00 0. -1.
<mgrwt>
<rscale>  0 0.23745695E+04</rscale>
<asrwt>0</asrwt>
<pdfrwt beam="1">  1        1 0.33370242E+00 0.23745695E+04</pdfrwt>
<pdfrwt beam="2">  1       -1 0.99982436E-01 0.23745695E+04</pdfrwt>
<totfact> 0.19579702E+00</totfact>
</mgrwt>
</event>
<event>
 6    1  0.1603085E-006  0.2788826E+04  0.7818608E-02  0.8306746E-01
         -2   -1    0    0    0  501 -0.00000000000E+00  0.00000000000E+00  0.97519304905E+03  0.97519304905E+03  0.00000000000E+00 0.  1.
          2   -1    0    0  501    0  0.00000000000E+00 -0.00000000000E+00 -0.19938484109E+04  0.19938484109E+04  0.00000000000E+00 0. -1.
         23    2    1    2    0    0  0.83905366431E+03  0.44264223660E+03  0.57611571142E+03  0.11134450660E+04  0.88923566838E+02 0.  0.
         13    1    3    3    0    0  0.66703153380E+03  0.30999707642E+03  0.44042744783E+03  0.85732467086E+03  0.00000000000E+00 0. -1.
        -13    1    3    3    0    0  0.17202213052E+03  0.13264516019E+03  0.13568826359E+03  0.25612039510E+03  0.00000000000E+00 0.  1.
         22    1    1    2    0    0 -0.83905366431E+03 -0.44264223660E+03 -0.15947710732E+04  0.18555963939E+04  0.00000000000E+00 0. -1.
<mgrwt>
<rscale>  0 0.27888256E+04</rscale>
<asrwt>0</asrwt>
<pdfrwt beam="1">  1        2 0.30674591E+00 0.27888256E+04</pdfrwt>
<pdfrwt beam="2">  1       -2 0.15002970E+00 0.27888256E+04</pdfrwt>
<totfact> 0.17564873E+00</totfact>
</mgrwt>
</event>
<event>
 6    1  0.1603085E-006  0.1576695E+04  0.7818608E-02  0.8834995E-01
         -2   -1    0    0    0  501 -0.00000000000E+00  0.00000000000E+00  0.28378823485E+03  0.28378823485E+03  0.00000000000E+00 0.  1.
          2   -1    0    0  501    0  0.00000000000E+00 -0.00000000000E+00 -0.21899839738E+04  0.21899839738E+04  0.00000000000E+00 0. -1.
         23    2    1    2    0    0  0.78495067291E+03 -0.15727014187E+02 -0.90835394096E+03  0.12040938432E+04  0.91324713629E+02 0.  0.
         11    1    3    3    0    0  0.44772987346E+03 -0.50302913539E+02 -0.49031167131E+03  0.66588133907E+03  0.00000000000E+00 0. -1.
        -11    1    3    3    0    0  0.33722079945E+03  0.34575899353E+02 -0.41804226965E+03  0.53821250414E+03  0.00000000000E+00 0.  1.
         22    1    1    2    0    0 -0.78495067291E+03  0.15727014187E+02 -0.99784179798E+03  0.12696783654E+04  0.00000000000E+00 0. -1.
<mgrwt>
<rscale>  0 0.15766949E+04</rscale>
<asrwt>0</asrwt>
<pdfrwt beam="1">  1        2 0.33692061E+00 0.15766949E+04</pdfrwt>
<pdfrwt beam="2">  1       -2 0.43659728E-01 0.15766949E+04</pdfrwt>
<totfact> 0.25019641E+01</totfact>
</mgrwt>
</event>
<event>
 6    1  0.1603085E-006  0.4341882E+04  0.7818608E-02  0.7938919E-01
          2   -1    0    0  501    0  0.00000000000E+00  0.00000000000E+00  0.18862618060E+04  0.18862618060E+04  0.00000000000E+00 0. -1.
         -2   -1    0    0    0  501 -0.00000000000E+00 -0.00000000000E+00 -0.24985846531E+04  0.24985846531E+04  0.00000000000E+00 0.  1.
         23    2    1    2    0    0 -0.90488380398E+03 -0.18255378431E+04 -0.10602276384E+04  0.22986964603E+04  0.92301984688E+02 0.  0.
         11    1    3    3    0    0 -0.22940760738E+03 -0.38145300086E+03 -0.21780950272E+03  0.49555546779E+03  0.00000000000E+00 0. -1.
        -11    1    3    3    0    0 -0.67547619660E+03 -0.14440848422E+04 -0.84241813565E+03  0.18031409925E+04  0.00000000000E+00 0.  1.
         22    1    1    2    0    0  0.90488380398E+03  0.18255378431E+04  0.44790479127E+03  0.20861499987E+04  0.00000000000E+00 0. -1.
<mgrwt>
<rscale>  0 0.43418820E+04</rscale>
<asrwt>0</asrwt>
<pdfrwt beam="1">  1        2 0.29019412E+00 0.43418820E+04</pdfrwt>
<pdfrwt beam="2">  1       -2 0.38439764E+00 0.43418820E+04</pdfrwt>
<totfact> 0.55609542E-02</totfact>
</mgrwt>
</event>
<event>
 6    1  0.1603085E-006  0.2115301E+04  0.7818608E-02  0.8554533E-01
         -2   -1    0    0    0  501 -0.00000000000E+00  0.00000000000E+00  0.93158565437E+03  0.93158565437E+03  0.00000000000E+00 0.  1.
          2   -1    0    0  501    0  0.00000000000E+00 -0.00000000000E+00 -0.12007751794E+04  0.12007751794E+04  0.00000000000E+00 0. -1.
         23    2    1    2    0    0 -0.45687729886E+03 -0.20912016636E+03 -0.10708676850E+04  0.11862340017E+04  0.89024702951E+02 0.  0.
         13    1    3    3    0    0 -0.40811189091E+03 -0.19818865717E+03 -0.10117994129E+04  0.11088607267E+04  0.00000000000E+00 0. -1.
        -13    1    3    3    0    0 -0.48765407953E+02 -0.10931509190E+02 -0.59068272109E+02  0.77373274946E+02  0.00000000000E+00 0.  1.
         22    1    1    2    0    0  0.45687729886E+03  0.20912016636E+03  0.80167815999E+03  0.94612683209E+03  0.00000000000E+00 0.  1.
<mgrwt>
<rscale>  0 0.21153013E+04</rscale>
<asrwt>0</asrwt>
<pdfrwt beam="1">  1        2 0.18473464E+00 0.21153013E+04</pdfrwt>
<pdfrwt beam="2">  1       -2 0.14332087E+00 0.21153013E+04</pdfrwt>
<totfact> 0.58839860E+00</totfact>
</mgrwt>
</event>
<event>
 6    1  0.1603085E-006  0.3511662E+04  0.7818608E-02  0.8111032E-01
         -1   -1    0    0    0  501 -0.00000000000E+00  0.00000000000E+00  0.17677734370E+04  0.17677734370E+04  0.00000000000E+00 0.  1.
          1   -1    0    0  501    0  0.00000000000E+00 -0.00000000000E+00 -0.17439695911E+04  0.17439695911E+04  0.00000000000E+00 0. -1.
         23    2    1    2    0    0  0.14329182785E+04  0.65422687554E+03  0.78483507460E+03  0.17623328050E+04  0.92645689187E+02 0.  0.
         11    1    3    3    0    0  0.64351796358E+03  0.28992308329E+03  0.40310816139E+03  0.81281421829E+03  0.00000000000E+00 0. -1.
        -11    1    3    3    0    0  0.78940031493E+03  0.36430379225E+03  0.38172691321E+03  0.94951858672E+03  0.00000000000E+00 0.  1.
         22    1    1    2    0    0 -0.14329182785E+04 -0.65422687554E+03 -0.76103122870E+03  0.17494102231E+04  0.00000000000E+00 0. -1.
<mgrwt>
<rscale>  0 0.35116624E+04</rscale>
<asrwt>0</asrwt>
<pdfrwt beam="1">  1        1 0.26830301E+00 0.35116624E+04</pdfrwt>
<pdfrwt beam="2">  1       -1 0.27196514E+00 0.35116624E+04</pdfrwt>
<totfact> 0.18189745E-01</totfact>
</mgrwt>
</event>
<event>
 6    1  0.1603085E-006  0.2092877E+04  0.7818608E-02  0.8564388E-01
         -2   -1    0    0    0  501 -0.00000000000E+00  0.00000000000E+00  0.11968037873E+04  0.11968037873E+04  0.00000000000E+00 0. -1.
          2   -1    0    0  501    0  0.00000000000E+00 -0.00000000000E+00 -0.91496487503E+03  0.91496487503E+03  0.00000000000E+00 0.  1.
         23    2    1    2    0    0 -0.31022474785E+03 -0.55276415051E+03 -0.69638892668E+03  0.94612836396E+03  0.91726460879E+02 0.  0.
         11    1    3    3    0    0 -0.27561190241E+03 -0.41662767028E+03 -0.52839650625E+03  0.72714744324E+03  0.00000000000E+00 0.  1.
        -11    1    3    3    0    0 -0.34612845439E+02 -0.13613648023E+03 -0.16799242043E+03  0.21898092072E+03  0.00000000000E+00 0. -1.
         22    1    1    2    0    0  0.31022474785E+03  0.55276415051E+03  0.97822783896E+03  0.11656402984E+04  0.00000000000E+00 0. -1.
<mgrwt>
<rscale>  0 0.20928769E+04</rscale>
<asrwt>0</asrwt>
<pdfrwt beam="1">  1        2 0.14076383E+00 0.20928769E+04</pdfrwt>
<pdfrwt beam="2">  1       -2 0.18412366E+00 0.20928769E+04</pdfrwt>
<totfact> 0.44857964E+00</totfact>
</mgrwt>
</event>
<event>
 6    1  0.1603085E-006  0.1428169E+04  0.7818608E-02  0.8933677E-01
         -2   -1    0    0    0  501 -0.00000000000E+00  0.00000000000E+00  0.15923481391E+04  0.15923481391E+04  0.00000000000E+00 0.  1.
          2   -1    0    0  501    0  0.00000000000E+00 -0.00000000000E+00 -0.32022942604E+03  0.32022942604E+03  0.00000000000E+00 0. -1.
         23    2    1    2    0    0 -0.43430652195E+03  0.15247430276E+02  0.13925124533E+04  0.14616348949E+04  0.91820444795E+02 0.  0.
         11    1    3    3    0    0 -0.28742957689E+02  0.16481178764E+02  0.57332812931E+02  0.66218111637E+02  0.00000000000E+00 0. -1.
        -11    1    3    3    0    0 -0.40556356426E+03 -0.12337484876E+01  0.13351796404E+04  0.13954167832E+04  0.00000000000E+00 0.  1.
         22    1    1    2    0    0  0.43430652195E+03 -0.15247430276E+02 -0.12039374030E+03  0.45094267024E+03  0.00000000000E+00 0. -1.
<mgrwt>
<rscale>  0 0.14281691E+04</rscale>
<asrwt>0</asrwt>
<pdfrwt beam="1">  1        2 0.49266066E-01 0.14281691E+04</pdfrwt>
<pdfrwt beam="2">  1       -2 0.24497663E+00 0.14281691E+04</pdfrwt>
<totfact> 0.68468275E+00</totfact>
</mgrwt>
</event>
<event>
 6    1  0.1603085E-006  0.3095538E+04  0.7818608E-02  0.8216964E-01
          2   -1    0    0  501    0  0.00000000000E+00  0.00000000000E+00  0.29461342056E+04  0.29461342056E+04  0.00000000000E+00 0. -1.
         -2   -1    0    0    0  501 -0.00000000000E+00 -0.00000000000E+00 -0.81312939757E+03  0.81312939757E+03  0.00000000000E+00 0.  1.
         23    2    1    2    0    0 -0.42853793534E+03 -0.11404005465E+04 -0.89356113881E+02  0.12248906559E+04  0.90633523204E+02 0.  0.
         11    1    3    3    0    0 -0.10350134268E+03 -0.22019608971E+03  0.12744464189E+02  0.24364167794E+03  0.00000000000E+00 0. -1.
        -11    1    3    3    0    0 -0.32503659266E+03 -0.92020445674E+03 -0.10210057807E+03  0.98124897800E+03  0.00000000000E+00 0.  1.
         22    1    1    2    0    0  0.42853793534E+03  0.11404005465E+04  0.22223609219E+04  0.25343729472E+04  0.00000000000E+00 0. -1.
<mgrwt>
<rscale>  0 0.30955376E+04</rscale>
<asrwt>0</asrwt>
<pdfrwt beam="1">  1        2 0.45325141E+00 0.30955376E+04</pdfrwt>
<pdfrwt beam="2">  1       -2 0.12509683E+00 0.30955376E+04</pdfrwt>
<totfact> 0.76418011E-01</totfact>
</mgrwt>
</event>
<event>
 6    1  0.1603085E-006  0.2776884E+04  0.7818608E-02  0.8310481E-01
          2   -1    0    0  501    0  0.00000000000E+00  0.00000000000E+00  0.25492001876E+04  0.25492001876E+04  0.00000000000E+00 0. -1.
         -2   -1    0    0    0  501 -0.00000000000E+00 -0.00000000000E+00 -0.75622599300E+03  0.75622599300E+03  0.00000000000E+00 0.  1.
         23    2    1    2    0    0  0.11764567207E+04 -0.14101552089E+02  0.17720097375E+04  0.21286981841E+04  0.84191328165E+02 0.  0.
         11    1    3    3    0    0  0.55609257911E+03 -0.17608138986E+02  0.76480255665E+03  0.94576527413E+03  0.00000000000E+00 0. -1.
        -11    1    3    3    0    0  0.62036414158E+03  0.35065868975E+01  0.10072071808E+04  0.11829329099E+04  0.00000000000E+00 0.  1.
         22    1    1    2    0    0 -0.11764567207E+04  0.14101552089E+02  0.20964457170E+02  0.11767279966E+04  0.00000000000E+00 0.  1.
<mgrwt>
<rscale>  0 0.27768842E+04</rscale>
<asrwt>0</asrwt>
<pdfrwt beam="1">  1        2 0.39218464E+00 0.27768842E+04</pdfrwt>
<pdfrwt beam="2">  1       -2 0.11634246E+00 0.27768842E+04</pdfrwt>
<totfact> 0.16280070E+00</totfact>
</mgrwt>
</event>
<event>
 6    1  0.1603085E-006  0.2516818E+04  0.7818608E-02  0.8397018E-01
         -2   -1    0    0    0  501 -0.00000000000E+00  0.00000000000E+00  0.64203228450E+03  0.64203228450E+03  0.00000000000E+00 0.  1.
          2   -1    0    0  501    0  0.00000000000E+00 -0.00000000000E+00 -0.24665317273E+04  0.24665317273E+04  0.00000000000E+00 0. -1.
         23    2    1    2    0    0 -0.12504212988E+03 -0.96025198216E+03  0.75918546118E+02  0.97565333948E+03  0.91740992454E+02 0.  0.
         13    1    3    3    0    0 -0.18008831851E+02 -0.26174342849E+03 -0.16983580440E+02  0.26291135842E+03  0.00000000000E+00 0.  1.
        -13    1    3    3    0    0 -0.10703329803E+03 -0.69850855367E+03  0.92902126558E+02  0.71274198106E+03  0.00000000000E+00 0. -1.
         22    1    1    2    0    0  0.12504212988E+03  0.96025198216E+03 -0.19004179889E+04  0.21329106723E+04  0.00000000000E+00 0. -1.
<mgrwt>
<rscale>  0 0.25168178E+04</rscale>
<asrwt>0</asrwt>
<pdfrwt beam="1">  1        2 0.37946643E+00 0.25168178E+04</pdfrwt>
<pdfrwt beam="2">  1       -2 0.98774196E-01 0.25168178E+04</pdfrwt>
<totfact> 0.27566284E+00</totfact>
</mgrwt>
</event>
<event>
 6    1  0.1603085E-006  0.3032324E+04  0.7818608E-02  0.8234560E-01
          1   -1    0    0  501    0  0.00000000000E+00  0.00000000000E+00  0.12432750432E+04  0.12432750432E+04  0.00000000000E+00 0.  1.
         -1   -1    0    0    0  501 -0.00000000000E+00 -0.00000000000E+00 -0.18489444948E+04  0.18489444948E+04  0.00000000000E+00 0. -1.
         23    2    1    2    0    0  0.30833250603E+03 -0.80638080581E+03  0.96616942288E+03  0.12988996041E+04  0.91312044601E+02 0.  0.
         11    1    3    3    0    0  0.14759390145E+03 -0.42921327349E+03  0.57158472762E+03  0.72987471167E+03  0.00000000000E+00 0.  1.
        -11    1    3    3    0    0  0.16073860458E+03 -0.37716753231E+03  0.39458469526E+03  0.56902489239E+03  0.00000000000E+00 0. -1.
         22    1    1    2    0    0 -0.30833250603E+03  0.80638080581E+03 -0.15718388745E+04  0.17933199340E+04  0.00000000000E+00 0. -1.
<mgrwt>
<rscale>  0 0.30323236E+04</rscale>
<asrwt>0</asrwt>
<pdfrwt beam="1">  1        1 0.19127308E+00 0.30323236E+04</pdfrwt>
<pdfrwt beam="2">  1       -1 0.28445300E+00 0.30323236E+04</pdfrwt>
<totfact> 0.35123796E-01</totfact>
</mgrwt>
</event>
<event>
 6    1  0.1603085E-006  0.1695701E+04  0.7818608E-02  0.8763820E-01
         -2   -1    0    0    0  501 -0.00000000000E+00  0.00000000000E+00  0.38041567940E+03  0.38041567940E+03  0.00000000000E+00 0.  1.
          2   -1    0    0  501    0  0.00000000000E+00 -0.00000000000E+00 -0.18896456970E+04  0.18896456970E+04  0.00000000000E+00 0. -1.
         23    2    1    2    0    0 -0.21226705324E+03  0.48114718716E+03  0.12924546968E+03  0.54925870321E+03  0.91764993410E+02 0.  0.
         11    1    3    3    0    0 -0.16442182106E+03  0.26457960778E+03  0.63313706164E+02  0.31787659474E+03  0.00000000000E+00 0. -1.
        -11    1    3    3    0    0 -0.47845232181E+02  0.21656757938E+03  0.65931763518E+02  0.23138210847E+03  0.00000000000E+00 0.  1.
         22    1    1    2    0    0  0.21226705324E+03 -0.48114718716E+03 -0.16384754873E+04  0.17208026732E+04  0.00000000000E+00 0. -1.
<mgrwt>
<rscale>  0 0.16957014E+04</rscale>
<asrwt>0</asrwt>
<pdfrwt beam="1">  1        2 0.29071472E+00 0.16957014E+04</pdfrwt>
<pdfrwt beam="2">  1       -2 0.58525489E-01 0.16957014E+04</pdfrwt>
<totfact> 0.19992456E+01</totfact>
</mgrwt>
</event>
<event>
 6    1  0.1603085E-006  0.1367753E+04  0.7818608E-02  0.8977497E-01
          2   -1    0    0  501    0  0.00000000000E+00  0.00000000000E+00  0.41065265477E+03  0.41065265477E+03  0.00000000000E+00 0. -1.
         -2   -1    0    0    0  501 -0.00000000000E+00 -0.00000000000E+00 -0.11388872774E+04  0.11388872774E+04  0.00000000000E+00 0.  1.
         23    2    1    2    0    0  0.59429001290E+03 -0.19047410161E+03 -0.57280381646E+02  0.63322088494E+03  0.90700849953E+02 0.  0.
         13    1    3    3    0    0  0.23015094201E+03 -0.57202094097E+02 -0.63144235995E+02  0.24541542375E+03  0.00000000000E+00 0.  1.
        -13    1    3    3    0    0  0.36413907090E+03 -0.13327200752E+03  0.58638543489E+01  0.38780546119E+03  0.00000000000E+00 0. -1.
         22    1    1    2    0    0 -0.59429001290E+03  0.19047410161E+03 -0.67095424100E+03  0.91631904724E+03  0.00000000000E+00 0.  1.
<mgrwt>
<rscale>  0 0.13677530E+04</rscale>
<asrwt>0</asrwt>
<pdfrwt beam="1">  1        2 0.63177332E-01 0.13677530E+04</pdfrwt>
<pdfrwt beam="2">  1       -2 0.17521342E+00 0.13677530E+04</pdfrwt>
<totfact> 0.14726663E+01</totfact>
</mgrwt>
</event>
<event>
 6    1  0.1603085E-006  0.1795162E+04  0.7818608E-02  0.8708877E-01
          2   -1    0    0  501    0  0.00000000000E+00  0.00000000000E+00  0.12612840671E+04  0.12612840671E+04  0.00000000000E+00 0. -1.
         -2   -1    0    0    0  501 -0.00000000000E+00 -0.00000000000E+00 -0.63875508943E+03  0.63875508943E+03  0.00000000000E+00 0.  1.
         23    2    1    2    0    0  0.21158016598E+03 -0.66989622307E+03  0.89933045029E+03  0.11449589148E+04  0.92782225627E+02 0.  0.
         11    1    3    3    0    0  0.11652274881E+03 -0.39196432788E+03  0.59524559222E+03  0.72217096340E+03  0.00000000000E+00 0. -1.
        -11    1    3    3    0    0  0.95057417173E+02 -0.27793189519E+03  0.30408485807E+03  0.42278795138E+03  0.00000000000E+00 0.  1.
         22    1    1    2    0    0 -0.21158016598E+03  0.66989622307E+03 -0.27680147258E+03  0.75508024179E+03  0.00000000000E+00 0. -1.
<mgrwt>
<rscale>  0 0.17951620E+04</rscale>
<asrwt>0</asrwt>
<pdfrwt beam="1">  1        2 0.19404370E+00 0.17951620E+04</pdfrwt>
<pdfrwt beam="2">  1       -2 0.98270014E-01 0.17951620E+04</pdfrwt>
<totfact> 0.14163037E+01</totfact>
</mgrwt>
</event>
<event>
 6    1  0.1603085E-006  0.5627711E+04  0.7818608E-02  0.7738357E-01
          2   -1    0    0  501    0  0.00000000000E+00  0.00000000000E+00  0.19402847150E+04  0.19402847150E+04  0.00000000000E+00 0. -1.
         -2   -1    0    0    0  501 -0.00000000000E+00 -0.00000000000E+00 -0.40807322911E+04  0.40807322911E+04  0.00000000000E+00 0.  1.
         23    2    1    2    0    0 -0.26435303650E+04  0.44994817879E+03 -0.19800651471E+04  0.33346758740E+04  0.93268664650E+02 0.  0.
         13    1    3    3    0    0 -0.24382636187E+04  0.39743803793E+03 -0.18004560007E+04  0.30569148301E+04  0.00000000000E+00 0. -1.
        -13    1    3    3    0    0 -0.20526674626E+03  0.52510140858E+02 -0.17960914647E+03  0.27776104390E+03  0.00000000000E+00 0.  1.
         22    1    1    2    0    0  0.26435303650E+04 -0.44994817879E+03 -0.16038242897E+03  0.26863411320E+04  0.00000000000E+00 0.  1.
<mgrwt>
<rscale>  0 0.56277109E+04</rscale>
<asrwt>0</asrwt>
<pdfrwt beam="1">  1        2 0.29850534E+00 0.56277109E+04</pdfrwt>
<pdfrwt beam="2">  1       -2 0.62780497E+00 0.56277109E+04</pdfrwt>
<totfact> 0.20350653E-03</totfact>
</mgrwt>
</event>
<event>
 6    1  0.1603085E-006  0.2447582E+04  0.7818608E-02  0.8421901E-01
          2   -1    0    0  501    0  0.00000000000E+00  0.00000000000E+00  0.29607365531E+04  0.29607365531E+04  0.00000000000E+00 0. -1.
         -2   -1    0    0    0  501 -0.00000000000E+00 -0.00000000000E+00 -0.50584176903E+03  0.50584176903E+03  0.00000000000E+00 0.  1.
         23    2    1    2    0    0  0.49781215269E+03  0.10719421345E+04  0.16686835231E+04  0.20470695951E+04  0.95458618259E+02 0.  0.
         11    1    3    3    0    0  0.25492364051E+03  0.51065618823E+03  0.72818495996E+03  0.92520762048E+03  0.00000000000E+00 0. -1.
        -11    1    3    3    0    0  0.24288851218E+03  0.56128594631E+03  0.94049856313E+03  0.11218619746E+04  0.00000000000E+00 0.  1.
         22    1    1    2    0    0 -0.49781215269E+03 -0.10719421345E+04  0.78621126096E+03  0.14195087270E+04  0.00000000000E+00 0.  1.
<mgrwt>
<rscale>  0 0.24475818E+04</rscale>
<asrwt>0</asrwt>
<pdfrwt beam="1">  1        2 0.45549792E+00 0.24475818E+04</pdfrwt>
<pdfrwt beam="2">  1       -2 0.77821812E-01 0.24475818E+04</pdfrwt>
<totfact> 0.24275701E+00</totfact>
</mgrwt>
</event>
<event>
 6    1  0.1603085E-006  0.1494759E+04  0.7818608E-02  0.8887945E-01
          2   -1    0    0  501    0  0.00000000000E+00  0.00000000000E+00  0.50043735806E+03  0.50043735806E+03  0.00000000000E+00 0. -1.
         -2   -1    0    0    0  501 -0.00000000000E+00 -0.00000000000E+00 -0.11161764234E+04  0.11161764234E+04  0.00000000000E+00 0.  1.
         23    2    1    2    0    0  0.36818290270E+03 -0.13486669502E+03 -0.99317864529E+03  0.10723635524E+04  0.99056003121E+02 0.  0.
         11    1    3    3    0    0  0.23811119855E+03 -0.13220967059E+03 -0.62089139508E+03  0.67799886752E+03  0.00000000000E+00 0. -1.
        -11    1    3    3    0    0  0.13007170415E+03 -0.26570244280E+01 -0.37228725021E+03  0.39436468486E+03  0.00000000000E+00 0.  1.
         22    1    1    2    0    0 -0.36818290270E+03  0.13486669502E+03  0.37743957999E+03  0.54425022904E+03  0.00000000000E+00 0. -1.
<mgrwt>
<rscale>  0 0.14947594E+04</rscale>
<asrwt>0</asrwt>
<pdfrwt beam="1">  1        2 0.76990362E-01 0.14947594E+04</pdfrwt>
<pdfrwt beam="2">  1       -2 0.17171945E+00 0.14947594E+04</pdfrwt>
<totfact> 0.12308569E+01</totfact>
</mgrwt>
</event>
<event>
 6    1  0.1603085E-006  0.1230889E+04  0.7818608E-02  0.9086241E-01
         -1   -1    0    0    0  501 -0.00000000000E+00  0.00000000000E+00  0.26278625374E+03  0.26278625374E+03  0.00000000000E+00 0. -1.
          1   -1    0    0  501    0  0.00000000000E+00 -0.00000000000E+00 -0.14413684167E+04  0.14413684167E+04  0.00000000000E+00 0.  1.
         23    2    1    2    0    0  0.24300822486E+03 -0.22964613516E+03  0.11754621981E+03  0.36559606903E+03  0.89738660315E+02 0.  0.
         11    1    3    3    0    0  0.15348009849E+03 -0.90809646909E+02  0.38419030348E+02  0.18242410613E+03  0.00000000000E+00 0. -1.
        -11    1    3    3    0    0  0.89528126375E+02 -0.13883648825E+03  0.79127189467E+02  0.18317196291E+03  0.00000000000E+00 0.  1.
         22    1    1    2    0    0 -0.24300822486E+03  0.22964613516E+03 -0.12961283828E+04  0.13385586014E+04  0.00000000000E+00 0.  1.
<mgrwt>
<rscale>  0 0.12308888E+04</rscale>
<asrwt>0</asrwt>
<pdfrwt beam="1">  1        1 0.22174898E+00 0.12308888E+04</pdfrwt>
<pdfrwt beam="2">  1       -1 0.40428656E-01 0.12308888E+04</pdfrwt>
<totfact> 0.42377713E+01</totfact>
</mgrwt>
</event>
<event>
 6    1  0.1603085E-006  0.4039297E+04  0.7818608E-02  0.7996666E-01
          1   -1    0    0  501    0  0.00000000000E+00  0.00000000000E+00  0.24874553104E+04  0.24874553104E+04  0.00000000000E+00 0. -1.
         -1   -1    0    0    0  501 -0.00000000000E+00 -0.00000000000E+00 -0.16398200968E+04  0.16398200968E+04  0.00000000000E+00 0.  1.
         23    2    1    2    0    0  0.19032408336E+02  0.60071909949E+03  0.23930768862E+04  0.24690789073E+04  0.91148223170E+02 0.  0.
         13    1    3    3    0    0  0.41568163697E+02  0.48753911003E+03  0.20281392190E+04  0.20863295492E+04  0.00000000000E+00 0. -1.
        -13    1    3    3    0    0 -0.22535755361E+02  0.11317998946E+03  0.36493766712E+03  0.38274935815E+03  0.00000000000E+00 0.  1.
         22    1    1    2    0    0 -0.19032408336E+02 -0.60071909949E+03 -0.15454416725E+04  0.16581964999E+04  0.00000000000E+00 0.  1.
<mgrwt>
<rscale>  0 0.40392966E+04</rscale>
<asrwt>0</asrwt>
<pdfrwt beam="1">  1        1 0.38268543E+00 0.40392966E+04</pdfrwt>
<pdfrwt beam="2">  1       -1 0.25228002E+00 0.40392966E+04</pdfrwt>
<totfact> 0.72644214E-02</totfact>
</mgrwt>
</event>
<event>
 6    1  0.1603085E-006  0.8075077E+03  0.7818608E-02  0.9549213E-01
         -1   -1    0    0    0  501 -0.00000000000E+00  0.00000000000E+00  0.59146375924E+03  0.59146375924E+03  0.00000000000E+00 0.  1.
          1   -1    0    0  501    0  0.00000000000E+00 -0.00000000000E+00 -0.27561647751E+03  0.27561647751E+03  0.00000000000E+00 0. -1.
         23    2    1    2    0    0  0.36415811674E+03 -0.15521683212E+03  0.10975640068E+03  0.42078789958E+03  0.91173406119E+02 0.  0.
         13    1    3    3    0    0  0.25138493328E+03 -0.14367186012E+03  0.10265323988E+03  0.30720298782E+03  0.00000000000E+00 0. -1.
        -13    1    3    3    0    0  0.11277318346E+03 -0.11544972007E+02  0.71031608034E+01  0.11358491176E+03  0.00000000000E+00 0.  1.
         22    1    1    2    0    0 -0.36415811674E+03  0.15521683212E+03  0.20609088105E+03  0.44629233717E+03  0.00000000000E+00 0. -1.
<mgrwt>
<rscale>  0 0.80750767E+03</rscale>
<asrwt>0</asrwt>
<pdfrwt beam="1">  1        1 0.42402535E-01 0.80750767E+03</pdfrwt>
<pdfrwt beam="2">  1       -1 0.90994424E-01 0.80750767E+03</pdfrwt>
<totfact> 0.11688128E+02</totfact>
</mgrwt>
</event>
<event>
 6    1  0.1603085E-006  0.2527184E+04  0.7818608E-02  0.8393365E-01
         -2   -1    0    0    0  501 -0.00000000000E+00  0.00000000000E+00  0.76174986011E+03  0.76174986011E+03  0.00000000000E+00 0.  1.
          2   -1    0    0  501    0  0.00000000000E+00 -0.00000000000E+00 -0.20960485217E+04  0.20960485217E+04  0.00000000000E+00 0. -1.
         23    2    1    2    0    0 -0.90020032847E+03 -0.72977201384E+03 -0.12329090294E+04  0.16945238308E+04  0.91752464297E+02 0.  0.
         13    1    3    3    0    0 -0.13612770287E+03 -0.14147028721E+03 -0.17415880966E+03  0.26244215484E+03  0.00000000000E+00 0.  1.
        -13    1    3    3    0    0 -0.76407262559E+03 -0.58830172663E+03 -0.10587502198E+04  0.14320816759E+04  0.00000000000E+00 0. -1.
         22    1    1    2    0    0  0.90020032847E+03  0.72977201384E+03 -0.10138963217E+03  0.11632745510E+04  0.00000000000E+00 0.  1.
<mgrwt>
<rscale>  0 0.25271839E+04</rscale>
<asrwt>0</asrwt>
<pdfrwt beam="1">  1        2 0.32246900E+00 0.25271839E+04</pdfrwt>
<pdfrwt beam="2">  1       -2 0.11719229E+00 0.25271839E+04</pdfrwt>
<totfact> 0.29587476E+00</totfact>
</mgrwt>
</event>
<event>
 6    1  0.1603085E-006  0.2708383E+04  0.7818608E-02  0.8332290E-01
         -2   -1    0    0    0  501 -0.00000000000E+00  0.00000000000E+00  0.47043212613E+03  0.47043212613E+03  0.00000000000E+00 0.  1.
          2   -1    0    0  501    0  0.00000000000E+00 -0.00000000000E+00 -0.38981923827E+04  0.38981923827E+04  0.00000000000E+00 0. -1.
         23    2    1    2    0    0  0.10628791742E+04  0.80789641179E+03 -0.20671864224E+04  0.24624319924E+04  0.88898039264E+02 0.  0.
         11    1    3    3    0    0  0.39887477638E+03  0.27663604994E+03 -0.82055133544E+03  0.95337982224E+03  0.00000000000E+00 0. -1.
        -11    1    3    3    0    0  0.66400439785E+03  0.53126036185E+03 -0.12466350869E+04  0.15090521702E+04  0.00000000000E+00 0.  1.
         22    1    1    2    0    0 -0.10628791742E+04 -0.80789641179E+03 -0.13605738342E+04  0.19061925164E+04  0.00000000000E+00 0.  1.
<mgrwt>
<rscale>  0 0.27083832E+04</rscale>
<asrwt>0</asrwt>
<pdfrwt beam="1">  1        2 0.59972193E+00 0.27083832E+04</pdfrwt>
<pdfrwt beam="2">  1       -2 0.72374170E-01 0.27083832E+04</pdfrwt>
<totfact> 0.62536156E-01</totfact>
</mgrwt>
</event>
<event>
 6    1  0.1603085E-006  0.2226931E+04  0.7818608E-02  0.8507302E-01
          2   -1    0    0  501    0  0.00000000000E+00  0.00000000000E+00  0.25685580612E+04  0.25685580612E+04  0.00000000000E+00 0. -1.
         -2   -1    0    0    0  501 -0.00000000000E+00 -0.00000000000E+00 -0.48268557920E+03  0.48268557920E+03  0.00000000000E+00 0.  1.
         23    2    1    2    0    0 -0.43721213995E+03  0.36759571395E+03  0.23512656468E+04  0.24213908035E+04  0.91663608460E+02 0.  0.
         13    1    3    3    0    0 -0.21728134509E+03  0.17293093125E+03  0.13326931166E+04  0.13613181968E+04  0.00000000000E+00 0.  1.
        -13    1    3    3    0    0 -0.21993079487E+03  0.19466478270E+03  0.10185725302E+04  0.10600726067E+04  0.00000000000E+00 0. -1.
         22    1    1    2    0    0  0.43721213995E+03 -0.36759571395E+03 -0.26539316481E+03  0.62985283691E+03  0.00000000000E+00 0.  1.
<mgrwt>
<rscale>  0 0.22269315E+04</rscale>
<asrwt>0</asrwt>
<pdfrwt beam="1">  1        2 0.39516277E+00 0.22269315E+04</pdfrwt>
<pdfrwt beam="2">  1       -2 0.74259321E-01 0.22269315E+04</pdfrwt>
<totfact> 0.47276991E+00</totfact>
</mgrwt>
</event>
<event>
 6    1  0.1603085E-006  0.9737862E+03  0.7818608E-02  0.9337772E-01
         -2   -1    0    0    0  501 -0.00000000000E+00  0.00000000000E+00  0.14969081079E+03  0.14969081079E+03  0.00000000000E+00 0.  1.
          2   -1    0    0  501    0  0.00000000000E+00 -0.00000000000E+00 -0.15836968602E+04  0.15836968602E+04  0.00000000000E+00 0. -1.
         23    2    1    2    0    0  0.27149400750E+03 -0.21114781606E+03 -0.12099255881E+03  0.37607531827E+03  0.92201135510E+02 0.  0.
         11    1    3    3    0    0  0.29063637260E+02 -0.60567775360E+02 -0.44606894683E+02  0.80640718475E+02  0.00000000000E+00 0. -1.
        -11    1    3    3    0    0  0.24243037024E+03 -0.15058004070E+03 -0.76385664124E+02  0.29543459979E+03  0.00000000000E+00 0.  1.
         22    1    1    2    0    0 -0.27149400750E+03  0.21114781606E+03 -0.13130134906E+04  0.13573123527E+04  0.00000000000E+00 0. -1.
<mgrwt>
<rscale>  0 0.97378615E+03</rscale>
<asrwt>0</asrwt>
<pdfrwt beam="1">  1        2 0.24364567E+00 0.97378615E+03</pdfrwt>
<pdfrwt beam="2">  1       -2 0.23029355E-01 0.97378615E+03</pdfrwt>
<totfact> 0.18937905E+02</totfact>
</mgrwt>
</event>
<event>
 6    1  0.1603085E-006  0.1962699E+04  0.7818608E-02  0.8624261E-01
          2   -1    0    0  501    0  0.00000000000E+00  0.00000000000E+00  0.11274141878E+04  0.11274141878E+04  0.00000000000E+00 0. -1.
         -2   -1    0    0    0  501 -0.00000000000E+00 -0.00000000000E+00 -0.85420856761E+03  0.85420856761E+03  0.00000000000E+00 0.  1.
         23    2    1    2    0    0 -0.84904125619E+03 -0.47317970728E+03  0.25789979137E+03  0.10095094089E+04  0.88469510158E+02 0.  0.
         11    1    3    3    0    0 -0.40710036621E+03 -0.19077020204E+03  0.15095858653E+03  0.47424937850E+03  0.00000000000E+00 0. -1.
        -11    1    3    3    0    0 -0.44194088998E+03 -0.28240950524E+03  0.10694120484E+03  0.53526003043E+03  0.00000000000E+00 0.  1.
         22    1    1    2    0    0  0.84904125619E+03  0.47317970728E+03  0.15305828857E+02  0.97211334653E+03  0.00000000000E+00 0. -1.
<mgrwt>
<rscale>  0 0.19626990E+04</rscale>
<asrwt>0</asrwt>
<pdfrwt beam="1">  1        2 0.17344834E+00 0.19626990E+04</pdfrwt>
<pdfrwt beam="2">  1       -2 0.13141670E+00 0.19626990E+04</pdfrwt>
<totfact> 0.82519860E+00</totfact>
</mgrwt>
</event>
<event>
 6    1  0.1603085E-006  0.3026439E+04  0.7818608E-02  0.8236221E-01
          1   -1    0    0  501    0  0.00000000000E+00  0.00000000000E+00  0.27985645466E+04  0.27985645466E+04  0.00000000000E+00 0. -1.
         -1   -1    0    0    0  501 -0.00000000000E+00 -0.00000000000E+00 -0.81821692752E+03  0.81821692752E+03  0.00000000000E+00 0.  1.
         23    2    1    2    0    0 -0.14468732206E+03  0.13285973361E+04  0.14645829760E+03  0.13475844033E+04  0.91806255952E+02 0.  0.
         13    1    3    3    0    0 -0.86696091604E+02  0.71129080919E+03  0.33372907306E+02  0.71733156802E+03  0.00000000000E+00 0.  1.
        -13    1    3    3    0    0 -0.57991230461E+02  0.61730652689E+03  0.11308539030E+03  0.63025283533E+03  0.00000000000E+00 0. -1.
         22    1    1    2    0    0  0.14468732206E+03 -0.13285973361E+04  0.18338893215E+04  0.22691970708E+04  0.00000000000E+00 0. -1.
<mgrwt>
<rscale>  0 0.30264388E+04</rscale>
<asrwt>0</asrwt>
<pdfrwt beam="1">  1        1 0.43054839E+00 0.30264388E+04</pdfrwt>
<pdfrwt beam="2">  1       -1 0.12587953E+00 0.30264388E+04</pdfrwt>
<totfact> 0.38983302E-01</totfact>
</mgrwt>
</event>
<event>
 6    1  0.1603085E-006  0.2876120E+04  0.7818608E-02  0.8280018E-01
          2   -1    0    0  501    0  0.00000000000E+00  0.00000000000E+00  0.22403250843E+04  0.22403250843E+04  0.00000000000E+00 0. -1.
         -2   -1    0    0    0  501 -0.00000000000E+00 -0.00000000000E+00 -0.92308761817E+03  0.92308761817E+03  0.00000000000E+00 0.  1.
         23    2    1    2    0    0  0.19894830779E+03  0.12577186226E+04 -0.73069094927E+02  0.12781040019E+04  0.82305432547E+02 0.  0.
         13    1    3    3    0    0  0.11816424972E+03  0.78938902502E+03 -0.64393203486E+01  0.79821005230E+03  0.00000000000E+00 0.  1.
        -13    1    3    3    0    0  0.80784058065E+02  0.46832959757E+03 -0.66629774578E+02  0.47989394959E+03  0.00000000000E+00 0. -1.
         22    1    1    2    0    0 -0.19894830779E+03 -0.12577186226E+04  0.13903065610E+04  0.18853087006E+04  0.00000000000E+00 0. -1.
<mgrwt>
<rscale>  0 0.28761198E+04</rscale>
<asrwt>0</asrwt>
<pdfrwt beam="1">  1        2 0.34466539E+00 0.28761198E+04</pdfrwt>
<pdfrwt beam="2">  1       -2 0.14201348E+00 0.28761198E+04</pdfrwt>
<totfact> 0.14663039E+00</totfact>
</mgrwt>
</event>
<event>
 6    1  0.1603085E-006  0.1068096E+04  0.7818608E-02  0.9236857E-01
          2   -1    0    0  501    0  0.00000000000E+00  0.00000000000E+00  0.89718909731E+03  0.89718909731E+03  0.00000000000E+00 0. -1.
         -2   -1    0    0    0  501 -0.00000000000E+00 -0.00000000000E+00 -0.31789007825E+03  0.31789007825E+03  0.00000000000E+00 0.  1.
         23    2    1    2    0    0 -0.12181378728E+03  0.50140968295E+03  0.15353730563E+03  0.54610734840E+03  0.91702032842E+02 0.  0.
         13    1    3    3    0    0 -0.83126076652E+01  0.14378739750E+03  0.76482715138E+02  0.16307519996E+03  0.00000000000E+00 0.  1.
        -13    1    3    3    0    0 -0.11350117961E+03  0.35762228544E+03  0.77054590491E+02  0.38303214844E+03  0.00000000000E+00 0. -1.
         22    1    1    2    0    0  0.12181378728E+03 -0.50140968295E+03  0.42576171343E+03  0.66897182717E+03  0.00000000000E+00 0.  1.
<mgrwt>
<rscale>  0 0.10680965E+04</rscale>
<asrwt>0</asrwt>
<pdfrwt beam="1">  1        2 0.13802909E+00 0.10680965E+04</pdfrwt>
<pdfrwt beam="2">  1       -2 0.48906166E-01 0.10680965E+04</pdfrwt>
<totfact> 0.11595177E+02</totfact>
</mgrwt>
</event>
<event>
 6    1  0.1603085E-006  0.1365192E+04  0.7818608E-02  0.8979407E-01
          2   -1    0    0  501    0  0.00000000000E+00  0.00000000000E+00  0.31012699883E+04  0.31012699883E+04  0.00000000000E+00 0. -1.
         -2   -1    0    0    0  501 -0.00000000000E+00 -0.00000000000E+00 -0.15024086770E+03  0.15024086770E+03  0.00000000000E+00 0.  1.
         23    2    1    2    0    0 -0.33546930145E+03  0.28825320324E+03  0.27103507169E+04  0.27479677542E+04  0.98469324837E+02 0.  0.
         11    1    3    3    0    0 -0.79554264813E+02  0.11378127405E+03  0.10293735575E+04  0.10386938818E+04  0.00000000000E+00 0.  1.
        -11    1    3    3    0    0 -0.25591503663E+03  0.17447192919E+03  0.16809771595E+04  0.17092738724E+04  0.00000000000E+00 0. -1.
         22    1    1    2    0    0  0.33546930145E+03 -0.28825320324E+03  0.24067840367E+03  0.50354310181E+03  0.00000000000E+00 0.  1.
<mgrwt>
<rscale>  0 0.13651923E+04</rscale>
<asrwt>0</asrwt>
<pdfrwt beam="1">  1        2 0.47711841E+00 0.13651923E+04</pdfrwt>
<pdfrwt beam="2">  1       -2 0.23113982E-01 0.13651923E+04</pdfrwt>
<totfact> 0.24501483E+01</totfact>
</mgrwt>
</event>
<event>
 6    1  0.1603085E-006  0.1387392E+04  0.7818608E-02  0.8962996E-01
          2   -1    0    0  501    0  0.00000000000E+00  0.00000000000E+00  0.41216315458E+04  0.41216315458E+04  0.00000000000E+00 0.  1.
         -2   -1    0    0    0  501 -0.00000000000E+00 -0.00000000000E+00 -0.11675336823E+03  0.11675336823E+03  0.00000000000E+00 0. -1.
         23    2    1    2    0    0 -0.15869843045E+02  0.65025774599E+03  0.27217544830E+04  0.27998115222E+04  0.88938776589E+02 0.  0.
         11    1    3    3    0    0  0.29786102345E+02  0.45205233560E+03  0.18979041883E+04  0.19512249573E+04  0.00000000000E+00 0. -1.
        -11    1    3    3    0    0 -0.45655945391E+02  0.19820541039E+03  0.82385029469E+03  0.84858656489E+03  0.00000000000E+00 0.  1.
         22    1    1    2    0    0  0.15869843045E+02 -0.65025774599E+03  0.12831236946E+04  0.14385733919E+04  0.00000000000E+00 0. -1.
<mgrwt>
<rscale>  0 0.13873923E+04</rscale>
<asrwt>0</asrwt>
<pdfrwt beam="1">  1        2 0.63409705E+00 0.13873923E+04</pdfrwt>
<pdfrwt beam="2">  1       -2 0.17962060E-01 0.13873923E+04</pdfrwt>
<totfact> 0.70389765E+00</totfact>
</mgrwt>
</event>
<event>
 6    1  0.1603085E-006  0.2116648E+04  0.7818608E-02  0.8553945E-01
         -2   -1    0    0    0  501 -0.00000000000E+00  0.00000000000E+00  0.95214337853E+03  0.95214337853E+03  0.00000000000E+00 0. -1.
          2   -1    0    0  501    0  0.00000000000E+00 -0.00000000000E+00 -0.11763455574E+04  0.11763455574E+04  0.00000000000E+00 0.  1.
         23    2    1    2    0    0 -0.41835077797E+03 -0.84352039505E+03 -0.59398618089E+03  0.11169138084E+04  0.90182271330E+02 0.  0.
         11    1    3    3    0    0 -0.31963017302E+03 -0.55660639401E+03 -0.38463736882E+03  0.74827804381E+03  0.00000000000E+00 0. -1.
        -11    1    3    3    0    0 -0.98720604947E+02 -0.28691400104E+03 -0.20934881207E+03  0.36863576461E+03  0.00000000000E+00 0.  1.
         22    1    1    2    0    0  0.41835077797E+03  0.84352039505E+03  0.36978400207E+03  0.10115751275E+04  0.00000000000E+00 0. -1.
<mgrwt>
<rscale>  0 0.21166479E+04</rscale>
<asrwt>0</asrwt>
<pdfrwt beam="1">  1        2 0.18097624E+00 0.21166479E+04</pdfrwt>
<pdfrwt beam="2">  1       -2 0.14648360E+00 0.21166479E+04</pdfrwt>
<totfact> 0.57461960E+00</totfact>
</mgrwt>
</event>
<event>
 6    1  0.1603085E-006  0.5152144E+04  0.7818608E-02  0.7805457E-01
         -2   -1    0    0    0  501 -0.00000000000E+00  0.00000000000E+00  0.18957957213E+04  0.18957957213E+04  0.00000000000E+00 0.  1.
          2   -1    0    0  501    0  0.00000000000E+00 -0.00000000000E+00 -0.35004548319E+04  0.35004548319E+04  0.00000000000E+00 0. -1.
         23    2    1    2    0    0 -0.95604922305E+03  0.48733964352E+03  0.16493693754E+04  0.19698484413E+04  0.91397484032E+02 0.  0.
         13    1    3    3    0    0 -0.17168387153E+03  0.57470698418E+02  0.24030903443E+03  0.30087649452E+03  0.00000000000E+00 0.  1.
        -13    1    3    3    0    0 -0.78436535152E+03  0.42986894510E+03  0.14090603410E+04  0.16689719468E+04  0.00000000000E+00 0. -1.
         22    1    1    2    0    0  0.95604922305E+03 -0.48733964352E+03 -0.32540284860E+04  0.34264021120E+04  0.00000000000E+00 0. -1.
<mgrwt>
<rscale>  0 0.51521441E+04</rscale>
<asrwt>0</asrwt>
<pdfrwt beam="1">  1        2 0.53853151E+00 0.51521441E+04</pdfrwt>
<pdfrwt beam="2">  1       -2 0.29166088E+00 0.51521441E+04</pdfrwt>
<totfact> 0.20845317E-02</totfact>
</mgrwt>
</event>
<event>
 6    1  0.1603085E-006  0.4134673E+04  0.7818608E-02  0.7977916E-01
         -2   -1    0    0    0  501 -0.00000000000E+00  0.00000000000E+00  0.14955504654E+04  0.14955504654E+04  0.00000000000E+00 0.  1.
          2   -1    0    0  501    0  0.00000000000E+00 -0.00000000000E+00 -0.28577302959E+04  0.28577302959E+04  0.00000000000E+00 0. -1.
         23    2    1    2    0    0 -0.14530122509E+04  0.11356236272E+03  0.86072614413E+03  0.16951889676E+04  0.93140374369E+02 0.  0.
         13    1    3    3    0    0 -0.10361786512E+04  0.44195948165E+02  0.63567674947E+03  0.12164310127E+04  0.00000000000E+00 0.  1.
        -13    1    3    3    0    0 -0.41683359973E+03  0.69366414550E+02  0.22504939465E+03  0.47875795489E+03  0.00000000000E+00 0. -1.
         22    1    1    2    0    0  0.14530122509E+04 -0.11356236272E+03 -0.22229059747E+04  0.26580917937E+04  0.00000000000E+00 0. -1.
<mgrwt>
<rscale>  0 0.41346728E+04</rscale>
<asrwt>0</asrwt>
<pdfrwt beam="1">  1        2 0.43965081E+00 0.41346728E+04</pdfrwt>
<pdfrwt beam="2">  1       -2 0.23008469E+00 0.41346728E+04</pdfrwt>
<totfact> 0.14207432E-01</totfact>
</mgrwt>
</event>
<event>
 6    1  0.1603085E-006  0.1353308E+04  0.7818608E-02  0.8988327E-01
          2   -1    0    0  501    0  0.00000000000E+00  0.00000000000E+00  0.71283040742E+03  0.71283040742E+03  0.00000000000E+00 0. -1.
         -2   -1    0    0    0  501 -0.00000000000E+00 -0.00000000000E+00 -0.64231400090E+03  0.64231400090E+03  0.00000000000E+00 0.  1.
         23    2    1    2    0    0  0.26211555055E+03  0.34485782862E+03 -0.48113290691E+03  0.65375403998E+03  0.90961458227E+02 0.  0.
         11    1    3    3    0    0  0.17597368015E+01  0.40416086130E+02 -0.61518855429E+02  0.73628297990E+02  0.00000000000E+00 0.  1.
        -11    1    3    3    0    0  0.26035581375E+03  0.30444174249E+03 -0.41961405148E+03  0.58012574199E+03  0.00000000000E+00 0. -1.
         22    1    1    2    0    0 -0.26211555055E+03 -0.34485782862E+03  0.55164931343E+03  0.70139036834E+03  0.00000000000E+00 0. -1.
<mgrwt>
<rscale>  0 0.13533085E+04</rscale>
<asrwt>0</asrwt>
<pdfrwt beam="1">  1        2 0.10966622E+00 0.13533085E+04</pdfrwt>
<pdfrwt beam="2">  1       -2 0.98817539E-01 0.13533085E+04</pdfrwt>
<totfact> 0.33225376E+01</totfact>
</mgrwt>
</event>
<event>
 6    1  0.1603085E-006  0.9003712E+03  0.7818608E-02  0.9425118E-01
         -2   -1    0    0    0  501 -0.00000000000E+00  0.00000000000E+00  0.11476303284E+03  0.11476303284E+03  0.00000000000E+00 0.  1.
          2   -1    0    0  501    0  0.00000000000E+00 -0.00000000000E+00 -0.17659613498E+04  0.17659613498E+04  0.00000000000E+00 0. -1.
         23    2    1    2    0    0 -0.14311483809E+03  0.22284408816E+03 -0.86279083428E+02  0.29355282543E+03  0.92670580951E+02 0.  0.
         13    1    3    3    0    0 -0.28555719752E+02  0.46445720061E+02 -0.60825802264E+02  0.81684834967E+02  0.00000000000E+00 0.  1.
        -13    1    3    3    0    0 -0.11455911834E+03  0.17639836810E+03 -0.25453281164E+02  0.21186799047E+03  0.00000000000E+00 0. -1.
         22    1    1    2    0    0  0.14311483809E+03 -0.22284408816E+03 -0.15649192335E+04  0.15871715572E+04  0.00000000000E+00 0. -1.
<mgrwt>
<rscale>  0 0.90037121E+03</rscale>
<asrwt>0</asrwt>
<pdfrwt beam="1">  1        2 0.27168637E+00 0.90037121E+03</pdfrwt>
<pdfrwt beam="2">  1       -2 0.17655850E-01 0.90037121E+03</pdfrwt>
<totfact> 0.24077962E+02</totfact>
</mgrwt>
</event>
<event>
 6    1  0.1603085E-006  0.2073412E+04  0.7818608E-02  0.8573047E-01
         -2   -1    0    0    0  501 -0.00000000000E+00  0.00000000000E+00  0.54544745457E+03  0.54544745457E+03  0.00000000000E+00 0. -1.
          2   -1    0    0  501    0  0.00000000000E+00 -0.00000000000E+00 -0.19704171720E+04  0.19704171720E+04  0.00000000000E+00 0.  1.
         23    2    1    2    0    0 -0.72486983282E+03  0.73577428750E+03 -0.78882503195E+03  0.13028188164E+04  0.91059654803E+02 0.  0.
         11    1    3    3    0    0 -0.68169804421E+03  0.65624953830E+03 -0.71393323598E+03  0.11853591631E+04  0.00000000000E+00 0. -1.
        -11    1    3    3    0    0 -0.43171788604E+02  0.79524749203E+02 -0.74891795974E+02  0.11745965338E+03  0.00000000000E+00 0.  1.
         22    1    1    2    0    0  0.72486983282E+03 -0.73577428750E+03 -0.63614468552E+03  0.12130458102E+04  0.00000000000E+00 0. -1.
<mgrwt>
<rscale>  0 0.20734117E+04</rscale>
<asrwt>0</asrwt>
<pdfrwt beam="1">  1        2 0.30314110E+00 0.20734117E+04</pdfrwt>
<pdfrwt beam="2">  1       -2 0.83914994E-01 0.20734117E+04</pdfrwt>
<totfact> 0.79504006E+00</totfact>
</mgrwt>
</event>
<event>
 6    1  0.1603085E-006  0.2197770E+04  0.7818608E-02  0.8519357E-01
         -2   -1    0    0    0  501 -0.00000000000E+00  0.00000000000E+00  0.58797527238E+03  0.58797527238E+03  0.00000000000E+00 0.  1.
          2   -1    0    0  501    0  0.00000000000E+00 -0.00000000000E+00 -0.20537389895E+04  0.20537389895E+04  0.00000000000E+00 0. -1.
         23    2    1    2    0    0  0.98635533777E+03 -0.20308865349E+03 -0.12568789515E+04  0.16132325174E+04  0.92911801780E+02 0.  0.
         11    1    3    3    0    0  0.24372158212E+03 -0.81675906322E+02 -0.36289168755E+03  0.44470387918E+03  0.00000000000E+00 0.  1.
        -11    1    3    3    0    0  0.74263375565E+03 -0.12141274717E+03 -0.89398726391E+03  0.11685286382E+04  0.00000000000E+00 0. -1.
         22    1    1    2    0    0 -0.98635533777E+03  0.20308865349E+03 -0.20888476568E+03  0.10284817445E+04  0.00000000000E+00 0. -1.
<mgrwt>
<rscale>  0 0.21977695E+04</rscale>
<asrwt>0</asrwt>
<pdfrwt beam="1">  1        2 0.31595984E+00 0.21977695E+04</pdfrwt>
<pdfrwt beam="2">  1       -2 0.90457734E-01 0.21977695E+04</pdfrwt>
<totfact> 0.59540953E+00</totfact>
</mgrwt>
</event>
<event>
 6    1  0.1603085E-006  0.2160652E+04  0.7818608E-02  0.8534986E-01
          2   -1    0    0  501    0  0.00000000000E+00  0.00000000000E+00  0.16284192752E+04  0.16284192752E+04  0.00000000000E+00 0. -1.
         -2   -1    0    0    0  501 -0.00000000000E+00 -0.00000000000E+00 -0.71671022660E+03  0.71671022660E+03  0.00000000000E+00 0.  1.
         23    2    1    2    0    0  0.86169690537E+03 -0.42511918865E+02  0.11587503063E+04  0.14477119831E+04  0.94015390401E+02 0.  0.
         13    1    3    3    0    0  0.19818982247E+03  0.29711614034E+02  0.26330772243E+03  0.33089717803E+03  0.00000000000E+00 0.  1.
        -13    1    3    3    0    0  0.66350708290E+03 -0.72223532898E+02  0.89544258385E+03  0.11168148050E+04  0.00000000000E+00 0. -1.
         22    1    1    2    0    0 -0.86169690537E+03  0.42511918865E+02 -0.24704125766E+03  0.89741751875E+03  0.00000000000E+00 0.  1.
<mgrwt>
<rscale>  0 0.21606524E+04</rscale>
<asrwt>0</asrwt>
<pdfrwt beam="1">  1        2 0.25052604E+00 0.21606524E+04</pdfrwt>
<pdfrwt beam="2">  1       -2 0.11026311E+00 0.21606524E+04</pdfrwt>
<totfact> 0.64406097E+00</totfact>
</mgrwt>
</event>
<event>
 6    1  0.1603085E-006  0.1031314E+04  0.7818608E-02  0.9274851E-01
         -1   -1    0    0    0  501 -0.00000000000E+00  0.00000000000E+00  0.59610555673E+03  0.59610555673E+03  0.00000000000E+00 0.  1.
          1   -1    0    0  501    0  0.00000000000E+00 -0.00000000000E+00 -0.44606572514E+03  0.44606572514E+03  0.00000000000E+00 0. -1.
         23    2    1    2    0    0  0.11636541723E+03 -0.23332811928E+03 -0.37038808835E+03  0.46008182017E+03  0.80653727076E+02 0.  0.
         11    1    3    3    0    0  0.38664581294E+02 -0.16464357746E+03 -0.23548809885E+03  0.28992602874E+03  0.00000000000E+00 0.  1.
        -11    1    3    3    0    0  0.77700835933E+02 -0.68684541829E+02 -0.13489998950E+03  0.17015579143E+03  0.00000000000E+00 0. -1.
         22    1    1    2    0    0 -0.11636541723E+03  0.23332811928E+03  0.52042791993E+03  0.58208946170E+03  0.00000000000E+00 0.  1.
<mgrwt>
<rscale>  0 0.10313142E+04</rscale>
<asrwt>0</asrwt>
<pdfrwt beam="1">  1        1 0.68625496E-01 0.10313142E+04</pdfrwt>
<pdfrwt beam="2">  1       -1 0.91708547E-01 0.10313142E+04</pdfrwt>
<totfact> 0.60120363E+01</totfact>
</mgrwt>
</event>
<event>
 6    1  0.1603085E-006  0.2971703E+04  0.7818608E-02  0.8251858E-01
         -1   -1    0    0    0  501 -0.00000000000E+00  0.00000000000E+00  0.88049642686E+03  0.88049642686E+03  0.00000000000E+00 0.  1.
          1   -1    0    0  501    0  0.00000000000E+00 -0.00000000000E+00 -0.25073980431E+04  0.25073980431E+04  0.00000000000E+00 0. -1.
         23    2    1    2    0    0  0.12580363280E+04  0.53642137210E+03 -0.14722955664E+04  0.20115564586E+04  0.91114545778E+02 0.  0.
         13    1    3    3    0    0  0.53721649825E+03  0.25498644479E+03 -0.69637858640E+03  0.91573074024E+03  0.00000000000E+00 0. -1.
        -13    1    3    3    0    0  0.72081982970E+03  0.28143492731E+03 -0.77591698002E+03  0.10958257184E+04  0.00000000000E+00 0.  1.
         22    1    1    2    0    0 -0.12580363280E+04 -0.53642137210E+03 -0.15460604986E+03  0.13763380114E+04  0.00000000000E+00 0.  1.
<mgrwt>
<rscale>  0 0.29717032E+04</rscale>
<asrwt>0</asrwt>
<pdfrwt beam="1">  1        1 0.38575354E+00 0.29717032E+04</pdfrwt>
<pdfrwt beam="2">  1       -1 0.13546099E+00 0.29717032E+04</pdfrwt>
<totfact> 0.52132620E-01</totfact>
</mgrwt>
</event>
<event>
 6    1  0.1603085E-006  0.1476740E+04  0.7818608E-02  0.8900070E-01
         -1   -1    0    0    0  501 -0.00000000000E+00  0.00000000000E+00  0.17138885571E+03  0.17138885571E+03  0.00000000000E+00 0.  1.
          1   -1    0    0  501    0  0.00000000000E+00 -0.00000000000E+00 -0.31810138841E+04  0.31810138841E+04  0.00000000000E+00 0. -1.
         23    2    1    2    0    0  0.59028121063E+03  0.95296569534E+02 -0.53831510164E+03  0.80978871133E+03  0.91985132235E+02 0.  0.
         11    1    3    3    0    0  0.23769648771E+03  0.83458484865E+02 -0.23583398457E+03  0.34508347866E+03  0.00000000000E+00 0.  1.
        -11    1    3    3    0    0  0.35258472292E+03  0.11838084669E+02 -0.30248111706E+03  0.46470523266E+03  0.00000000000E+00 0. -1.
         22    1    1    2    0    0 -0.59028121063E+03 -0.95296569534E+02 -0.24713099268E+04  0.25426140285E+04  0.00000000000E+00 0. -1.
<mgrwt>
<rscale>  0 0.14767401E+04</rscale>
<asrwt>0</asrwt>
<pdfrwt beam="1">  1        1 0.48938673E+00 0.14767401E+04</pdfrwt>
<pdfrwt beam="2">  1       -1 0.26367517E-01 0.14767401E+04</pdfrwt>
<totfact> 0.54858696E+00</totfact>
</mgrwt>
</event>
<event>
 6    1  0.1603085E-006  0.1913863E+04  0.7818608E-02  0.8647987E-01
          2   -1    0    0  501    0  0.00000000000E+00  0.00000000000E+00  0.13970134861E+04  0.13970134861E+04  0.00000000000E+00 0. -1.
         -2   -1    0    0    0  501 -0.00000000000E+00 -0.00000000000E+00 -0.65548237139E+03  0.65548237139E+03  0.00000000000E+00 0.  1.
         23    2    1    2    0    0 -0.16285046174E+03  0.86601046962E+03 -0.22591815739E+02  0.88614331249E+03  0.90802939133E+02 0.  0.
         13    1    3    3    0    0 -0.13577310990E+03  0.50788376179E+03 -0.33960382241E+02  0.52681454083E+03  0.00000000000E+00 0.  1.
        -13    1    3    3    0    0 -0.27077351841E+02  0.35812670783E+03  0.11368566502E+02  0.35932877167E+03  0.00000000000E+00 0. -1.
         22    1    1    2    0    0  0.16285046174E+03 -0.86601046962E+03  0.76412293046E+03  0.11663525450E+04  0.00000000000E+00 0. -1.
<mgrwt>
<rscale>  0 0.19138628E+04</rscale>
<asrwt>0</asrwt>
<pdfrwt beam="1">  1        2 0.21492515E+00 0.19138628E+04</pdfrwt>
<pdfrwt beam="2">  1       -2 0.10084344E+00 0.19138628E+04</pdfrwt>
<totfact> 0.11005848E+01</totfact>
</mgrwt>
</event>
<event>
 6    1  0.1603085E-006  0.3916860E+04  0.7818608E-02  0.8021532E-01
         -2   -1    0    0    0  501 -0.00000000000E+00  0.00000000000E+00  0.22574725063E+04  0.22574725063E+04  0.00000000000E+00 0.  1.
          2   -1    0    0  501    0  0.00000000000E+00 -0.00000000000E+00 -0.16990007936E+04  0.16990007936E+04  0.00000000000E+00 0. -1.
         23    2    1    2    0    0 -0.18703992148E+04 -0.20491748525E+03  0.82405700477E+03  0.20562312242E+04  0.92911257064E+02 0.  0.
         11    1    3    3    0    0 -0.41959399401E+03 -0.94947119369E+01  0.16907801139E+03  0.45247833462E+03  0.00000000000E+00 0. -1.
        -11    1    3    3    0    0 -0.14508052208E+04 -0.19542277331E+03  0.65497899338E+03  0.16037528896E+04  0.00000000000E+00 0.  1.
         22    1    1    2    0    0  0.18703992148E+04  0.20491748525E+03 -0.26558529206E+03  0.19002420756E+04  0.00000000000E+00 0. -1.
<mgrwt>
<rscale>  0 0.39168598E+04</rscale>
<asrwt>0</asrwt>
<pdfrwt beam="1">  1        2 0.26138474E+00 0.39168598E+04</pdfrwt>
<pdfrwt beam="2">  1       -2 0.34730346E+00 0.39168598E+04</pdfrwt>
<totfact> 0.12613708E-01</totfact>
</mgrwt>
</event>
<event>
 6    1  0.1603085E-006  0.4387649E+04  0.7818608E-02  0.7930607E-01
          2   -1    0    0  501    0  0.00000000000E+00  0.00000000000E+00  0.14003977977E+04  0.14003977977E+04  0.00000000000E+00 0. -1.
         -2   -1    0    0    0  501 -0.00000000000E+00 -0.00000000000E+00 -0.34367853834E+04  0.34367853834E+04  0.00000000000E+00 0.  1.
         23    2    1    2    0    0  0.87881178217E+03  0.17641455601E+04 -0.20790400954E+04  0.28658032222E+04  0.76815911641E+02 0.  0.
         11    1    3    3    0    0  0.81375048461E+03  0.15838189792E+04 -0.18841613954E+04  0.25924383453E+04  0.00000000000E+00 0. -1.
        -11    1    3    3    0    0  0.65061297563E+02  0.18032658088E+03 -0.19487870004E+03  0.27336487694E+03  0.00000000000E+00 0.  1.
         22    1    1    2    0    0 -0.87881178217E+03 -0.17641455601E+04  0.42652509788E+02  0.19713799589E+04  0.00000000000E+00 0. -1.
<mgrwt>
<rscale>  0 0.43876493E+04</rscale>
<asrwt>0</asrwt>
<pdfrwt beam="1">  1        2 0.21544582E+00 0.43876493E+04</pdfrwt>
<pdfrwt beam="2">  1       -2 0.52873621E+00 0.43876493E+04</pdfrwt>
<totfact> 0.12357231E-02</totfact>
</mgrwt>
</event>
<event>
 6    1  0.1603085E-006  0.1670462E+04  0.7818608E-02  0.8778393E-01
          2   -1    0    0  501    0  0.00000000000E+00  0.00000000000E+00  0.54189563847E+03  0.54189563847E+03  0.00000000000E+00 0. -1.
         -2   -1    0    0    0  501 -0.00000000000E+00 -0.00000000000E+00 -0.12873521040E+04  0.12873521040E+04  0.00000000000E+00 0.  1.
         23    2    1    2    0    0  0.10245195481E+03 -0.44236358504E+03 -0.11381838564E+04  0.12289005530E+04  0.92477747998E+02 0.  0.
         13    1    3    3    0    0  0.46897974919E+02 -0.81110502816E+02 -0.30517651709E+03  0.31923508626E+03  0.00000000000E+00 0. -1.
        -13    1    3    3    0    0  0.55553979892E+02 -0.36125308223E+03 -0.83300733929E+03  0.90966546676E+03  0.00000000000E+00 0.  1.
         22    1    1    2    0    0 -0.10245195481E+03  0.44236358504E+03  0.39272739082E+03  0.60034718948E+03  0.00000000000E+00 0. -1.
<mgrwt>
<rscale>  0 0.16704616E+04</rscale>
<asrwt>0</asrwt>
<pdfrwt beam="1">  1        2 0.83368560E-01 0.16704616E+04</pdfrwt>
<pdfrwt beam="2">  1       -2 0.19805417E+00 0.16704616E+04</pdfrwt>
<totfact> 0.73130818E+00</totfact>
</mgrwt>
</event>
<event>
 6    1  0.1603085E-006  0.1510227E+04  0.7818608E-02  0.8877680E-01
          1   -1    0    0  501    0  0.00000000000E+00  0.00000000000E+00  0.14544251080E+04  0.14544251080E+04  0.00000000000E+00 0. -1.
         -1   -1    0    0    0  501 -0.00000000000E+00 -0.00000000000E+00 -0.39204255361E+03  0.39204255361E+03  0.00000000000E+00 0.  1.
         23    2    1    2    0    0 -0.27818913767E+03 -0.36512643244E+02 -0.32021003085E+03  0.43569318418E+03  0.92583570124E+02 0.  0.
         11    1    3    3    0    0 -0.26588388945E+03 -0.16192809846E+02 -0.31270441383E+03  0.41078035516E+03  0.00000000000E+00 0. -1.
        -11    1    3    3    0    0 -0.12305248215E+02 -0.20319833398E+02 -0.75056170187E+01  0.24912829020E+02  0.00000000000E+00 0.  1.
         22    1    1    2    0    0  0.27818913767E+03  0.36512643244E+02  0.13825925853E+04  0.14107744775E+04  0.00000000000E+00 0. -1.
<mgrwt>
<rscale>  0 0.15102272E+04</rscale>
<asrwt>0</asrwt>
<pdfrwt beam="1">  1        1 0.22375771E+00 0.15102272E+04</pdfrwt>
<pdfrwt beam="2">  1       -1 0.60314240E-01 0.15102272E+04</pdfrwt>
<totfact> 0.18958904E+01</totfact>
</mgrwt>
</event>
<event>
 6    1  0.1603085E-006  0.1297870E+04  0.7818608E-02  0.9031256E-01
         -1   -1    0    0    0  501 -0.00000000000E+00  0.00000000000E+00  0.33987098813E+03  0.33987098813E+03  0.00000000000E+00 0.  1.
          1   -1    0    0  501    0  0.00000000000E+00 -0.00000000000E+00 -0.12390480927E+04  0.12390480927E+04  0.00000000000E+00 0. -1.
         23    2    1    2    0    0  0.73947760616E+02  0.41924991266E+03  0.13881104421E+03  0.45701972814E+03  0.91431752432E+02 0.  0.
         11    1    3    3    0    0  0.23445446927E+02  0.34382958972E+03  0.10755450184E+03  0.36102139357E+03  0.00000000000E+00 0.  1.
        -11    1    3    3    0    0  0.50502313689E+02  0.75420322941E+02  0.31256542365E+02  0.95998334575E+02  0.00000000000E+00 0. -1.
         22    1    1    2    0    0 -0.73947760616E+02 -0.41924991266E+03 -0.10379881488E+04  0.11218993527E+04  0.00000000000E+00 0. -1.
<mgrwt>
<rscale>  0 0.12978698E+04</rscale>
<asrwt>0</asrwt>
<pdfrwt beam="1">  1        1 0.19062278E+00 0.12978698E+04</pdfrwt>
<pdfrwt beam="2">  1       -1 0.52287845E-01 0.12978698E+04</pdfrwt>
<totfact> 0.36226886E+01</totfact>
</mgrwt>
</event>
<event>
 6    1  0.1603085E-006  0.8181865E+03  0.7818608E-02  0.9534060E-01
          1   -1    0    0  501    0  0.00000000000E+00  0.00000000000E+00  0.54801538068E+03  0.54801538068E+03  0.00000000000E+00 0. -1.
         -1   -1    0    0    0  501 -0.00000000000E+00 -0.00000000000E+00 -0.30538791492E+03  0.30538791492E+03  0.00000000000E+00 0.  1.
         23    2    1    2    0    0  0.34413739229E+03 -0.15856046663E+03 -0.24753004916E+02  0.38965305846E+03  0.87434709143E+02 0.  0.
         11    1    3    3    0    0  0.11275682305E+03 -0.94963976081E+02  0.70845766569E+01  0.14758878387E+03  0.00000000000E+00 0.  1.
        -11    1    3    3    0    0  0.23138056924E+03 -0.63596490546E+02 -0.31837581573E+02  0.24206427459E+03  0.00000000000E+00 0. -1.
         22    1    1    2    0    0 -0.34413739229E+03  0.15856046663E+03  0.26738047067E+03  0.46375023714E+03  0.00000000000E+00 0.  1.
<mgrwt>
<rscale>  0 0.81818647E+03</rscale>
<asrwt>0</asrwt>
<pdfrwt beam="1">  1        1 0.84310058E-01 0.81818647E+03</pdfrwt>
<pdfrwt beam="2">  1       -1 0.46982756E-01 0.81818647E+03</pdfrwt>
<totfact> 0.17797957E+02</totfact>
</mgrwt>
</event>
<event>
 6    1  0.1603085E-006  0.1054646E+04  0.7818608E-02  0.9250561E-01
          2   -1    0    0  501    0  0.00000000000E+00  0.00000000000E+00  0.12355456094E+04  0.12355456094E+04  0.00000000000E+00 0. -1.
         -2   -1    0    0    0  501 -0.00000000000E+00 -0.00000000000E+00 -0.22505797046E+03  0.22505797046E+03  0.00000000000E+00 0.  1.
         23    2    1    2    0    0  0.12744845674E+03 -0.34554624024E+03  0.39800471591E+00  0.38546341112E+03  0.11373904181E+03 0.  0.
         11    1    3    3    0    0  0.35666158507E+02 -0.23785996791E+03 -0.24618462685E+02  0.24177573886E+03  0.00000000000E+00 0. -1.
        -11    1    3    3    0    0  0.91782298232E+02 -0.10768627233E+03  0.25016467401E+02  0.14368767226E+03  0.00000000000E+00 0.  1.
         22    1    1    2    0    0 -0.12744845674E+03  0.34554624024E+03  0.10100896343E+04  0.10751401688E+04  0.00000000000E+00 0. -1.
<mgrwt>
<rscale>  0 0.10546457E+04</rscale>
<asrwt>0</asrwt>
<pdfrwt beam="1">  1        2 0.19008394E+00 0.10546457E+04</pdfrwt>
<pdfrwt beam="2">  1       -2 0.34624304E-01 0.10546457E+04</pdfrwt>
<totfact> 0.14028108E+02</totfact>
</mgrwt>
</event>
<event>
 6    1  0.1603085E-006  0.2022330E+04  0.7818608E-02  0.8596251E-01
         -2   -1    0    0    0  501 -0.00000000000E+00  0.00000000000E+00  0.87418936596E+03  0.87418936596E+03  0.00000000000E+00 0. -1.
          2   -1    0    0  501    0  0.00000000000E+00 -0.00000000000E+00 -0.11696032039E+04  0.11696032039E+04  0.00000000000E+00 0.  1.
         23    2    1    2    0    0 -0.69095291143E+03  0.29911017282E+03  0.53093861345E+03  0.92587432811E+03  0.92003472189E+02 0.  0.
         11    1    3    3    0    0 -0.61133496629E+03  0.29500166142E+03  0.47442936965E+03  0.82815436244E+03  0.00000000000E+00 0.  1.
        -11    1    3    3    0    0 -0.79617945143E+02  0.41085114055E+01  0.56509243800E+02  0.97719965665E+02  0.00000000000E+00 0. -1.
         22    1    1    2    0    0  0.69095291143E+03 -0.29911017282E+03 -0.82635245135E+03  0.11179182417E+04  0.00000000000E+00 0.  1.
<mgrwt>
<rscale>  0 0.20223300E+04</rscale>
<asrwt>0</asrwt>
<pdfrwt beam="1">  1        2 0.17993895E+00 0.20223300E+04</pdfrwt>
<pdfrwt beam="2">  1       -2 0.13449067E+00 0.20223300E+04</pdfrwt>
<totfact> 0.72985994E+00</totfact>
</mgrwt>
</event>
<event>
 6    1  0.1603085E-006  0.1565822E+04  0.7818608E-02  0.8841824E-01
         -2   -1    0    0    0  501 -0.00000000000E+00  0.00000000000E+00  0.34910543743E+03  0.34910543743E+03  0.00000000000E+00 0.  1.
          2   -1    0    0  501    0  0.00000000000E+00 -0.00000000000E+00 -0.17557725310E+04  0.17557725310E+04  0.00000000000E+00 0. -1.
         23    2    1    2    0    0  0.89822972349E+02  0.31920121667E+03  0.24330528055E+03  0.42191438641E+03  0.94110078281E+02 0.  0.
         13    1    3    3    0    0  0.50417577026E+02  0.14888163271E+03  0.17229656095E+03  0.23322473614E+03  0.00000000000E+00 0. -1.
        -13    1    3    3    0    0  0.39405395323E+02  0.17031958396E+03  0.71008719594E+02  0.18868965027E+03  0.00000000000E+00 0.  1.
         22    1    1    2    0    0 -0.89822972349E+02 -0.31920121667E+03 -0.16499723741E+04  0.16829635820E+04  0.00000000000E+00 0. -1.
<mgrwt>
<rscale>  0 0.15658221E+04</rscale>
<asrwt>0</asrwt>
<pdfrwt beam="1">  1        2 0.27011885E+00 0.15658221E+04</pdfrwt>
<pdfrwt beam="2">  1       -2 0.53708529E-01 0.15658221E+04</pdfrwt>
<totfact> 0.28670816E+01</totfact>
</mgrwt>
</event>
<event>
 6    1  0.1603085E-006  0.3268889E+04  0.7818608E-02  0.8170857E-01
         -2   -1    0    0    0  501 -0.00000000000E+00  0.00000000000E+00  0.75444757962E+03  0.75444757962E+03  0.00000000000E+00 0.  1.
          2   -1    0    0  501    0  0.00000000000E+00 -0.00000000000E+00 -0.35408809099E+04  0.35408809099E+04  0.00000000000E+00 0. -1.
         23    2    1    2    0    0  0.49919951544E+03  0.48472346159E+03  0.54719864565E+03  0.88985361202E+03  0.90863098063E+02 0.  0.
         11    1    3    3    0    0  0.12454969506E+03  0.14411670559E+03  0.10440452638E+03  0.21721546101E+03  0.00000000000E+00 0.  1.
        -11    1    3    3    0    0  0.37464982038E+03  0.34060675600E+03  0.44279411926E+03  0.67263815101E+03  0.00000000000E+00 0. -1.
         22    1    1    2    0    0 -0.49919951544E+03 -0.48472346159E+03 -0.33336319759E+04  0.34054748775E+04  0.00000000000E+00 0. -1.
<mgrwt>
<rscale>  0 0.32688891E+04</rscale>
<asrwt>0</asrwt>
<pdfrwt beam="1">  1        2 0.54475092E+00 0.32688891E+04</pdfrwt>
<pdfrwt beam="2">  1       -2 0.11606886E+00 0.32688891E+04</pdfrwt>
<totfact> 0.36670772E-01</totfact>
</mgrwt>
</event>
<event>
 6    1  0.1603085E-006  0.2255057E+04  0.7818608E-02  0.8495855E-01
         -2   -1    0    0    0  501 -0.00000000000E+00  0.00000000000E+00  0.20446561746E+04  0.20446561746E+04  0.00000000000E+00 0.  1.
          2   -1    0    0  501    0  0.00000000000E+00 -0.00000000000E+00 -0.62177698810E+03  0.62177698810E+03  0.00000000000E+00 0. -1.
         23    2    1    2    0    0 -0.74125365963E+03 -0.81992129809E+02  0.17096652742E+04  0.18674175449E+04  0.90073524192E+02 0.  0.
         13    1    3    3    0    0 -0.25135817018E+03 -0.29853620055E+02  0.47821722328E+03  0.54107659438E+03  0.00000000000E+00 0.  1.
        -13    1    3    3    0    0 -0.48989548944E+03 -0.52138509755E+02  0.12314480510E+04  0.13263409505E+04  0.00000000000E+00 0. -1.
         22    1    1    2    0    0  0.74125365963E+03  0.81992129809E+02 -0.28678608779E+03  0.79901561775E+03  0.00000000000E+00 0. -1.
<mgrwt>
<rscale>  0 0.22550567E+04</rscale>
<asrwt>0</asrwt>
<pdfrwt beam="1">  1        2 0.95657999E-01 0.22550567E+04</pdfrwt>
<pdfrwt beam="2">  1       -2 0.31456248E+00 0.22550567E+04</pdfrwt>
<totfact> 0.11185529E+00</totfact>
</mgrwt>
</event>
<event>
 6    1  0.1603085E-006  0.5555047E+04  0.7818608E-02  0.7748160E-01
          1   -1    0    0  501    0  0.00000000000E+00  0.00000000000E+00  0.42920753127E+04  0.42920753127E+04  0.00000000000E+00 0. -1.
         -1   -1    0    0    0  501 -0.00000000000E+00 -0.00000000000E+00 -0.17974140770E+04  0.17974140770E+04  0.00000000000E+00 0.  1.
         23    2    1    2    0    0  0.15201103174E+04  0.18098019258E+04  0.28454191391E+04  0.37001067300E+04  0.90891962690E+02 0.  0.
         11    1    3    3    0    0  0.71217558747E+03  0.77891190014E+03  0.12563647119E+04  0.16408382324E+04  0.00000000000E+00 0. -1.
        -11    1    3    3    0    0  0.80793472993E+03  0.10308900256E+04  0.15890544273E+04  0.20592684977E+04  0.00000000000E+00 0.  1.
         22    1    1    2    0    0 -0.15201103174E+04 -0.18098019258E+04 -0.35075790348E+03  0.23893826597E+04  0.00000000000E+00 0.  1.
<mgrwt>
<rscale>  0 0.55550469E+04</rscale>
<asrwt>0</asrwt>
<pdfrwt beam="1">  1        1 0.66031928E+00 0.55550469E+04</pdfrwt>
<pdfrwt beam="2">  1       -1 0.27652524E+00 0.55550469E+04</pdfrwt>
<totfact> 0.16674361E-03</totfact>
</mgrwt>
</event>
<event>
 6    1  0.1603085E-006  0.1766118E+04  0.7818608E-02  0.8724528E-01
         -1   -1    0    0    0  501 -0.00000000000E+00  0.00000000000E+00  0.15355128579E+04  0.15355128579E+04  0.00000000000E+00 0.  1.
          1   -1    0    0  501    0  0.00000000000E+00 -0.00000000000E+00 -0.50783889783E+03  0.50783889783E+03  0.00000000000E+00 0. -1.
         23    2    1    2    0    0  0.11064458879E+03 -0.97864851010E+02  0.15196697886E+04  0.15296595819E+04  0.92964594867E+02 0.  0.
         11    1    3    3    0    0  0.80467064828E+02 -0.21660332911E+02  0.51992490706E+03  0.52656056397E+03  0.00000000000E+00 0.  1.
        -11    1    3    3    0    0  0.30177523962E+02 -0.76204518099E+02  0.99974488156E+03  0.10030990179E+04  0.00000000000E+00 0. -1.
         22    1    1    2    0    0 -0.11064458879E+03  0.97864851010E+02 -0.49199582859E+03  0.51369217381E+03  0.00000000000E+00 0. -1.
<mgrwt>
<rscale>  0 0.17661180E+04</rscale>
<asrwt>0</asrwt>
<pdfrwt beam="1">  1        1 0.78129062E-01 0.17661180E+04</pdfrwt>
<pdfrwt beam="2">  1       -1 0.23623275E+00 0.17661180E+04</pdfrwt>
<totfact> 0.35235824E+00</totfact>
</mgrwt>
</event>
<event>
 6    1  0.1603085E-006  0.1787413E+04  0.7818608E-02  0.8713022E-01
          2   -1    0    0  501    0  0.00000000000E+00  0.00000000000E+00  0.12604905082E+04  0.12604905082E+04  0.00000000000E+00 0. -1.
         -2   -1    0    0    0  501 -0.00000000000E+00 -0.00000000000E+00 -0.63365119783E+03  0.63365119783E+03  0.00000000000E+00 0.  1.
         23    2    1    2    0    0  0.23269349469E+03 -0.60518068813E+03  0.96240264848E+03  0.11640782282E+04  0.92028993852E+02 0.  0.
         13    1    3    3    0    0  0.96720970372E+02 -0.14376621870E+03  0.27664980691E+03  0.32643343489E+03  0.00000000000E+00 0.  1.
        -13    1    3    3    0    0  0.13597252431E+03 -0.46141446943E+03  0.68575284157E+03  0.83764479327E+03  0.00000000000E+00 0. -1.
         22    1    1    2    0    0 -0.23269349469E+03  0.60518068813E+03 -0.33556333815E+03  0.73006347783E+03  0.00000000000E+00 0.  1.
<mgrwt>
<rscale>  0 0.17874130E+04</rscale>
<asrwt>0</asrwt>
<pdfrwt beam="1">  1        2 0.19392162E+00 0.17874130E+04</pdfrwt>
<pdfrwt beam="2">  1       -2 0.97484800E-01 0.17874130E+04</pdfrwt>
<totfact> 0.14457698E+01</totfact>
</mgrwt>
</event>
<event>
 6    1  0.1603085E-006  0.2602290E+04  0.7818608E-02  0.8367424E-01
          2   -1    0    0  501    0  0.00000000000E+00  0.00000000000E+00  0.23531730455E+04  0.23531730455E+04  0.00000000000E+00 0. -1.
         -2   -1    0    0    0  501 -0.00000000000E+00 -0.00000000000E+00 -0.71944499455E+03  0.71944499455E+03  0.00000000000E+00 0.  1.
         23    2    1    2    0    0 -0.10637594546E+04 -0.67774832290E+03  0.44824325413E+03  0.13416353220E+04  0.90201750946E+02 0.  0.
         13    1    3    3    0    0 -0.60330824118E+03 -0.33182066057E+03  0.23637420971E+03  0.72798252154E+03  0.00000000000E+00 0.  1.
        -13    1    3    3    0    0 -0.46045121347E+03 -0.34592766234E+03  0.21186904442E+03  0.61365280048E+03  0.00000000000E+00 0. -1.
         22    1    1    2    0    0  0.10637594546E+04  0.67774832290E+03  0.11854847968E+04  0.17309827180E+04  0.00000000000E+00 0. -1.
<mgrwt>
<rscale>  0 0.26022902E+04</rscale>
<asrwt>0</asrwt>
<pdfrwt beam="1">  1        2 0.36202662E+00 0.26022902E+04</pdfrwt>
<pdfrwt beam="2">  1       -2 0.11068385E+00 0.26022902E+04</pdfrwt>
<totfact> 0.24199001E+00</totfact>
</mgrwt>
</event>
<event>
 6    1  0.1603085E-006  0.1503554E+04  0.7818608E-02  0.8882093E-01
         -1   -1    0    0    0  501 -0.00000000000E+00  0.00000000000E+00  0.11636273588E+04  0.11636273588E+04  0.00000000000E+00 0.  1.
          1   -1    0    0  501    0  0.00000000000E+00 -0.00000000000E+00 -0.48569582495E+03  0.48569582495E+03  0.00000000000E+00 0. -1.
         23    2    1    2    0    0 -0.46919783373E+03 -0.67087399722E+02 -0.29598821523E+03  0.56619484232E+03  0.91215401804E+02 0.  0.
         13    1    3    3    0    0 -0.13287274840E+03  0.45460093445E+01 -0.44589382648E+02  0.14022855099E+03  0.00000000000E+00 0.  1.
        -13    1    3    3    0    0 -0.33632508533E+03 -0.71633409067E+02 -0.25139883258E+03  0.42596629132E+03  0.00000000000E+00 0. -1.
         22    1    1    2    0    0  0.46919783373E+03  0.67087399722E+02  0.97391974907E+03  0.10831283414E+04  0.00000000000E+00 0.  1.
<mgrwt>
<rscale>  0 0.15035544E+04</rscale>
<asrwt>0</asrwt>
<pdfrwt beam="1">  1        1 0.74722435E-01 0.15035544E+04</pdfrwt>
<pdfrwt beam="2">  1       -1 0.17901959E+00 0.15035544E+04</pdfrwt>
<totfact> 0.94354753E+00</totfact>
</mgrwt>
</event>
<event>
 6    1  0.1603085E-006  0.1459738E+04  0.7818608E-02  0.8911677E-01
         -1   -1    0    0    0  501 -0.00000000000E+00  0.00000000000E+00  0.96270392804E+03  0.96270392804E+03  0.00000000000E+00 0.  1.
          1   -1    0    0  501    0  0.00000000000E+00 -0.00000000000E+00 -0.55334628878E+03  0.55334628878E+03  0.00000000000E+00 0. -1.
         23    2    1    2    0    0 -0.33221993379E+03 -0.15270168670E+03  0.85804652865E+03  0.93725007084E+03  0.92227763821E+02 0.  0.
         13    1    3    3    0    0 -0.29729938877E+03 -0.15837272933E+03  0.81263527743E+03  0.87968456965E+03  0.00000000000E+00 0. -1.
        -13    1    3    3    0    0 -0.34920545024E+02  0.56710426269E+01  0.45411251226E+02  0.57565501190E+02  0.00000000000E+00 0.  1.
         22    1    1    2    0    0  0.33221993379E+03  0.15270168670E+03 -0.44868888939E+03  0.57880014599E+03  0.00000000000E+00 0. -1.
<mgrwt>
<rscale>  0 0.14597378E+04</rscale>
<asrwt>0</asrwt>
<pdfrwt beam="1">  1        1 0.85130198E-01 0.14597378E+04</pdfrwt>
<pdfrwt beam="2">  1       -1 0.14810830E+00 0.14597378E+04</pdfrwt>
<totfact> 0.13476162E+01</totfact>
</mgrwt>
</event>
<event>
 6    1  0.1603085E-006  0.2212128E+04  0.7818608E-02  0.8513397E-01
         -1   -1    0    0    0  501 -0.00000000000E+00  0.00000000000E+00  0.84906083591E+03  0.84906083591E+03  0.00000000000E+00 0.  1.
          1   -1    0    0  501    0  0.00000000000E+00 -0.00000000000E+00 -0.14408593265E+04  0.14408593265E+04  0.00000000000E+00 0. -1.
         23    2    1    2    0    0 -0.67148776683E+03  0.57352306477E+01 -0.12037484825E+04  0.13813985575E+04  0.91229664266E+02 0.  0.
         11    1    3    3    0    0 -0.63321423331E+03  0.11065159271E+02 -0.11685309800E+04  0.13291152524E+04  0.00000000000E+00 0. -1.
        -11    1    3    3    0    0 -0.38273533519E+02 -0.53299286232E+01 -0.35217502559E+02  0.52283305114E+02  0.00000000000E+00 0.  1.
         22    1    1    2    0    0  0.67148776683E+03 -0.57352306477E+01  0.61194999196E+03  0.90852160488E+03  0.00000000000E+00 0.  1.
<mgrwt>
<rscale>  0 0.22121277E+04</rscale>
<asrwt>0</asrwt>
<pdfrwt beam="1">  1        1 0.22167066E+00 0.22121277E+04</pdfrwt>
<pdfrwt beam="2">  1       -1 0.13062474E+00 0.22121277E+04</pdfrwt>
<totfact> 0.32821047E+00</totfact>
</mgrwt>
</event>
<event>
 6    1  0.1603085E-006  0.7540040E+03  0.7818608E-02  0.9629090E-01
          1   -1    0    0  501    0  0.00000000000E+00  0.00000000000E+00  0.92536980879E+03  0.92536980879E+03  0.00000000000E+00 0. -1.
         -1   -1    0    0    0  501 -0.00000000000E+00 -0.00000000000E+00 -0.15359318778E+03  0.15359318778E+03  0.00000000000E+00 0.  1.
         23    2    1    2    0    0  0.74676031203E+02  0.13282705290E+03 -0.94446311642E+02  0.19943942972E+03  0.87386753714E+02 0.  0.
         13    1    3    3    0    0 -0.43955606882E+01  0.24417363230E+02  0.12565516438E+02  0.27810443797E+02  0.00000000000E+00 0.  1.
        -13    1    3    3    0    0  0.79071591891E+02  0.10840968967E+03 -0.10701182808E+03  0.17162898592E+03  0.00000000000E+00 0. -1.
         22    1    1    2    0    0 -0.74676031203E+02 -0.13282705290E+03  0.86622293265E+03  0.87952356686E+03  0.00000000000E+00 0. -1.
<mgrwt>
<rscale>  0 0.75400398E+03</rscale>
<asrwt>0</asrwt>
<pdfrwt beam="1">  1        1 0.14236458E+00 0.75400398E+03</pdfrwt>
<pdfrwt beam="2">  1       -1 0.23629722E-01 0.75400398E+03</pdfrwt>
<totfact> 0.27052114E+02</totfact>
</mgrwt>
</event>
<event>
 6    1  0.1603085E-006  0.3933775E+04  0.7818608E-02  0.8018041E-01
          1   -1    0    0  501    0  0.00000000000E+00  0.00000000000E+00  0.31078919793E+04  0.31078919793E+04  0.00000000000E+00 0. -1.
         -1   -1    0    0    0  501 -0.00000000000E+00 -0.00000000000E+00 -0.12447812693E+04  0.12447812693E+04  0.00000000000E+00 0.  1.
         23    2    1    2    0    0  0.23235539697E+03 -0.11267019682E+04 -0.83210355639E+03  0.14222080471E+04  0.82662234220E+02 0.  0.
         13    1    3    3    0    0  0.11225850590E+03 -0.51179964487E+03 -0.32903927646E+03  0.61871454976E+03  0.00000000000E+00 0.  1.
        -13    1    3    3    0    0  0.12009689107E+03 -0.61490232331E+03 -0.50306427994E+03  0.80349349730E+03  0.00000000000E+00 0. -1.
         22    1    1    2    0    0 -0.23235539697E+03  0.11267019682E+04  0.26952142664E+04  0.29304652015E+04  0.00000000000E+00 0. -1.
<mgrwt>
<rscale>  0 0.39337746E+04</rscale>
<asrwt>0</asrwt>
<pdfrwt beam="1">  1        1 0.47813722E+00 0.39337746E+04</pdfrwt>
<pdfrwt beam="2">  1       -1 0.19150481E+00 0.39337746E+04</pdfrwt>
<totfact> 0.67519208E-02</totfact>
</mgrwt>
</event>
<event>
 6    1  0.1603085E-006  0.1728705E+04  0.7818608E-02  0.8745160E-01
          1   -1    0    0  501    0  0.00000000000E+00  0.00000000000E+00  0.24009860045E+04  0.24009860045E+04  0.00000000000E+00 0. -1.
         -1   -1    0    0    0  501 -0.00000000000E+00 -0.00000000000E+00 -0.31116597100E+03  0.31116597100E+03  0.00000000000E+00 0.  1.
         23    2    1    2    0    0 -0.72586025317E+03  0.23492996360E+03  0.41858901824E+03  0.87501335763E+03  0.91468108648E+02 0.  0.
         11    1    3    3    0    0 -0.89585937805E+02  0.42435542397E+01  0.69645555729E+02  0.11355241714E+03  0.00000000000E+00 0. -1.
        -11    1    3    3    0    0 -0.63627431537E+03  0.23068640936E+03  0.34894346251E+03  0.76146094049E+03  0.00000000000E+00 0.  1.
         22    1    1    2    0    0  0.72586025317E+03 -0.23492996360E+03  0.16712310153E+04  0.18371386179E+04  0.00000000000E+00 0. -1.
<mgrwt>
<rscale>  0 0.17287049E+04</rscale>
<asrwt>0</asrwt>
<pdfrwt beam="1">  1        1 0.36938245E+00 0.17287049E+04</pdfrwt>
<pdfrwt beam="2">  1       -1 0.47871689E-01 0.17287049E+04</pdfrwt>
<totfact> 0.65718298E+00</totfact>
</mgrwt>
</event>
<event>
 6    1  0.1603085E-006  0.1451622E+04  0.7818608E-02  0.8917277E-01
          3   -1    0    0  501    0  0.00000000000E+00  0.00000000000E+00  0.99966192849E+03  0.99966192849E+03  0.00000000000E+00 0. -1.
         -3   -1    0    0    0  501 -0.00000000000E+00 -0.00000000000E+00 -0.52697988798E+03  0.52697988798E+03  0.00000000000E+00 0.  1.
         23    2    1    2    0    0 -0.45191824132E+03  0.54504726771E+03  0.39071825230E+03  0.81388331357E+03  0.91862258610E+02 0.  0.
         11    1    3    3    0    0 -0.26132539255E+03  0.33662566817E+03  0.28324383165E+03  0.51169802563E+03  0.00000000000E+00 0.  1.
        -11    1    3    3    0    0 -0.19059284877E+03  0.20842159954E+03  0.10747442064E+03  0.30218528794E+03  0.00000000000E+00 0. -1.
         22    1    1    2    0    0  0.45191824132E+03 -0.54504726771E+03  0.81963788212E+02  0.71275850290E+03  0.00000000000E+00 0.  1.
<mgrwt>
<rscale>  0 0.14516222E+04</rscale>
<asrwt>0</asrwt>
<pdfrwt beam="1">  1        3 0.15379414E+00 0.14516222E+04</pdfrwt>
<pdfrwt beam="2">  1       -3 0.81073829E-01 0.14516222E+04</pdfrwt>
<totfact> 0.10872090E+00</totfact>
</mgrwt>
</event>
<event>
 6    1  0.1603085E-006  0.4126142E+04  0.7818608E-02  0.7979572E-01
         -2   -1    0    0    0  501 -0.00000000000E+00  0.00000000000E+00  0.12610369200E+04  0.12610369200E+04  0.00000000000E+00 0. -1.
          2   -1    0    0  501    0  0.00000000000E+00 -0.00000000000E+00 -0.33752083383E+04  0.33752083383E+04  0.00000000000E+00 0.  1.
         23    2    1    2    0    0  0.37556127210E+03 -0.19149985632E+04 -0.30891045958E+03  0.19778184876E+04  0.89858398023E+02 0.  0.
         13    1    3    3    0    0  0.82983777456E+02 -0.30355247064E+03 -0.73905070683E+02  0.32325279461E+03  0.00000000000E+00 0. -1.
        -13    1    3    3    0    0  0.29257749464E+03 -0.16114460925E+04 -0.23500538889E+03  0.16545656930E+04  0.00000000000E+00 0.  1.
         22    1    1    2    0    0 -0.37556127210E+03  0.19149985632E+04 -0.18052609587E+04  0.26584267707E+04  0.00000000000E+00 0. -1.
<mgrwt>
<rscale>  0 0.41261422E+04</rscale>
<asrwt>0</asrwt>
<pdfrwt beam="1">  1        2 0.51926281E+00 0.41261422E+04</pdfrwt>
<pdfrwt beam="2">  1       -2 0.19400568E+00 0.41261422E+04</pdfrwt>
<totfact> 0.11263205E-01</totfact>
</mgrwt>
</event>
<event>
 6    1  0.1603085E-006  0.3027880E+04  0.7818608E-02  0.8235814E-01
         -1   -1    0    0    0  501 -0.00000000000E+00  0.00000000000E+00  0.16295219930E+04  0.16295219930E+04  0.00000000000E+00 0.  1.
          1   -1    0    0  501    0  0.00000000000E+00 -0.00000000000E+00 -0.14065561588E+04  0.14065561588E+04  0.00000000000E+00 0. -1.
         23    2    1    2    0    0 -0.42095710449E+03 -0.14468102023E+04 -0.20553111433E+02  0.15097210106E+04  0.91490186939E+02 0.  0.
         13    1    3    3    0    0 -0.17152571608E+03 -0.74096197887E+03 -0.27755416799E+02  0.76106247350E+03  0.00000000000E+00 0.  1.
        -13    1    3    3    0    0 -0.24943138841E+03 -0.70584822342E+03  0.72023053666E+01  0.74865853714E+03  0.00000000000E+00 0. -1.
         22    1    1    2    0    0  0.42095710449E+03  0.14468102023E+04  0.24351894562E+03  0.15263571411E+04  0.00000000000E+00 0. -1.
<mgrwt>
<rscale>  0 0.30278799E+04</rscale>
<asrwt>0</asrwt>
<pdfrwt beam="1">  1        1 0.21639325E+00 0.30278799E+04</pdfrwt>
<pdfrwt beam="2">  1       -1 0.25069569E+00 0.30278799E+04</pdfrwt>
<totfact> 0.44528508E-01</totfact>
</mgrwt>
</event>
<event>
 6    1  0.1603085E-006  0.4557074E+04  0.7818608E-02  0.7900720E-01
          2   -1    0    0  501    0  0.00000000000E+00  0.00000000000E+00  0.33962772873E+04  0.33962772873E+04  0.00000000000E+00 0. -1.
         -2   -1    0    0    0  501 -0.00000000000E+00 -0.00000000000E+00 -0.15286530911E+04  0.15286530911E+04  0.00000000000E+00 0.  1.
         23    2    1    2    0    0 -0.18349307609E+04  0.74139703513E+03 -0.28398354214E+03  0.20015665076E+04  0.94770096012E+02 0.  0.
         11    1    3    3    0    0 -0.14825306571E+04  0.63328765540E+03 -0.24996524981E+03  0.16313899074E+04  0.00000000000E+00 0.  1.
        -11    1    3    3    0    0 -0.35240010378E+03  0.10810937972E+03 -0.34018292323E+02  0.37017660021E+03  0.00000000000E+00 0. -1.
         22    1    1    2    0    0  0.18349307609E+04 -0.74139703513E+03  0.21516077384E+04  0.29233638708E+04  0.00000000000E+00 0.  1.
<mgrwt>
<rscale>  0 0.45570735E+04</rscale>
<asrwt>0</asrwt>
<pdfrwt beam="1">  1        2 0.52250419E+00 0.45570735E+04</pdfrwt>
<pdfrwt beam="2">  1       -2 0.23517740E+00 0.45570735E+04</pdfrwt>
<totfact> 0.57315563E-02</totfact>
</mgrwt>
</event>
<event>
 6    1  0.1603085E-006  0.2099887E+04  0.7818608E-02  0.8561293E-01
          2   -1    0    0  501    0  0.00000000000E+00  0.00000000000E+00  0.22369512963E+04  0.22369512963E+04  0.00000000000E+00 0. -1.
         -2   -1    0    0    0  501 -0.00000000000E+00 -0.00000000000E+00 -0.49280548891E+03  0.49280548891E+03  0.00000000000E+00 0.  1.
         23    2    1    2    0    0  0.37433481134E+03 -0.19805875270E+03 -0.37241801897E+03  0.57123964338E+03  0.90916053706E+02 0.  0.
         11    1    3    3    0    0  0.30895161903E+03 -0.12091712606E+03 -0.29363107409E+03  0.44304769715E+03  0.00000000000E+00 0.  1.
        -11    1    3    3    0    0  0.65383192310E+02 -0.77141626640E+02 -0.78786944875E+02  0.12819194624E+03  0.00000000000E+00 0. -1.
         22    1    1    2    0    0 -0.37433481134E+03  0.19805875270E+03  0.21165638264E+04  0.21585171418E+04  0.00000000000E+00 0. -1.
<mgrwt>
<rscale>  0 0.20998875E+04</rscale>
<asrwt>0</asrwt>
<pdfrwt beam="1">  1        2 0.34414635E+00 0.20998875E+04</pdfrwt>
<pdfrwt beam="2">  1       -2 0.75816230E-01 0.20998875E+04</pdfrwt>
<totfact> 0.70705563E+00</totfact>
</mgrwt>
</event>
<event>
 6    1  0.1603085E-006  0.3467311E+04  0.7818608E-02  0.8121581E-01
         -2   -1    0    0    0  501 -0.00000000000E+00  0.00000000000E+00  0.14926604500E+04  0.14926604500E+04  0.00000000000E+00 0.  1.
          2   -1    0    0  501    0  0.00000000000E+00 -0.00000000000E+00 -0.20135594937E+04  0.20135594937E+04  0.00000000000E+00 0. -1.
         23    2    1    2    0    0 -0.30837771257E+03  0.15811628230E+04  0.38375194363E+03  0.16586360903E+04  0.92927064399E+02 0.  0.
         13    1    3    3    0    0 -0.44126337882E+02  0.10529380320E+03  0.32506188394E+02  0.11870371085E+03  0.00000000000E+00 0. -1.
        -13    1    3    3    0    0 -0.26425137468E+03  0.14758690198E+04  0.35124575523E+03  0.15399323794E+04  0.00000000000E+00 0.  1.
         22    1    1    2    0    0  0.30837771257E+03 -0.15811628230E+04 -0.90465098730E+03  0.18475838534E+04  0.00000000000E+00 0. -1.
<mgrwt>
<rscale>  0 0.34673106E+04</rscale>
<asrwt>0</asrwt>
<pdfrwt beam="1">  1        2 0.30977839E+00 0.34673106E+04</pdfrwt>
<pdfrwt beam="2">  1       -2 0.22964007E+00 0.34673106E+04</pdfrwt>
<totfact> 0.46497299E-01</totfact>
</mgrwt>
</event>
<event>
 6    1  0.1603085E-006  0.1696271E+04  0.7818608E-02  0.8763494E-01
          1   -1    0    0  501    0  0.00000000000E+00  0.00000000000E+00  0.86482804344E+03  0.86482804344E+03  0.00000000000E+00 0. -1.
         -1   -1    0    0    0  501 -0.00000000000E+00 -0.00000000000E+00 -0.83176482660E+03  0.83176482660E+03  0.00000000000E+00 0.  1.
         23    2    1    2    0    0  0.77166651599E+03  0.31108243856E+02 -0.32789409092E+03  0.84410995950E+03  0.92575126982E+02 0.  0.
         13    1    3    3    0    0  0.68542033630E+03  0.43155422807E+02 -0.26261422268E+03  0.73527522594E+03  0.00000000000E+00 0.  1.
        -13    1    3    3    0    0  0.86246179690E+02 -0.12047178951E+02 -0.65279868237E+02  0.10883473356E+03  0.00000000000E+00 0. -1.
         22    1    1    2    0    0 -0.77166651599E+03 -0.31108243856E+02  0.36095730776E+03  0.85248291054E+03  0.00000000000E+00 0. -1.
<mgrwt>
<rscale>  0 0.16962707E+04</rscale>
<asrwt>0</asrwt>
<pdfrwt beam="1">  1        1 0.13305047E+00 0.16962707E+04</pdfrwt>
<pdfrwt beam="2">  1       -1 0.12796382E+00 0.16962707E+04</pdfrwt>
<totfact> 0.97782717E+00</totfact>
</mgrwt>
</event>
<event>
 6    1  0.1603085E-006  0.1676971E+04  0.7818608E-02  0.8774609E-01
         -1   -1    0    0    0  501 -0.00000000000E+00  0.00000000000E+00  0.80986257606E+03  0.80986257606E+03  0.00000000000E+00 0.  1.
          1   -1    0    0  501    0  0.00000000000E+00 -0.00000000000E+00 -0.86811955773E+03  0.86811955773E+03  0.00000000000E+00 0. -1.
         23    2    1    2    0    0  0.23658308236E+03  0.36118184453E+03 -0.74516341398E+03  0.86664722980E+03  0.96876352728E+02 0.  0.
         13    1    3    3    0    0  0.11158184831E+03  0.93882851319E+02 -0.28197923514E+03  0.31745359928E+03  0.00000000000E+00 0. -1.
        -13    1    3    3    0    0  0.12500123405E+03  0.26729899321E+03 -0.46318417884E+03  0.54919363053E+03  0.00000000000E+00 0.  1.
         22    1    1    2    0    0 -0.23658308236E+03 -0.36118184453E+03  0.68690643231E+03  0.81133490399E+03  0.00000000000E+00 0.  1.
<mgrwt>
<rscale>  0 0.16769705E+04</rscale>
<asrwt>0</asrwt>
<pdfrwt beam="1">  1        1 0.13355686E+00 0.16769705E+04</pdfrwt>
<pdfrwt beam="2">  1       -1 0.12459424E+00 0.16769705E+04</pdfrwt>
<totfact> 0.10404224E+01</totfact>
</mgrwt>
</event>
<event>
 6    1  0.1603085E-006  0.4093869E+04  0.7818608E-02  0.7985873E-01
          2   -1    0    0  501    0  0.00000000000E+00  0.00000000000E+00  0.24542794586E+04  0.24542794586E+04  0.00000000000E+00 0. -1.
         -2   -1    0    0    0  501 -0.00000000000E+00 -0.00000000000E+00 -0.17071976861E+04  0.17071976861E+04  0.00000000000E+00 0.  1.
         23    2    1    2    0    0 -0.88818196121E+03 -0.17527339310E+04 -0.20587374566E+03  0.19776576355E+04  0.88330601440E+02 0.  0.
         13    1    3    3    0    0 -0.36041846258E+03 -0.62268947601E+03 -0.89804997977E+02  0.72505764555E+03  0.00000000000E+00 0. -1.
        -13    1    3    3    0    0 -0.52776349862E+03 -0.11300444550E+04 -0.11606874768E+03  0.12525999900E+04  0.00000000000E+00 0.  1.
         22    1    1    2    0    0  0.88818196121E+03  0.17527339310E+04  0.95295551813E+03  0.21838195092E+04  0.00000000000E+00 0.  1.
<mgrwt>
<rscale>  0 0.40938687E+04</rscale>
<asrwt>0</asrwt>
<pdfrwt beam="1">  1        2 0.37758146E+00 0.40938687E+04</pdfrwt>
<pdfrwt beam="2">  1       -2 0.26264580E+00 0.40938687E+04</pdfrwt>
<totfact> 0.15570441E-01</totfact>
</mgrwt>
</event>
<event>
 6    1  0.1990581E-006  0.3357528E+04  0.7818608E-02  0.8148410E-01
          1   -1    0    0  501    0  0.00000000000E+00  0.00000000000E+00  0.26979230402E+04  0.26979230402E+04  0.00000000000E+00 0. -1.
         -1   -1    0    0    0  501 -0.00000000000E+00 -0.00000000000E+00 -0.10445993892E+04  0.10445993892E+04  0.00000000000E+00 0.  1.
         23    2    1    2    0    0 -0.11190517870E+03 -0.22333056417E+03  0.26763263905E+04  0.26894631172E+04  0.89942206566E+02 0.  0.
         11    1    3    3    0    0 -0.92581572962E+00 -0.78259043799E+02  0.59243477587E+03  0.59758204351E+03  0.00000000000E+00 0. -1.
        -11    1    3    3    0    0 -0.11097936297E+03 -0.14507152037E+03  0.20838916146E+04  0.20918810737E+04  0.00000000000E+00 0.  1.
         22    1    1    2    0    0  0.11190517870E+03  0.22333056417E+03 -0.10230027395E+04  0.10530593122E+04  0.00000000000E+00 0.  1.
<mgrwt>
<rscale>  0 0.33575281E+04</rscale>
<asrwt>0</asrwt>
<pdfrwt beam="1">  1        1 0.41506508E+00 0.33575281E+04</pdfrwt>
<pdfrwt beam="2">  1       -1 0.16070760E+00 0.33575281E+04</pdfrwt>
<totfact> 0.23457093E-01</totfact>
</mgrwt>
</event>
<event>
 6    1  0.1648696E-006  0.3138186E+04  0.7818608E-02  0.8205336E-01
          2   -1    0    0  501    0  0.00000000000E+00  0.00000000000E+00  0.18244143768E+04  0.18244143768E+04  0.00000000000E+00 0. -1.
         -2   -1    0    0    0  501 -0.00000000000E+00 -0.00000000000E+00 -0.13495029168E+04  0.13495029168E+04  0.00000000000E+00 0.  1.
         23    2    1    2    0    0 -0.61963888707E+03  0.99723668376E+03  0.12884344268E+04  0.17455430530E+04  0.91781935870E+02 0.  0.
         13    1    3    3    0    0 -0.31365653844E+03  0.53012457900E+03  0.61063004005E+03  0.86734165078E+03  0.00000000000E+00 0. -1.
        -13    1    3    3    0    0 -0.30598234863E+03  0.46711210477E+03  0.67780438675E+03  0.87820140218E+03  0.00000000000E+00 0.  1.
         22    1    1    2    0    0  0.61963888707E+03 -0.99723668376E+03 -0.81352296685E+03  0.14283742407E+04  0.00000000000E+00 0.  1.
<mgrwt>
<rscale>  0 0.31381858E+04</rscale>
<asrwt>0</asrwt>
<pdfrwt beam="1">  1        2 0.28067914E+00 0.31381858E+04</pdfrwt>
<pdfrwt beam="2">  1       -2 0.20761583E+00 0.31381858E+04</pdfrwt>
<totfact> 0.83986612E-01</totfact>
</mgrwt>
</event>
<event>
 6    1  0.1603085E-006  0.1550804E+04  0.7818608E-02  0.8851355E-01
          1   -1    0    0  501    0  0.00000000000E+00  0.00000000000E+00  0.21060487293E+04  0.21060487293E+04  0.00000000000E+00 0. -1.
         -1   -1    0    0    0  501 -0.00000000000E+00 -0.00000000000E+00 -0.28548624228E+03  0.28548624228E+03  0.00000000000E+00 0.  1.
         23    2    1    2    0    0  0.73621736616E+03  0.19219846691E+03  0.70481254142E+03  0.10410335084E+04  0.89631390503E+02 0.  0.
         13    1    3    3    0    0  0.51274104978E+03  0.13019822812E+03  0.43220670364E+03  0.68312341301E+03  0.00000000000E+00 0. -1.
        -13    1    3    3    0    0  0.22347631639E+03  0.62000238793E+02  0.27260583779E+03  0.35791009540E+03  0.00000000000E+00 0.  1.
         22    1    1    2    0    0 -0.73621736616E+03 -0.19219846691E+03  0.11157499457E+04  0.13505014632E+04  0.00000000000E+00 0. -1.
<mgrwt>
<rscale>  0 0.15508036E+04</rscale>
<asrwt>0</asrwt>
<pdfrwt beam="1">  1        1 0.32400749E+00 0.15508036E+04</pdfrwt>
<pdfrwt beam="2">  1       -1 0.43920962E-01 0.15508036E+04</pdfrwt>
<totfact> 0.12472236E+01</totfact>
</mgrwt>
</event>
<event>
 6    1  0.1603085E-006  0.2107505E+04  0.7818608E-02  0.8557945E-01
         -2   -1    0    0    0  501 -0.00000000000E+00  0.00000000000E+00  0.12591904826E+04  0.12591904826E+04  0.00000000000E+00 0.  1.
          2   -1    0    0  501    0  0.00000000000E+00 -0.00000000000E+00 -0.88183184032E+03  0.88183184032E+03  0.00000000000E+00 0. -1.
         23    2    1    2    0    0 -0.10557719738E+03  0.65639401081E+03  0.10169872230E+04  0.12184583070E+04  0.91531372720E+02 0.  0.
         11    1    3    3    0    0 -0.58611526120E+02  0.24072264292E+03  0.30822019325E+03  0.39545213280E+03  0.00000000000E+00 0. -1.
        -11    1    3    3    0    0 -0.46965671258E+02  0.41567136789E+03  0.70876702976E+03  0.82300617424E+03  0.00000000000E+00 0.  1.
         22    1    1    2    0    0  0.10557719738E+03 -0.65639401081E+03 -0.63962858075E+03  0.92256401585E+03  0.00000000000E+00 0. -1.
<mgrwt>
<rscale>  0 0.21075049E+04</rscale>
<asrwt>0</asrwt>
<pdfrwt beam="1">  1        2 0.13566644E+00 0.21075049E+04</pdfrwt>
<pdfrwt beam="2">  1       -2 0.19372161E+00 0.21075049E+04</pdfrwt>
<totfact> 0.40651106E+00</totfact>
</mgrwt>
</event>
<event>
 6    1  0.1603085E-006  0.1955068E+04  0.7818608E-02  0.8627921E-01
          2   -1    0    0  501    0  0.00000000000E+00  0.00000000000E+00  0.90534776365E+03  0.90534776365E+03  0.00000000000E+00 0. -1.
         -2   -1    0    0    0  501 -0.00000000000E+00 -0.00000000000E+00 -0.10554760227E+04  0.10554760227E+04  0.00000000000E+00 0.  1.
         23    2    1    2    0    0 -0.65707478934E+03 -0.67219005615E+03 -0.33739087403E+03  0.10023593700E+04  0.85469026076E+02 0.  0.
         11    1    3    3    0    0 -0.22392365504E+03 -0.23475317775E+03 -0.15982760083E+03  0.36165690888E+03  0.00000000000E+00 0. -1.
        -11    1    3    3    0    0 -0.43315113430E+03 -0.43743687839E+03 -0.17756327320E+03  0.64070246114E+03  0.00000000000E+00 0.  1.
         22    1    1    2    0    0  0.65707478934E+03  0.67219005615E+03  0.18726261500E+03  0.95846441632E+03  0.00000000000E+00 0.  1.
<mgrwt>
<rscale>  0 0.19550681E+04</rscale>
<asrwt>0</asrwt>
<pdfrwt beam="1">  1        2 0.13928427E+00 0.19550681E+04</pdfrwt>
<pdfrwt beam="2">  1       -2 0.16238093E+00 0.19550681E+04</pdfrwt>
<totfact> 0.65575428E+00</totfact>
</mgrwt>
</event>
<event>
 6    1  0.1603085E-006  0.2435266E+04  0.7818608E-02  0.8426417E-01
         -2   -1    0    0    0  501 -0.00000000000E+00  0.00000000000E+00  0.12910306697E+04  0.12910306697E+04  0.00000000000E+00 0.  1.
          2   -1    0    0  501    0  0.00000000000E+00 -0.00000000000E+00 -0.11484085032E+04  0.11484085032E+04  0.00000000000E+00 0. -1.
         23    2    1    2    0    0 -0.13002406209E+03 -0.10864894239E+04 -0.45944066214E+03  0.11905015545E+04  0.94035655057E+02 0.  0.
         13    1    3    3    0    0 -0.55932246950E+02 -0.60780744870E+03 -0.20870152705E+03  0.64506948334E+03  0.00000000000E+00 0. -1.
        -13    1    3    3    0    0 -0.74091815141E+02 -0.47868197518E+03 -0.25073913509E+03  0.54543207121E+03  0.00000000000E+00 0.  1.
         22    1    1    2    0    0  0.13002406209E+03  0.10864894239E+04  0.60206282868E+03  0.12489376184E+04  0.00000000000E+00 0. -1.
<mgrwt>
<rscale>  0 0.24352664E+04</rscale>
<asrwt>0</asrwt>
<pdfrwt beam="1">  1        2 0.17667823E+00 0.24352664E+04</pdfrwt>
<pdfrwt beam="2">  1       -2 0.19862010E+00 0.24352664E+04</pdfrwt>
<totfact> 0.24776154E+00</totfact>
</mgrwt>
</event>
<event>
 6    1  0.1603085E-006  0.3889882E+03  0.7818608E-02  0.1047661E+00
         -1   -1    0    0    0  501 -0.00000000000E+00  0.00000000000E+00  0.19964146555E+02  0.19964146555E+02  0.00000000000E+00 0.  1.
          1   -1    0    0  501    0  0.00000000000E+00 -0.00000000000E+00 -0.18947949096E+04  0.18947949096E+04  0.00000000000E+00 0. -1.
         23    2    1    2    0    0 -0.17529104382E+03 -0.16051619479E+02 -0.12537218364E+04  0.12691888405E+04  0.89650796725E+02 0.  0.
         13    1    3    3    0    0 -0.11982016341E+03 -0.57915314734E+01 -0.53630387169E+03  0.54955641765E+03  0.00000000000E+00 0.  1.
        -13    1    3    3    0    0 -0.55470880418E+02 -0.10260088005E+02 -0.71741796471E+03  0.71963242289E+03  0.00000000000E+00 0. -1.
         22    1    1    2    0    0  0.17529104382E+03  0.16051619479E+02 -0.62110892668E+03  0.64557021565E+03  0.00000000000E+00 0. -1.
<mgrwt>
<rscale>  0 0.38898824E+03</rscale>
<asrwt>0</asrwt>
<pdfrwt beam="1">  1        1 0.29150699E+00 0.38898824E+03</pdfrwt>
<pdfrwt beam="2">  1       -1 0.30714063E-02 0.38898824E+03</pdfrwt>
<totfact> 0.14286593E+03</totfact>
</mgrwt>
</event>
<event>
 6    1  0.1603085E-006  0.3530894E+04  0.7818608E-02  0.8106507E-01
         -2   -1    0    0    0  501 -0.00000000000E+00  0.00000000000E+00  0.37719946924E+04  0.37719946924E+04  0.00000000000E+00 0.  1.
          2   -1    0    0  501    0  0.00000000000E+00 -0.00000000000E+00 -0.82630091148E+03  0.82630091148E+03  0.00000000000E+00 0. -1.
         23    2    1    2    0    0  0.14439473601E+04 -0.17630582547E+03  0.27738766877E+04  0.31335127407E+04  0.91883047256E+02 0.  0.
         13    1    3    3    0    0  0.75720556502E+03 -0.58849776411E+02  0.15143943740E+04  0.16941705593E+04  0.00000000000E+00 0.  1.
        -13    1    3    3    0    0  0.68674179509E+03 -0.11745604905E+03  0.12594823138E+04  0.14393421814E+04  0.00000000000E+00 0. -1.
         22    1    1    2    0    0 -0.14439473601E+04  0.17630582547E+03  0.17181709321E+03  0.14647828632E+04  0.00000000000E+00 0. -1.
<mgrwt>
<rscale>  0 0.35308937E+04</rscale>
<asrwt>0</asrwt>
<pdfrwt beam="1">  1        2 0.12712322E+00 0.35308937E+04</pdfrwt>
<pdfrwt beam="2">  1       -2 0.58030687E+00 0.35308937E+04</pdfrwt>
<totfact> 0.16470770E-02</totfact>
</mgrwt>
</event>
<event>
 6    1  0.1603085E-006  0.2807246E+04  0.7818608E-02  0.8301022E-01
         -2   -1    0    0    0  501 -0.00000000000E+00  0.00000000000E+00  0.89744412603E+03  0.89744412603E+03  0.00000000000E+00 0.  1.
          2   -1    0    0  501    0  0.00000000000E+00 -0.00000000000E+00 -0.21952981838E+04  0.21952981838E+04  0.00000000000E+00 0. -1.
         23    2    1    2    0    0  0.10430640642E+04 -0.91599553773E+03 -0.43185895702E+03  0.14565950115E+04  0.90202005241E+02 0.  0.
         11    1    3    3    0    0  0.61398920294E+03 -0.56658428529E+03 -0.30056082488E+03  0.88788360899E+03  0.00000000000E+00 0.  1.
        -11    1    3    3    0    0  0.42907486126E+03 -0.34941125244E+03 -0.13129813214E+03  0.56871140256E+03  0.00000000000E+00 0. -1.
         22    1    1    2    0    0 -0.10430640642E+04  0.91599553773E+03 -0.86599510076E+03  0.16361472983E+04  0.00000000000E+00 0.  1.
<mgrwt>
<rscale>  0 0.28072460E+04</rscale>
<asrwt>0</asrwt>
<pdfrwt beam="1">  1        2 0.33773818E+00 0.28072460E+04</pdfrwt>
<pdfrwt beam="2">  1       -2 0.13806833E+00 0.28072460E+04</pdfrwt>
<totfact> 0.16822502E+00</totfact>
</mgrwt>
</event>
<event>
 6    1  0.2980667E-006  0.3169088E+04  0.7818608E-02  0.8197029E-01
          2   -1    0    0  501    0  0.00000000000E+00  0.00000000000E+00  0.20540539647E+04  0.20540539647E+04  0.00000000000E+00 0. -1.
         -2   -1    0    0    0  501 -0.00000000000E+00 -0.00000000000E+00 -0.12223531181E+04  0.12223531181E+04  0.00000000000E+00 0.  1.
         23    2    1    2    0    0 -0.75072959691E+02  0.30107933836E+03  0.20213062066E+04  0.20469984323E+04  0.90769399974E+02 0.  0.
         13    1    3    3    0    0  0.38551573492E+01  0.89796384848E+02  0.80073464878E+03  0.80576313562E+03  0.00000000000E+00 0.  1.
        -13    1    3    3    0    0 -0.78928117040E+02  0.21128295352E+03  0.12205715578E+04  0.12412352967E+04  0.00000000000E+00 0. -1.
         22    1    1    2    0    0  0.75072959691E+02 -0.30107933836E+03 -0.11896053600E+04  0.12294086505E+04  0.00000000000E+00 0.  1.
<mgrwt>
<rscale>  0 0.31690877E+04</rscale>
<asrwt>0</asrwt>
<pdfrwt beam="1">  1        2 0.31600830E+00 0.31690877E+04</pdfrwt>
<pdfrwt beam="2">  1       -2 0.18805433E+00 0.31690877E+04</pdfrwt>
<totfact> 0.84071264E-01</totfact>
</mgrwt>
</event>
<event>
 6    1  0.1603085E-006  0.3518982E+04  0.7818608E-02  0.8109306E-01
          1   -1    0    0  501    0  0.00000000000E+00  0.00000000000E+00  0.18012902777E+04  0.18012902777E+04  0.00000000000E+00 0. -1.
         -1   -1    0    0    0  501 -0.00000000000E+00 -0.00000000000E+00 -0.17186612468E+04  0.17186612468E+04  0.00000000000E+00 0.  1.
         23    2    1    2    0    0 -0.10531915104E+04  0.96078353089E+03  0.10708322794E+04  0.17853440729E+04  0.91947469459E+02 0.  0.
         11    1    3    3    0    0 -0.99781685409E+02  0.10469030946E+03  0.77725405445E+02  0.16418795416E+03  0.00000000000E+00 0.  1.
        -11    1    3    3    0    0 -0.95340982495E+03  0.85609322143E+03  0.99310687399E+03  0.16211561187E+04  0.00000000000E+00 0. -1.
         22    1    1    2    0    0  0.10531915104E+04 -0.96078353089E+03 -0.98820324851E+03  0.17346074516E+04  0.00000000000E+00 0.  1.
<mgrwt>
<rscale>  0 0.35189816E+04</rscale>
<asrwt>0</asrwt>
<pdfrwt beam="1">  1        1 0.27712158E+00 0.35189816E+04</pdfrwt>
<pdfrwt beam="2">  1       -1 0.26440942E+00 0.35189816E+04</pdfrwt>
<totfact> 0.18603419E-01</totfact>
</mgrwt>
</event>
<event>
 6    1  0.1603085E-006  0.1449873E+04  0.7818608E-02  0.8918489E-01
         -2   -1    0    0    0  501 -0.00000000000E+00  0.00000000000E+00  0.41974827441E+03  0.41974827441E+03  0.00000000000E+00 0.  1.
          2   -1    0    0  501    0  0.00000000000E+00 -0.00000000000E+00 -0.12520190235E+04  0.12520190235E+04  0.00000000000E+00 0. -1.
         23    2    1    2    0    0  0.37476821855E+03 -0.38320730719E+02 -0.11288251669E+04  0.11923257283E+04  0.73991140445E+02 0.  0.
         13    1    3    3    0    0  0.24480421723E+03 -0.46665720547E+02 -0.65099325113E+03  0.69706456463E+03  0.00000000000E+00 0. -1.
        -13    1    3    3    0    0  0.12996400131E+03  0.83449898278E+01 -0.47783191577E+03  0.49526116365E+03  0.00000000000E+00 0.  1.
         22    1    1    2    0    0 -0.37476821855E+03  0.38320730719E+02  0.29655441776E+03  0.47944156967E+03  0.00000000000E+00 0.  1.
<mgrwt>
<rscale>  0 0.14498729E+04</rscale>
<asrwt>0</asrwt>
<pdfrwt beam="1">  1        2 0.19261831E+00 0.14498729E+04</pdfrwt>
<pdfrwt beam="2">  1       -2 0.64576659E-01 0.14498729E+04</pdfrwt>
<totfact> 0.37874549E+01</totfact>
</mgrwt>
</event>
