<event>
 6    1  0.1535419E-002  0.9226628E+02  0.7546771E-02  0.1403533E+00
          1   -1    0    0  501    0  0.00000000000E+00  0.00000000000E+00  0.76335857153E+02  0.76335857153E+02  0.00000000000E+00 0. -1.
         -1   -1    0    0    0  501 -0.00000000000E+00 -0.00000000000E+00 -0.82845310097E+02  0.82845310097E+02  0.00000000000E+00 0.  1.
         23    2    1    2    0    0 -0.14905007421E+02  0.22688644203E+01  0.47028854650E+02  0.10356051127E+03  0.91026146420E+02 0.  0.
         11    1    3    3    0    0 -0.51597645422E+02 -0.96527242039E+01  0.35218228421E+02  0.63212464837E+02  0.00000000000E+00 0. -1.
        -11    1    3    3    0    0  0.36692638001E+02  0.11921588624E+02  0.11810626229E+02  0.40348046430E+02  0.00000000000E+00 0.  1.
         22    1    1    2    0    0  0.14905007421E+02 -0.22688644203E+01 -0.53538307594E+02  0.55620655984E+02  0.00000000000E+00 0.  1.
<mgrwt>
<rscale>  0 0.58662269E+02</rscale>
<asrwt>0</asrwt>
<pdfrwt beam="1">  1        1 0.11743978E-01 0.92266279E+02</pdfrwt>
<pdfrwt beam="2">  1       -1 0.12745432E-01 0.92266279E+02</pdfrwt>
<totfact> 0.19106508E+04</totfact>
</mgrwt>
</event>
<event>
 6    1  0.1535419E-002  0.9287036E+02  0.7546771E-02  0.1415808E+00
         -2   -1    0    0    0  501 -0.00000000000E+00  0.00000000000E+00  0.12831433177E+02  0.12831433177E+02  0.00000000000E+00 0.  1.
          2   -1    0    0  501    0  0.00000000000E+00 -0.00000000000E+00 -0.21885420099E+03  0.21885420099E+03  0.00000000000E+00 0. -1.
         23    2    1    2    0    0 -0.12191735631E+02  0.58766669270E+00 -0.19055976978E+03  0.21198568294E+03  0.92064760613E+02 0.  0.
         13    1    3    3    0    0  0.26201587567E+02 -0.14498671707E+02 -0.15393960194E+03  0.15682517565E+03  0.00000000000E+00 0. -1.
        -13    1    3    3    0    0 -0.38393323198E+02  0.15086338400E+02 -0.36620167832E+02  0.55160507291E+02  0.00000000000E+00 0.  1.
         22    1    1    2    0    0  0.12191735631E+02 -0.58766669270E+00 -0.15462998035E+02  0.19699951220E+02  0.00000000000E+00 0.  1.
<mgrwt>
<rscale>  0 0.55917818E+02</rscale>
<asrwt>0</asrwt>
<pdfrwt beam="1">  1        2 0.33669877E-01 0.92870361E+02</pdfrwt>
<pdfrwt beam="2">  1       -2 0.19740666E-02 0.92870361E+02</pdfrwt>
<totfact> 0.10419643E+05</totfact>
</mgrwt>
</event>
<event>
 6    1  0.1535419E-002  0.8798705E+02  0.7546771E-02  0.1358946E+00
          4   -1    0    0  501    0  0.00000000000E+00  0.00000000000E+00  0.15904520058E+03  0.15904520058E+03  0.00000000000E+00 0. -1.
         -4   -1    0    0    0  501 -0.00000000000E+00 -0.00000000000E+00 -0.28785213812E+02  0.28785213812E+02  0.00000000000E+00 0.  1.
         23    2    1    2    0    0  0.34868628731E+02  0.86881792253E+01  0.12290054079E+03  0.15114980408E+03  0.80314473280E+02 0.  0.
         13    1    3    3    0    0 -0.13302975680E+02 -0.70061095397E+01  0.88835101201E+02  0.90098445815E+02  0.00000000000E+00 0. -1.
        -13    1    3    3    0    0  0.48171604412E+02  0.15694288765E+02  0.34065439592E+02  0.61051358265E+02  0.00000000000E+00 0.  1.
         22    1    1    2    0    0 -0.34868628731E+02 -0.86881792253E+01  0.73594459770E+01  0.36680610313E+02  0.00000000000E+00 0.  1.
<mgrwt>
<rscale>  0 0.70338433E+02</rscale>
<asrwt>0</asrwt>
<pdfrwt beam="1">  1        4 0.24468492E-01 0.87987046E+02</pdfrwt>
<pdfrwt beam="2">  1       -4 0.44284945E-02 0.87987046E+02</pdfrwt>
<totfact> 0.65598995E+03</totfact>
</mgrwt>
</event>
<event>
 6    1  0.1535419E-002  0.1031226E+03  0.7546771E-02  0.1312583E+00
         -2   -1    0    0    0  501 -0.00000000000E+00  0.00000000000E+00  0.20806410137E+02  0.20806410137E+02  0.00000000000E+00 0.  1.
          2   -1    0    0  501    0  0.00000000000E+00 -0.00000000000E+00 -0.29172472904E+03  0.29172472904E+03  0.00000000000E+00 0. -1.
         23    2    1    2    0    0 -0.14914557681E+02  0.47839679148E+02 -0.15413155697E+03  0.18544759699E+03  0.90128771454E+02 0.  0.
         13    1    3    3    0    0 -0.15502584362E+02  0.44227563541E+02 -0.16628080626E+03  0.17275912141E+03  0.00000000000E+00 0. -1.
        -13    1    3    3    0    0  0.58802668034E+00  0.36121156068E+01  0.12149249286E+02  0.12688475588E+02  0.00000000000E+00 0.  1.
         22    1    1    2    0    0  0.14914557681E+02 -0.47839679148E+02 -0.11678676193E+03  0.12708354218E+03  0.00000000000E+00 0. -1.
<mgrwt>
<rscale>  0 0.86098977E+02</rscale>
<asrwt>0</asrwt>
<pdfrwt beam="1">  1        2 0.44880729E-01 0.10312262E+03</pdfrwt>
<pdfrwt beam="2">  1       -2 0.32009860E-02 0.10312262E+03</pdfrwt>
<totfact> 0.38753191E+04</totfact>
</mgrwt>
</event>
<event>
 6    1  0.1535419E-002  0.9052410E+02  0.7546771E-02  0.1409119E+00
          2   -1    0    0  501    0  0.00000000000E+00  0.00000000000E+00  0.32317102006E+02  0.32317102006E+02  0.00000000000E+00 0.  1.
         -2   -1    0    0    0  501 -0.00000000000E+00 -0.00000000000E+00 -0.94969842181E+02  0.94969842181E+02  0.00000000000E+00 0. -1.
         23    2    1    2    0    0  0.61420066445E+01 -0.13272189449E+02 -0.37072244825E+02  0.97821082571E+02  0.89334974118E+02 0.  0.
         13    1    3    3    0    0  0.23457294281E+02 -0.52232149027E+01  0.23921579200E+02  0.33908237647E+02  0.00000000000E+00 0.  1.
        -13    1    3    3    0    0 -0.17315287636E+02 -0.80489745463E+01 -0.60993824025E+02  0.63912844924E+02  0.00000000000E+00 0. -1.
         22    1    1    2    0    0 -0.61420066445E+01  0.13272189449E+02 -0.25580495351E+02  0.29465861616E+02  0.00000000000E+00 0. -1.
<mgrwt>
<rscale>  0 0.57390926E+02</rscale>
<asrwt>0</asrwt>
<pdfrwt beam="1">  1        2 0.49718618E-02 0.90524101E+02</pdfrwt>
<pdfrwt beam="2">  1       -2 0.14610745E-01 0.90524101E+02</pdfrwt>
<totfact> 0.48646834E+04</totfact>
</mgrwt>
</event>
<event>
 6    1  0.1535419E-002  0.9243148E+02  0.7546771E-02  0.1370859E+00
          2   -1    0    0  501    0  0.00000000000E+00  0.00000000000E+00  0.82000751136E+03  0.82000751136E+03  0.00000000000E+00 0. -1.
         -2   -1    0    0    0  501 -0.00000000000E+00 -0.00000000000E+00 -0.57511311625E+01  0.57511311625E+01  0.00000000000E+00 0.  1.
         23    2    1    2    0    0 -0.73167981526E+01  0.24333247868E+02  0.76270348301E+03  0.76828392029E+03  0.88870336428E+02 0.  0.
         13    1    3    3    0    0  0.25750942208E+02  0.22411185824E+02  0.12092494575E+03  0.12565116306E+03  0.00000000000E+00 0.  1.
        -13    1    3    3    0    0 -0.33067740361E+02  0.19220620437E+01  0.64177853726E+03  0.64263275723E+03  0.00000000000E+00 0. -1.
         22    1    1    2    0    0  0.73167981526E+01 -0.24333247868E+02  0.51552897185E+02  0.57474722228E+02  0.00000000000E+00 0.  1.
<mgrwt>
<rscale>  0 0.66928941E+02</rscale>
<asrwt>0</asrwt>
<pdfrwt beam="1">  1        2 0.12615491E+00 0.92431484E+02</pdfrwt>
<pdfrwt beam="2">  1       -2 0.88479006E-03 0.92431484E+02</pdfrwt>
<totfact> 0.77569411E+04</totfact>
</mgrwt>
</event>
<event>
 6    1  0.1535419E-002  0.9546195E+02  0.7546771E-02  0.1387763E+00
          2   -1    0    0  501    0  0.00000000000E+00  0.00000000000E+00  0.68372795449E+03  0.68372795449E+03  0.00000000000E+00 0. -1.
         -2   -1    0    0    0  501 -0.00000000000E+00 -0.00000000000E+00 -0.47065882857E+01  0.47065882857E+01  0.00000000000E+00 0.  1.
         23    2    1    2    0    0  0.28852716719E+01  0.17263106336E+02  0.59502814588E+03  0.60263710287E+03  0.93843719768E+02 0.  0.
         13    1    3    3    0    0  0.18988086954E+02  0.22874793006E+02  0.56543172972E+02  0.63882188527E+02  0.00000000000E+00 0.  1.
        -13    1    3    3    0    0 -0.16102815282E+02 -0.56116866696E+01  0.53848497290E+03  0.53875491435E+03  0.00000000000E+00 0. -1.
         22    1    1    2    0    0 -0.28852716719E+01 -0.17263106336E+02  0.83993220326E+02  0.85797439901E+02  0.00000000000E+00 0. -1.
<mgrwt>
<rscale>  0 0.62466636E+02</rscale>
<asrwt>0</asrwt>
<pdfrwt beam="1">  1        2 0.10518884E+00 0.95461947E+02</pdfrwt>
<pdfrwt beam="2">  1       -2 0.72409105E-03 0.95461947E+02</pdfrwt>
<totfact> 0.12847662E+05</totfact>
</mgrwt>
</event>
<event>
 6    1  0.1535419E-002  0.9423085E+02  0.7546771E-02  0.1416306E+00
         -2   -1    0    0    0  501 -0.00000000000E+00  0.00000000000E+00  0.40548822548E+02  0.40548822548E+02  0.00000000000E+00 0.  1.
          2   -1    0    0  501    0  0.00000000000E+00 -0.00000000000E+00 -0.20613611680E+03  0.20613611680E+03  0.00000000000E+00 0. -1.
         23    2    1    2    0    0 -0.50476697063E+01 -0.10438631038E+02 -0.19417688892E+03  0.21583353889E+03  0.93514749272E+02 0.  0.
         13    1    3    3    0    0 -0.19141735474E+02 -0.29589460701E+01 -0.19838806426E+03  0.19933134586E+03  0.00000000000E+00 0. -1.
        -13    1    3    3    0    0  0.14094065768E+02 -0.74796849676E+01  0.42111753442E+01  0.16502193032E+02  0.00000000000E+00 0.  1.
         22    1    1    2    0    0  0.50476697063E+01  0.10438631038E+02  0.28589594665E+02  0.30851400463E+02  0.00000000000E+00 0.  1.
<mgrwt>
<rscale>  0 0.55810060E+02</rscale>
<asrwt>0</asrwt>
<pdfrwt beam="1">  1        2 0.31713250E-01 0.94230846E+02</pdfrwt>
<pdfrwt beam="2">  1       -2 0.62382802E-02 0.94230846E+02</pdfrwt>
<totfact> 0.20593140E+04</totfact>
</mgrwt>
</event>
<event>
 6    1  0.1535419E-002  0.9265458E+02  0.7546771E-02  0.1416210E+00
         -2   -1    0    0    0  501 -0.00000000000E+00  0.00000000000E+00  0.19725919931E+02  0.19725919931E+02  0.00000000000E+00 0.  1.
          2   -1    0    0  501    0  0.00000000000E+00 -0.00000000000E+00 -0.20426928072E+03  0.20426928072E+03  0.00000000000E+00 0. -1.
         23    2    1    2    0    0 -0.32862040090E+01 -0.11764723058E+02 -0.18940096415E+03  0.21084970120E+03  0.91845867794E+02 0.  0.
         11    1    3    3    0    0  0.10570380899E+02 -0.41678616995E+02 -0.43101161491E+02  0.60881443715E+02  0.00000000000E+00 0.  1.
        -11    1    3    3    0    0 -0.13856584908E+02  0.29913893936E+02 -0.14629980266E+03  0.14996825749E+03  0.00000000000E+00 0. -1.
         22    1    1    2    0    0  0.32862040090E+01  0.11764723058E+02  0.48576033589E+01  0.13145499451E+02  0.00000000000E+00 0.  1.
<mgrwt>
<rscale>  0 0.55830836E+02</rscale>
<asrwt>0</asrwt>
<pdfrwt beam="1">  1        2 0.31426045E-01 0.92654580E+02</pdfrwt>
<pdfrwt beam="2">  1       -2 0.30347567E-02 0.92654580E+02</pdfrwt>
<totfact> 0.60197048E+04</totfact>
</mgrwt>
</event>
<event>
 6    1  0.1535419E-002  0.9472665E+02  0.7546771E-02  0.1366973E+00
         -2   -1    0    0    0  501 -0.00000000000E+00  0.00000000000E+00  0.45263013115E+02  0.45263013115E+02  0.00000000000E+00 0. -1.
          2   -1    0    0  501    0  0.00000000000E+00 -0.00000000000E+00 -0.79518500600E+02  0.79518500600E+02  0.00000000000E+00 0.  1.
         23    2    1    2    0    0  0.22264145703E+02  0.11758327252E+02 -0.28932786302E+02  0.99046681454E+02  0.91319157575E+02 0.  0.
         11    1    3    3    0    0 -0.21477862728E+02 -0.27318827680E+02 -0.28915336979E+01  0.34870874670E+02  0.00000000000E+00 0. -1.
        -11    1    3    3    0    0  0.43742008431E+02  0.39077154931E+02 -0.26041252604E+02  0.64175806783E+02  0.00000000000E+00 0.  1.
         22    1    1    2    0    0 -0.22264145703E+02 -0.11758327252E+02 -0.53227011828E+01  0.25734832261E+02  0.00000000000E+00 0. -1.
<mgrwt>
<rscale>  0 0.68015996E+02</rscale>
<asrwt>0</asrwt>
<pdfrwt beam="1">  1        2 0.12233615E-01 0.94726654E+02</pdfrwt>
<pdfrwt beam="2">  1       -2 0.69635405E-02 0.94726654E+02</pdfrwt>
<totfact> 0.50825044E+04</totfact>
</mgrwt>
</event>
<event>
 6    1  0.1535419E-002  0.9379968E+02  0.7546771E-02  0.1381763E+00
         -2   -1    0    0    0  501 -0.00000000000E+00  0.00000000000E+00  0.27403657388E+01  0.27403657388E+01  0.00000000000E+00 0.  1.
          2   -1    0    0  501    0  0.00000000000E+00 -0.00000000000E+00 -0.13837014325E+04  0.13837014325E+04  0.00000000000E+00 0. -1.
         23    2    1    2    0    0  0.65522795870E+01 -0.19247753551E+02 -0.12812435304E+04  0.12846724735E+04  0.91569491570E+02 0.  0.
         11    1    3    3    0    0  0.20723844028E+02 -0.52728826084E+02 -0.69698519261E+03  0.69928403780E+03  0.00000000000E+00 0. -1.
        -11    1    3    3    0    0 -0.14171564441E+02  0.33481072533E+02 -0.58425833776E+03  0.58538843574E+03  0.00000000000E+00 0.  1.
         22    1    1    2    0    0 -0.65522795870E+01  0.19247753551E+02 -0.99717536380E+02  0.10176932468E+03  0.00000000000E+00 0.  1.
<mgrwt>
<rscale>  0 0.64002720E+02</rscale>
<asrwt>0</asrwt>
<pdfrwt beam="1">  1        2 0.21287708E+00 0.93799681E+02</pdfrwt>
<pdfrwt beam="2">  1       -2 0.42159485E-03 0.93799681E+02</pdfrwt>
<totfact> 0.10514083E+05</totfact>
</mgrwt>
</event>
<event>
 6    1  0.1535419E-002  0.9142893E+02  0.7546771E-02  0.1424551E+00
          3   -1    0    0  501    0  0.00000000000E+00  0.00000000000E+00  0.58268322553E+02  0.58268322553E+02  0.00000000000E+00 0. -1.
         -3   -1    0    0    0  501 -0.00000000000E+00 -0.00000000000E+00 -0.48757256113E+02  0.48757256113E+02  0.00000000000E+00 0.  1.
         23    2    1    2    0    0  0.98501524218E+01  0.52949193480E+01  0.17749038863E+02  0.93135803172E+02  0.90742425460E+02 0.  0.
         11    1    3    3    0    0 -0.75781056672E+01  0.60702871680E+01  0.52958577223E+02  0.53841312886E+02  0.00000000000E+00 0. -1.
        -11    1    3    3    0    0  0.17428258089E+02 -0.77536781996E+00 -0.35209538361E+02  0.39294490286E+02  0.00000000000E+00 0.  1.
         22    1    1    2    0    0 -0.98501524218E+01 -0.52949193480E+01 -0.82379724231E+01  0.13889775494E+02  0.00000000000E+00 0.  1.
<mgrwt>
<rscale>  0 0.54069613E+02</rscale>
<asrwt>0</asrwt>
<pdfrwt beam="1">  1        3 0.89643573E-02 0.91428931E+02</pdfrwt>
<pdfrwt beam="2">  1       -3 0.75011163E-02 0.91428931E+02</pdfrwt>
<totfact> 0.21388399E+04</totfact>
</mgrwt>
</event>
<event>
 6    1  0.1535419E-002  0.9422502E+02  0.7546771E-02  0.1359501E+00
          2   -1    0    0  501    0  0.00000000000E+00  0.00000000000E+00  0.44915089637E+04  0.44915089637E+04  0.00000000000E+00 0. -1.
         -2   -1    0    0    0  501 -0.00000000000E+00 -0.00000000000E+00 -0.18418773497E+01  0.18418773497E+01  0.00000000000E+00 0.  1.
         23    2    1    2    0    0 -0.76532487206E+01  0.27959238219E+02  0.43330101013E+04  0.43340344823E+04  0.89655251333E+02 0.  0.
         11    1    3    3    0    0  0.37598108882E+02  0.53977081575E+01  0.11604574741E+04  0.11610789389E+04  0.00000000000E+00 0.  1.
        -11    1    3    3    0    0 -0.45251357602E+02  0.22561530061E+02  0.31725526272E+04  0.31729555434E+04  0.00000000000E+00 0. -1.
         22    1    1    2    0    0  0.76532487206E+01 -0.27959238219E+02  0.15665698497E+03  0.15931635873E+03  0.00000000000E+00 0.  1.
<mgrwt>
<rscale>  0 0.70174354E+02</rscale>
<asrwt>0</asrwt>
<pdfrwt beam="1">  1        2 0.69099261E+00 0.94225025E+02</pdfrwt>
<pdfrwt beam="2">  1       -2 0.28336934E-03 0.94225025E+02</pdfrwt>
<totfact> 0.23887093E+03</totfact>
</mgrwt>
</event>
<event>
 6    1  0.1535419E-002  0.9805454E+02  0.7546771E-02  0.1339400E+00
          2   -1    0    0  501    0  0.00000000000E+00  0.00000000000E+00  0.12973286096E+03  0.12973286096E+03  0.00000000000E+00 0.  1.
         -2   -1    0    0    0  501 -0.00000000000E+00 -0.00000000000E+00 -0.46222036671E+02  0.46222036671E+02  0.00000000000E+00 0. -1.
         23    2    1    2    0    0  0.33699466268E+02 -0.13377630818E+02  0.96370390382E+02  0.13748434430E+03  0.91104762512E+02 0.  0.
         13    1    3    3    0    0  0.40152861288E+02  0.22839376158E+02  0.15644338725E+02  0.48771248775E+02  0.00000000000E+00 0. -1.
        -13    1    3    3    0    0 -0.64533950202E+01 -0.36217006976E+02  0.80726051658E+02  0.88713095526E+02  0.00000000000E+00 0.  1.
         22    1    1    2    0    0 -0.33699466268E+02  0.13377630818E+02 -0.12859566097E+02  0.38470553326E+02  0.00000000000E+00 0. -1.
<mgrwt>
<rscale>  0 0.76462872E+02</rscale>
<asrwt>0</asrwt>
<pdfrwt beam="1">  1        2 0.19958902E-01 0.98054540E+02</pdfrwt>
<pdfrwt beam="2">  1       -2 0.71110826E-02 0.98054540E+02</pdfrwt>
<totfact> 0.28122782E+04</totfact>
</mgrwt>
</event>
<event>
 6    1  0.1535419E-002  0.9388537E+02  0.7546771E-02  0.1380661E+00
         -1   -1    0    0    0  501 -0.00000000000E+00  0.00000000000E+00  0.15355482861E+03  0.15355482861E+03  0.00000000000E+00 0.  1.
          1   -1    0    0  501    0  0.00000000000E+00 -0.00000000000E+00 -0.22182355922E+02  0.22182355922E+02  0.00000000000E+00 0. -1.
         23    2    1    2    0    0 -0.12787952869E+02  0.16205800701E+02  0.92916561149E+02  0.13209068585E+03  0.91587675140E+02 0.  0.
         11    1    3    3    0    0  0.81434930798E+01  0.51752977351E+02  0.56676509424E+02  0.77181046020E+02  0.00000000000E+00 0. -1.
        -11    1    3    3    0    0 -0.20931445949E+02 -0.35547176649E+02  0.36240051725E+02  0.54909639830E+02  0.00000000000E+00 0.  1.
         22    1    1    2    0    0  0.12787952869E+02 -0.16205800701E+02  0.38455911538E+02  0.43646498682E+02  0.00000000000E+00 0. -1.
<mgrwt>
<rscale>  0 0.64290230E+02</rscale>
<asrwt>0</asrwt>
<pdfrwt beam="1">  1        1 0.34126702E-02 0.93885366E+02</pdfrwt>
<pdfrwt beam="2">  1       -1 0.23623819E-01 0.93885366E+02</pdfrwt>
<totfact> 0.37910768E+04</totfact>
</mgrwt>
</event>
<event>
 6    1  0.1535419E-002  0.9710474E+02  0.7546771E-02  0.1353684E+00
          2   -1    0    0  501    0  0.00000000000E+00  0.00000000000E+00  0.19507506775E+02  0.19507506775E+02  0.00000000000E+00 0. -1.
         -2   -1    0    0    0  501 -0.00000000000E+00 -0.00000000000E+00 -0.20767580620E+03  0.20767580620E+03  0.00000000000E+00 0.  1.
         23    2    1    2    0    0 -0.11838488067E+02 -0.26713494176E+02 -0.15574159819E+03  0.18353412600E+03  0.92604370459E+02 0.  0.
         11    1    3    3    0    0  0.25908505663E+02 -0.45393458597E+02 -0.10723886152E+03  0.11929790513E+03  0.00000000000E+00 0. -1.
        -11    1    3    3    0    0 -0.37746993730E+02  0.18679964421E+02 -0.48502736670E+02  0.64236220864E+02  0.00000000000E+00 0.  1.
         22    1    1    2    0    0  0.11838488067E+02  0.26713494176E+02 -0.32426701229E+02  0.43649186973E+02  0.00000000000E+00 0.  1.
<mgrwt>
<rscale>  0 0.71919610E+02</rscale>
<asrwt>0</asrwt>
<pdfrwt beam="1">  1        2 0.30011547E-02 0.97104737E+02</pdfrwt>
<pdfrwt beam="2">  1       -2 0.31950126E-01 0.97104737E+02</pdfrwt>
<totfact> 0.25189293E+04</totfact>
</mgrwt>
</event>
<event>
 6    1  0.1535419E-002  0.9153870E+02  0.7546771E-02  0.1422361E+00
          2   -1    0    0  501    0  0.00000000000E+00  0.00000000000E+00  0.48654579784E+03  0.48654579784E+03  0.00000000000E+00 0. -1.
         -2   -1    0    0    0  501 -0.00000000000E+00 -0.00000000000E+00 -0.86610751385E+01  0.86610751385E+01  0.00000000000E+00 0.  1.
         23    2    1    2    0    0  0.86671018890E+01  0.75929819658E+01  0.47442595466E+03  0.48317628252E+03  0.90810580357E+02 0.  0.
         13    1    3    3    0    0  0.12188792807E+02  0.31122840319E+02  0.44034800872E+03  0.44161472648E+03  0.00000000000E+00 0. -1.
        -13    1    3    3    0    0 -0.35216909185E+01 -0.23529858353E+02  0.34077945940E+02  0.41561556041E+02  0.00000000000E+00 0.  1.
         22    1    1    2    0    0 -0.86671018890E+01 -0.75929819658E+01  0.34587680343E+01  0.12030590451E+02  0.00000000000E+00 0.  1.
<mgrwt>
<rscale>  0 0.54524523E+02</rscale>
<asrwt>0</asrwt>
<pdfrwt beam="1">  1        2 0.74853178E-01 0.91538700E+02</pdfrwt>
<pdfrwt beam="2">  1       -2 0.13324735E-02 0.91538700E+02</pdfrwt>
<totfact> 0.78638419E+04</totfact>
</mgrwt>
</event>
<event>
 6    1  0.1535419E-002  0.9327836E+02  0.7546771E-02  0.1406773E+00
         -2   -1    0    0    0  501 -0.00000000000E+00  0.00000000000E+00  0.81111647275E+01  0.81111647275E+01  0.00000000000E+00 0.  1.
          2   -1    0    0  501    0  0.00000000000E+00 -0.00000000000E+00 -0.41605854334E+03  0.41605854334E+03  0.00000000000E+00 0. -1.
         23    2    1    2    0    0  0.11443914126E+02  0.78310133293E+01 -0.39241084425E+03  0.40334491898E+03  0.92241883370E+02 0.  0.
         11    1    3    3    0    0  0.61701177568E+01  0.10733275750E+02 -0.39609429811E+03  0.39628773203E+03  0.00000000000E+00 0. -1.
        -11    1    3    3    0    0  0.52737963690E+01 -0.29022624205E+01  0.36834538660E+01  0.70571869525E+01  0.00000000000E+00 0.  1.
         22    1    1    2    0    0 -0.11443914126E+02 -0.78310133293E+01 -0.15536534367E+02  0.20824789085E+02  0.00000000000E+00 0.  1.
<mgrwt>
<rscale>  0 0.57920152E+02</rscale>
<asrwt>0</asrwt>
<pdfrwt beam="1">  1        2 0.64009013E-01 0.93278363E+02</pdfrwt>
<pdfrwt beam="2">  1       -2 0.12478714E-02 0.93278363E+02</pdfrwt>
<totfact> 0.10227870E+05</totfact>
</mgrwt>
</event>
<event>
 6    1  0.1535419E-002  0.1019912E+03  0.7546771E-02  0.1317456E+00
          1   -1    0    0  501    0  0.00000000000E+00  0.00000000000E+00  0.13223729376E+03  0.13223729376E+03  0.00000000000E+00 0. -1.
         -1   -1    0    0    0  501 -0.00000000000E+00 -0.00000000000E+00 -0.49398600116E+02  0.49398600116E+02  0.00000000000E+00 0.  1.
         23    2    1    2    0    0  0.20837849361E+02 -0.42625259627E+02  0.86933372129E+02  0.13401347147E+03  0.90283279858E+02 0.  0.
         13    1    3    3    0    0 -0.17290782521E+01  0.10182428806E+02  0.74555075940E+02  0.75267063955E+02  0.00000000000E+00 0. -1.
        -13    1    3    3    0    0  0.22566927614E+02 -0.52807688433E+02  0.12378296189E+02  0.58746407516E+02  0.00000000000E+00 0.  1.
         22    1    1    2    0    0 -0.20837849361E+02  0.42625259627E+02 -0.40946784801E+01  0.47622422409E+02  0.00000000000E+00 0. -1.
<mgrwt>
<rscale>  0 0.84231005E+02</rscale>
<asrwt>0</asrwt>
<pdfrwt beam="1">  1        1 0.20344199E-01 0.10199117E+03</pdfrwt>
<pdfrwt beam="2">  1       -1 0.75997847E-02 0.10199117E+03</pdfrwt>
<totfact> 0.20907945E+04</totfact>
</mgrwt>
</event>
<event>
 6    1  0.1535419E-002  0.8990011E+02  0.7546771E-02  0.1402188E+00
          2   -1    0    0  501    0  0.00000000000E+00  0.00000000000E+00  0.49494278708E+02  0.49494278708E+02  0.00000000000E+00 0. -1.
         -2   -1    0    0    0  501 -0.00000000000E+00 -0.00000000000E+00 -0.72561370466E+02  0.72561370466E+02  0.00000000000E+00 0.  1.
         23    2    1    2    0    0  0.43573247652E+01  0.16067768952E+02  0.43218347498E+01  0.90003928886E+02  0.88345172370E+02 0.  0.
         13    1    3    3    0    0 -0.15192960997E+02  0.64659229041E+01  0.42752437477E+02  0.45830177100E+02  0.00000000000E+00 0. -1.
        -13    1    3    3    0    0  0.19550285762E+02  0.96018460475E+01 -0.38430602727E+02  0.44173751786E+02  0.00000000000E+00 0.  1.
         22    1    1    2    0    0 -0.43573247652E+01 -0.16067768952E+02 -0.27388926508E+02  0.32051720288E+02  0.00000000000E+00 0.  1.
<mgrwt>
<rscale>  0 0.58974106E+02</rscale>
<asrwt>0</asrwt>
<pdfrwt beam="1">  1        2 0.76145045E-02 0.89900105E+02</pdfrwt>
<pdfrwt beam="2">  1       -2 0.11163288E-01 0.89900105E+02</pdfrwt>
<totfact> 0.43418816E+04</totfact>
</mgrwt>
</event>
<event>
 6    1  0.1535419E-002  0.9209030E+02  0.7546771E-02  0.1365550E+00
         -2   -1    0    0    0  501 -0.00000000000E+00  0.00000000000E+00  0.71666218247E+01  0.71666218247E+01  0.00000000000E+00 0.  1.
          2   -1    0    0  501    0  0.00000000000E+00 -0.00000000000E+00 -0.64202598883E+03  0.64202598883E+03  0.00000000000E+00 0. -1.
         23    2    1    2    0    0 -0.15050806367E+02  0.23682389616E+02 -0.58299968516E+03  0.59022813871E+03  0.87711119488E+02 0.  0.
         11    1    3    3    0    0 -0.29645433193E+02 -0.23441666081E+02 -0.16211239961E+03  0.16645958526E+03  0.00000000000E+00 0.  1.
        -11    1    3    3    0    0  0.14594626826E+02  0.47124055698E+02 -0.42088728555E+03  0.42376855345E+03  0.00000000000E+00 0. -1.
         22    1    1    2    0    0  0.15050806367E+02 -0.23682389616E+02 -0.51859681843E+02  0.58964471939E+02  0.00000000000E+00 0.  1.
<mgrwt>
<rscale>  0 0.68420086E+02</rscale>
<asrwt>0</asrwt>
<pdfrwt beam="1">  1        2 0.98773235E-01 0.92090297E+02</pdfrwt>
<pdfrwt beam="2">  1       -2 0.11025571E-02 0.92090297E+02</pdfrwt>
<totfact> 0.75836136E+04</totfact>
</mgrwt>
</event>
<event>
 6    1  0.1535419E-002  0.9236752E+02  0.7546771E-02  0.1409430E+00
         -2   -1    0    0    0  501 -0.00000000000E+00  0.00000000000E+00  0.16064822688E+02  0.16064822688E+02  0.00000000000E+00 0.  1.
          2   -1    0    0  501    0  0.00000000000E+00 -0.00000000000E+00 -0.17682501192E+03  0.17682501192E+03  0.00000000000E+00 0. -1.
         23    2    1    2    0    0 -0.13001971489E+02 -0.43153851664E+01 -0.13293221472E+03  0.16187258171E+03  0.91345964268E+02 0.  0.
         13    1    3    3    0    0 -0.20255791667E+01  0.35292714991E+02 -0.10837357688E+03  0.11399346853E+03  0.00000000000E+00 0. -1.
        -13    1    3    3    0    0 -0.10976392323E+02 -0.39608100157E+02 -0.24558637844E+02  0.47879113183E+02  0.00000000000E+00 0.  1.
         22    1    1    2    0    0  0.13001971489E+02  0.43153851664E+01 -0.27827974510E+02  0.31017252894E+02  0.00000000000E+00 0. -1.
<mgrwt>
<rscale>  0 0.57321154E+02</rscale>
<asrwt>0</asrwt>
<pdfrwt beam="1">  1        2 0.27203847E-01 0.92367521E+02</pdfrwt>
<pdfrwt beam="2">  1       -2 0.24715113E-02 0.92367521E+02</pdfrwt>
<totfact> 0.94599160E+04</totfact>
</mgrwt>
</event>
<event>
 6    1  0.1535419E-002  0.9195082E+02  0.7546771E-02  0.1424476E+00
          2   -1    0    0  501    0  0.00000000000E+00  0.00000000000E+00  0.51664655361E+02  0.51664655361E+02  0.00000000000E+00 0. -1.
         -2   -1    0    0    0  501 -0.00000000000E+00 -0.00000000000E+00 -0.53082099816E+02  0.53082099816E+02  0.00000000000E+00 0.  1.
         23    2    1    2    0    0  0.97324611362E+01 -0.51397566642E+01  0.48544912466E+01  0.92078879436E+02  0.91289736853E+02 0.  0.
         13    1    3    3    0    0  0.73562434209E+01 -0.41797593095E+01  0.48059177066E+02  0.48798250024E+02  0.00000000000E+00 0. -1.
        -13    1    3    3    0    0  0.23762177153E+01 -0.95999735468E+00 -0.43204685820E+02  0.43280629412E+02  0.00000000000E+00 0.  1.
         22    1    1    2    0    0 -0.97324611362E+01  0.51397566642E+01 -0.62719357020E+01  0.12667875741E+02  0.00000000000E+00 0. -1.
<mgrwt>
<rscale>  0 0.54084986E+02</rscale>
<asrwt>0</asrwt>
<pdfrwt beam="1">  1        2 0.79484085E-02 0.91950824E+02</pdfrwt>
<pdfrwt beam="2">  1       -2 0.81664769E-02 0.91950824E+02</pdfrwt>
<totfact> 0.67031715E+04</totfact>
</mgrwt>
</event>
<event>
 6    1  0.1535419E-002  0.1090476E+03  0.7546771E-02  0.1291087E+00
          2   -1    0    0  501    0  0.00000000000E+00  0.00000000000E+00  0.28653518910E+03  0.28653518910E+03  0.00000000000E+00 0. -1.
         -2   -1    0    0    0  501 -0.00000000000E+00 -0.00000000000E+00 -0.34008602587E+02  0.34008602587E+02  0.00000000000E+00 0.  1.
         23    2    1    2    0    0 -0.32436944582E+02 -0.53910827311E+02  0.22851546436E+03  0.25320088811E+03  0.89066489842E+02 0.  0.
         13    1    3    3    0    0 -0.62697176569E+02 -0.28537229572E+02  0.15837054760E+03  0.17270361829E+03  0.00000000000E+00 0. -1.
        -13    1    3    3    0    0  0.30260231986E+02 -0.25373597739E+02  0.70144916759E+02  0.80497269825E+02  0.00000000000E+00 0.  1.
         22    1    1    2    0    0  0.32436944582E+02  0.53910827311E+02  0.24011122155E+02  0.67342903578E+02  0.00000000000E+00 0.  1.
<mgrwt>
<rscale>  0 0.95039418E+02</rscale>
<asrwt>0</asrwt>
<pdfrwt beam="1">  1        2 0.44082335E-01 0.10904757E+03</pdfrwt>
<pdfrwt beam="2">  1       -2 0.52320929E-02 0.10904757E+03</pdfrwt>
<totfact> 0.19216489E+04</totfact>
</mgrwt>
</event>
<event>
 6    1  0.1535419E-002  0.9797500E+02  0.7546771E-02  0.1366079E+00
          2   -1    0    0  501    0  0.00000000000E+00  0.00000000000E+00  0.80889711830E+03  0.80889711830E+03  0.00000000000E+00 0. -1.
         -2   -1    0    0    0  501 -0.00000000000E+00 -0.00000000000E+00 -0.18029346211E+02  0.18029346211E+02  0.00000000000E+00 0.  1.
         23    2    1    2    0    0  0.22982536186E+02  0.22976784109E+01  0.79702379471E+03  0.80302305660E+03  0.95213569402E+02 0.  0.
         11    1    3    3    0    0  0.32820496421E+02  0.44080385815E+02  0.46474054064E+03  0.46797866994E+03  0.00000000000E+00 0. -1.
        -11    1    3    3    0    0 -0.98379602359E+01 -0.41782707404E+02  0.33228325406E+03  0.33504438666E+03  0.00000000000E+00 0.  1.
         22    1    1    2    0    0 -0.22982536186E+02 -0.22976784109E+01 -0.61560226163E+01  0.23903407917E+02  0.00000000000E+00 0.  1.
<mgrwt>
<rscale>  0 0.68269361E+02</rscale>
<asrwt>0</asrwt>
<pdfrwt beam="1">  1        2 0.12444568E+00 0.97974997E+02</pdfrwt>
<pdfrwt beam="2">  1       -2 0.27737462E-02 0.97974997E+02</pdfrwt>
<totfact> 0.15472918E+04</totfact>
</mgrwt>
</event>
<event>
 6    1  0.1535419E-002  0.9310511E+02  0.7546771E-02  0.1370601E+00
          2   -1    0    0  501    0  0.00000000000E+00  0.00000000000E+00  0.48568684731E+03  0.48568684731E+03  0.00000000000E+00 0. -1.
         -2   -1    0    0    0  501 -0.00000000000E+00 -0.00000000000E+00 -0.76017850059E+01  0.76017850059E+01  0.00000000000E+00 0.  1.
         23    2    1    2    0    0 -0.10179479506E+02  0.22798992200E+02  0.41759161956E+03  0.42784497362E+03  0.89694731604E+02 0.  0.
         11    1    3    3    0    0 -0.23432771528E+02  0.32139941532E+02  0.40592644437E+03  0.40787050501E+03  0.00000000000E+00 0. -1.
        -11    1    3    3    0    0  0.13253292022E+02 -0.93409493317E+01  0.11665175190E+02  0.19974468605E+02  0.00000000000E+00 0.  1.
         22    1    1    2    0    0  0.10179479506E+02 -0.22798992200E+02  0.60493442742E+02  0.65443658693E+02  0.00000000000E+00 0.  1.
<mgrwt>
<rscale>  0 0.67000393E+02</rscale>
<asrwt>0</asrwt>
<pdfrwt beam="1">  1        2 0.74721029E-01 0.93105106E+02</pdfrwt>
<pdfrwt beam="2">  1       -2 0.11695058E-02 0.93105106E+02</pdfrwt>
<totfact> 0.95067754E+04</totfact>
</mgrwt>
</event>
<event>
 6    1  0.1535419E-002  0.9165490E+02  0.7546771E-02  0.1411882E+00
          2   -1    0    0  501    0  0.00000000000E+00  0.00000000000E+00  0.12193202376E+03  0.12193202376E+03  0.00000000000E+00 0.  1.
         -2   -1    0    0    0  501 -0.00000000000E+00 -0.00000000000E+00 -0.77987406950E+02  0.77987406950E+02  0.00000000000E+00 0. -1.
         23    2    1    2    0    0  0.63045436859E+01  0.11932402273E+02  0.10385069131E+03  0.13851204307E+03  0.90655890571E+02 0.  0.
         11    1    3    3    0    0 -0.39686144460E+01  0.68746327566E+01  0.11914334684E+03  0.11940748541E+03  0.00000000000E+00 0.  1.
        -11    1    3    3    0    0  0.10273158132E+02  0.50577695169E+01 -0.15292655526E+02  0.19104557664E+02  0.00000000000E+00 0. -1.
         22    1    1    2    0    0 -0.63045436859E+01 -0.11932402273E+02 -0.59906074498E+02  0.61407387641E+02  0.00000000000E+00 0. -1.
<mgrwt>
<rscale>  0 0.56775934E+02</rscale>
<asrwt>0</asrwt>
<pdfrwt beam="1">  1        2 0.18758773E-01 0.91654896E+02</pdfrwt>
<pdfrwt beam="2">  1       -2 0.11998062E-01 0.91654896E+02</pdfrwt>
<totfact> 0.13319974E+04</totfact>
</mgrwt>
</event>
<event>
 6    1  0.1535419E-002  0.1077944E+03  0.7546771E-02  0.1383690E+00
         -2   -1    0    0    0  501 -0.00000000000E+00  0.00000000000E+00  0.25417930827E+02  0.25417930827E+02  0.00000000000E+00 0.  1.
          2   -1    0    0  501    0  0.00000000000E+00 -0.00000000000E+00 -0.45870735530E+03  0.45870735530E+03  0.00000000000E+00 0. -1.
         23    2    1    2    0    0  0.10878044673E+02  0.70887732328E+01 -0.45013200391E+03  0.46285899722E+03  0.10700956874E+03 0.  0.
         11    1    3    3    0    0  0.43917393073E+02 -0.33290422552E+02 -0.20864519612E+03  0.21580038812E+03  0.00000000000E+00 0.  1.
        -11    1    3    3    0    0 -0.33039348400E+02  0.40379195785E+02 -0.24148680779E+03  0.24705860911E+03  0.00000000000E+00 0. -1.
         22    1    1    2    0    0 -0.10878044673E+02 -0.70887732328E+01  0.16842579436E+02  0.21266288908E+02  0.00000000000E+00 0.  1.
<mgrwt>
<rscale>  0 0.63503652E+02</rscale>
<asrwt>0</asrwt>
<pdfrwt beam="1">  1        2 0.70570362E-01 0.10779439E+03</pdfrwt>
<pdfrwt beam="2">  1       -2 0.39104509E-02 0.10779439E+03</pdfrwt>
<totfact> 0.17985581E+04</totfact>
</mgrwt>
</event>
<event>
 6    1  0.1535419E-002  0.8932538E+02  0.7546771E-02  0.1436528E+00
          2   -1    0    0  501    0  0.00000000000E+00  0.00000000000E+00  0.25516437419E+02  0.25516437419E+02  0.00000000000E+00 0. -1.
         -2   -1    0    0    0  501 -0.00000000000E+00 -0.00000000000E+00 -0.10769600865E+03  0.10769600865E+03  0.00000000000E+00 0.  1.
         23    2    1    2    0    0 -0.62046701507E+01  0.78448657954E+01 -0.56602025577E+02  0.10574882117E+03  0.88763641362E+02 0.  0.
         11    1    3    3    0    0  0.37654632266E+01 -0.39885281384E+02 -0.19987367769E+02  0.44771746166E+02  0.00000000000E+00 0.  1.
        -11    1    3    3    0    0 -0.99701333774E+01  0.47730147180E+02 -0.36614657807E+02  0.60977075001E+02  0.00000000000E+00 0. -1.
         22    1    1    2    0    0  0.62046701507E+01 -0.78448657954E+01 -0.25577545658E+02  0.27463624905E+02  0.00000000000E+00 0.  1.
<mgrwt>
<rscale>  0 0.51671705E+02</rscale>
<asrwt>0</asrwt>
<pdfrwt beam="1">  1        2 0.39256057E-02 0.89325382E+02</pdfrwt>
<pdfrwt beam="2">  1       -2 0.16568617E-01 0.89325382E+02</pdfrwt>
<totfact> 0.53809844E+04</totfact>
</mgrwt>
</event>
<event>
 6    1  0.1535419E-002  0.9192023E+02  0.7546771E-02  0.1412614E+00
         -1   -1    0    0    0  501 -0.00000000000E+00  0.00000000000E+00  0.47194473602E+01  0.47194473602E+01  0.00000000000E+00 0.  1.
          1   -1    0    0  501    0  0.00000000000E+00 -0.00000000000E+00 -0.58612659306E+03  0.58612659306E+03  0.00000000000E+00 0. -1.
         23    2    1    2    0    0  0.69169967230E-01  0.13227339619E+02 -0.51360007670E+03  0.52176083286E+03  0.90963512565E+02 0.  0.
         13    1    3    3    0    0 -0.22205790782E+02 -0.21434847379E+02 -0.39506979962E+03  0.39627351211E+03  0.00000000000E+00 0. -1.
        -13    1    3    3    0    0  0.22274960750E+02  0.34662186998E+02 -0.11853027708E+03  0.12548732075E+03  0.00000000000E+00 0.  1.
         22    1    1    2    0    0 -0.69169967230E-01 -0.13227339619E+02 -0.67807068998E+02  0.69085207562E+02  0.00000000000E+00 0.  1.
<mgrwt>
<rscale>  0 0.56614532E+02</rscale>
<asrwt>0</asrwt>
<pdfrwt beam="1">  1        1 0.90173350E-01 0.91920226E+02</pdfrwt>
<pdfrwt beam="2">  1       -1 0.72606860E-03 0.91920226E+02</pdfrwt>
<totfact> 0.94778427E+04</totfact>
</mgrwt>
</event>
<event>
 6    1  0.1535419E-002  0.9242037E+02  0.7546771E-02  0.1399754E+00
         -3   -1    0    0    0  501 -0.00000000000E+00  0.00000000000E+00  0.18556582537E+01  0.18556582537E+01  0.00000000000E+00 0.  1.
          3   -1    0    0  501    0  0.00000000000E+00 -0.00000000000E+00 -0.20730862770E+04  0.20730862770E+04  0.00000000000E+00 0. -1.
         23    2    1    2    0    0 -0.15481732236E+02 -0.37283412176E+01 -0.19911301626E+04  0.19932739021E+04  0.91038123321E+02 0.  0.
         11    1    3    3    0    0 -0.41415270434E+01  0.43253071381E+02 -0.10601766296E+04  0.10610666644E+04  0.00000000000E+00 0. -1.
        -11    1    3    3    0    0 -0.11340205193E+02 -0.46981412599E+02 -0.93095353301E+03  0.93220723769E+03  0.00000000000E+00 0.  1.
         22    1    1    2    0    0  0.15481732236E+02  0.37283412176E+01 -0.80100456227E+02  0.81668033214E+02  0.00000000000E+00 0.  1.
<mgrwt>
<rscale>  0 0.59544427E+02</rscale>
<asrwt>0</asrwt>
<pdfrwt beam="1">  1        3 0.31893531E+00 0.92420368E+02</pdfrwt>
<pdfrwt beam="2">  1       -3 0.28548682E-03 0.92420368E+02</pdfrwt>
<totfact> 0.13988888E+03</totfact>
</mgrwt>
</event>
<event>
 6    1  0.1535419E-002  0.9851984E+02  0.7546771E-02  0.1334151E+00
          2   -1    0    0  501    0  0.00000000000E+00  0.00000000000E+00  0.12871361819E+04  0.12871361819E+04  0.00000000000E+00 0. -1.
         -2   -1    0    0    0  501 -0.00000000000E+00 -0.00000000000E+00 -0.70609754048E+01  0.70609754048E+01  0.00000000000E+00 0.  1.
         23    2    1    2    0    0 -0.26399962511E+02 -0.28932735756E+02  0.12093054963E+04  0.12133119727E+04  0.90399658840E+02 0.  0.
         13    1    3    3    0    0 -0.54477878661E+02 -0.36932165249E+02  0.97035750127E+03  0.97258701635E+03  0.00000000000E+00 0. -1.
        -13    1    3    3    0    0  0.28077916150E+02  0.79994294927E+01  0.23894799506E+03  0.24072495631E+03  0.00000000000E+00 0.  1.
         22    1    1    2    0    0  0.26399962511E+02  0.28932735756E+02  0.70769710172E+02  0.80885184656E+02  0.00000000000E+00 0.  1.
<mgrwt>
<rscale>  0 0.78229962E+02</rscale>
<asrwt>0</asrwt>
<pdfrwt beam="1">  1        2 0.19802076E+00 0.98519843E+02</pdfrwt>
<pdfrwt beam="2">  1       -2 0.10863049E-02 0.98519843E+02</pdfrwt>
<totfact> 0.31293536E+04</totfact>
</mgrwt>
</event>
<event>
 6    1  0.1535419E-002  0.1003624E+03  0.7546771E-02  0.1331317E+00
          1   -1    0    0  501    0  0.00000000000E+00  0.00000000000E+00  0.51028407043E+03  0.51028407043E+03  0.00000000000E+00 0. -1.
         -1   -1    0    0    0  501 -0.00000000000E+00 -0.00000000000E+00 -0.96344804329E+01  0.96344804329E+01  0.00000000000E+00 0.  1.
         23    2    1    2    0    0  0.38054423620E+02  0.82327525551E+01  0.38619748693E+03  0.39902520420E+03  0.92502417813E+02 0.  0.
         11    1    3    3    0    0 -0.29481785346E+02  0.11574459368E+02  0.15181793562E+03  0.15508652215E+03  0.00000000000E+00 0.  1.
        -11    1    3    3    0    0  0.67536208967E+02 -0.33417068130E+01  0.23437955131E+03  0.24393868205E+03  0.00000000000E+00 0. -1.
         22    1    1    2    0    0 -0.38054423620E+02 -0.82327525551E+01  0.11445210306E+03  0.12089334666E+03  0.00000000000E+00 0. -1.
<mgrwt>
<rscale>  0 0.79206856E+02</rscale>
<asrwt>0</asrwt>
<pdfrwt beam="1">  1        1 0.78505220E-01 0.10036242E+03</pdfrwt>
<pdfrwt beam="2">  1       -1 0.14822282E-02 0.10036242E+03</pdfrwt>
<totfact> 0.41927873E+04</totfact>
</mgrwt>
</event>
<event>
 6    1  0.1535419E-002  0.8635196E+02  0.7546771E-02  0.1438364E+00
          2   -1    0    0  501    0  0.00000000000E+00  0.00000000000E+00  0.22609759097E+03  0.22609759097E+03  0.00000000000E+00 0. -1.
         -2   -1    0    0    0  501 -0.00000000000E+00 -0.00000000000E+00 -0.13519315732E+02  0.13519315732E+02  0.00000000000E+00 0.  1.
         23    2    1    2    0    0  0.23851353417E+01 -0.10503016961E+02  0.21190676077E+03  0.22882555982E+03  0.85677647780E+02 0.  0.
         13    1    3    3    0    0  0.10122834827E+02 -0.30219175729E+02  0.24429238783E+02  0.40155423970E+02  0.00000000000E+00 0.  1.
        -13    1    3    3    0    0 -0.77376994852E+01  0.19716158767E+02  0.18747752199E+03  0.18867013585E+03  0.00000000000E+00 0. -1.
         22    1    1    2    0    0 -0.23851353417E+01  0.10503016961E+02  0.67151446543E+00  0.10791346884E+02  0.00000000000E+00 0.  1.
<mgrwt>
<rscale>  0 0.51317142E+02</rscale>
<asrwt>0</asrwt>
<pdfrwt beam="1">  1        2 0.34784242E-01 0.86351963E+02</pdfrwt>
<pdfrwt beam="2">  1       -2 0.20798949E-02 0.86351963E+02</pdfrwt>
<totfact> 0.92359150E+04</totfact>
</mgrwt>
</event>
<event>
 6    1  0.1535419E-002  0.1063747E+03  0.7546771E-02  0.1311771E+00
          4   -1    0    0  501    0  0.00000000000E+00  0.00000000000E+00  0.12453254328E+03  0.12453254328E+03  0.00000000000E+00 0. -1.
         -4   -1    0    0    0  501 -0.00000000000E+00 -0.00000000000E+00 -0.53314072425E+02  0.53314072425E+02  0.00000000000E+00 0.  1.
         23    2    1    2    0    0 -0.42451717250E+02 -0.18553627730E+02  0.76773108838E+02  0.13118571771E+03  0.95755923524E+02 0.  0.
         11    1    3    3    0    0  0.29742221841E+02 -0.14855795252E+02  0.32062340527E+02  0.46187531788E+02  0.00000000000E+00 0. -1.
        -11    1    3    3    0    0 -0.72193939090E+02 -0.36978324787E+01  0.44710768311E+02  0.84998185918E+02  0.00000000000E+00 0.  1.
         22    1    1    2    0    0  0.42451717250E+02  0.18553627730E+02 -0.55546379799E+01  0.46660898003E+02  0.00000000000E+00 0. -1.
<mgrwt>
<rscale>  0 0.86415631E+02</rscale>
<asrwt>0</asrwt>
<pdfrwt beam="1">  1        4 0.19158853E-01 0.10637473E+03</pdfrwt>
<pdfrwt beam="2">  1       -4 0.82021650E-02 0.10637473E+03</pdfrwt>
<totfact> 0.39723345E+03</totfact>
</mgrwt>
</event>
<event>
 6    1  0.1535419E-002  0.9843175E+02  0.7546771E-02  0.1343571E+00
          2   -1    0    0  501    0  0.00000000000E+00  0.00000000000E+00  0.33859162685E+03  0.33859162685E+03  0.00000000000E+00 0. -1.
         -2   -1    0    0    0  501 -0.00000000000E+00 -0.00000000000E+00 -0.17467957469E+02  0.17467957469E+02  0.00000000000E+00 0.  1.
         23    2    1    2    0    0 -0.14647298559E+02  0.29960529374E+02  0.30195572272E+03  0.31759418617E+03  0.92610107060E+02 0.  0.
         11    1    3    3    0    0  0.11050001223E+02  0.42805806434E+02  0.27387809057E+03  0.27742322917E+03  0.00000000000E+00 0. -1.
        -11    1    3    3    0    0 -0.25697299782E+02 -0.12845277060E+02  0.28077632157E+02  0.40170957001E+02  0.00000000000E+00 0.  1.
         22    1    1    2    0    0  0.14647298559E+02 -0.29960529374E+02  0.19167946655E+02  0.38465398144E+02  0.00000000000E+00 0.  1.
<mgrwt>
<rscale>  0 0.75097091E+02</rscale>
<asrwt>0</asrwt>
<pdfrwt beam="1">  1        2 0.52091015E-01 0.98431746E+02</pdfrwt>
<pdfrwt beam="2">  1       -2 0.26873783E-02 0.98431746E+02</pdfrwt>
<totfact> 0.42528167E+04</totfact>
</mgrwt>
</event>
<event>
 6    1  0.1535419E-002  0.8936143E+02  0.7546771E-02  0.1429112E+00
         -2   -1    0    0    0  501 -0.00000000000E+00  0.00000000000E+00  0.41509800833E+01  0.41509800833E+01  0.00000000000E+00 0.  1.
          2   -1    0    0  501    0  0.00000000000E+00 -0.00000000000E+00 -0.16167976852E+04  0.16167976852E+04  0.00000000000E+00 0. -1.
         23    2    1    2    0    0  0.88376490409E+01 -0.68369503647E+01 -0.16048213857E+04  0.16073074206E+04  0.88660118334E+02 0.  0.
         13    1    3    3    0    0  0.30226604465E+01 -0.24554856501E+02 -0.15299064966E+04  0.15301065211E+04  0.00000000000E+00 0. -1.
        -13    1    3    3    0    0  0.58149885945E+01  0.17717906136E+02 -0.74914889076E+02  0.77200899577E+02  0.00000000000E+00 0.  1.
         22    1    1    2    0    0 -0.88376490409E+01  0.68369503647E+01 -0.78253194172E+01  0.13641244622E+02  0.00000000000E+00 0.  1.
<mgrwt>
<rscale>  0 0.53138616E+02</rscale>
<asrwt>0</asrwt>
<pdfrwt beam="1">  1        2 0.24873849E+00 0.89361426E+02</pdfrwt>
<pdfrwt beam="2">  1       -2 0.63861134E-03 0.89361426E+02</pdfrwt>
<totfact> 0.44401349E+04</totfact>
</mgrwt>
</event>
<event>
 6    1  0.1535419E-002  0.1131945E+03  0.7546771E-02  0.1281563E+00
          2   -1    0    0  501    0  0.00000000000E+00  0.00000000000E+00  0.88257605272E+02  0.88257605272E+02  0.00000000000E+00 0. -1.
         -2   -1    0    0    0  501 -0.00000000000E+00 -0.00000000000E+00 -0.12301573209E+03  0.12301573209E+03  0.00000000000E+00 0.  1.
         23    2    1    2    0    0  0.34341010147E+01  0.67220614217E+02  0.30804690274E+02  0.11731118003E+03  0.91008680859E+02 0.  0.
         11    1    3    3    0    0  0.28948583701E+02  0.73544076997E+02  0.30659587637E+01  0.79095839732E+02  0.00000000000E+00 0.  1.
        -11    1    3    3    0    0 -0.25514482687E+02 -0.63234627805E+01  0.27738731510E+02  0.38215340298E+02  0.00000000000E+00 0. -1.
         22    1    1    2    0    0 -0.34341010147E+01 -0.67220614217E+02 -0.65562817091E+02  0.93962157332E+02  0.00000000000E+00 0. -1.
<mgrwt>
<rscale>  0 0.99399906E+02</rscale>
<asrwt>0</asrwt>
<pdfrwt beam="1">  1        2 0.13578093E-01 0.11319445E+03</pdfrwt>
<pdfrwt beam="2">  1       -2 0.18925497E-01 0.11319445E+03</pdfrwt>
<totfact> 0.94022254E+03</totfact>
</mgrwt>
</event>
<event>
 6    1  0.1535419E-002  0.1058986E+03  0.7546771E-02  0.1307253E+00
         -2   -1    0    0    0  501 -0.00000000000E+00  0.00000000000E+00  0.85429980839E+02  0.85429980839E+02  0.00000000000E+00 0.  1.
          2   -1    0    0  501    0  0.00000000000E+00 -0.00000000000E+00 -0.95268364820E+02  0.95268364820E+02  0.00000000000E+00 0. -1.
         23    2    1    2    0    0  0.31142183918E+01 -0.50877749849E+02  0.36297910943E+02  0.11194660753E+03  0.92823815983E+02 0.  0.
         13    1    3    3    0    0  0.55424420251E+00 -0.78323528580E+02  0.26237882666E+02  0.82603321983E+02  0.00000000000E+00 0. -1.
        -13    1    3    3    0    0  0.25599741893E+01  0.27445778731E+02  0.10060028277E+02  0.29343285551E+02  0.00000000000E+00 0.  1.
         22    1    1    2    0    0 -0.31142183918E+01  0.50877749849E+02 -0.46136294924E+02  0.68751738125E+02  0.00000000000E+00 0.  1.
<mgrwt>
<rscale>  0 0.88206892E+02</rscale>
<asrwt>0</asrwt>
<pdfrwt beam="1">  1        2 0.14656672E-01 0.10589856E+03</pdfrwt>
<pdfrwt beam="2">  1       -2 0.13143074E-01 0.10589856E+03</pdfrwt>
<totfact> 0.15508530E+04</totfact>
</mgrwt>
</event>
<event>
 6    1  0.1535419E-002  0.9979494E+02  0.7546771E-02  0.1328970E+00
          1   -1    0    0  501    0  0.00000000000E+00  0.00000000000E+00  0.22935705937E+02  0.22935705937E+02  0.00000000000E+00 0. -1.
         -1   -1    0    0    0  501 -0.00000000000E+00 -0.00000000000E+00 -0.36089647665E+03  0.36089647665E+03  0.00000000000E+00 0.  1.
         23    2    1    2    0    0  0.35276275650E+02  0.21423710976E+02 -0.96333236026E+02  0.13870516136E+03  0.90860543745E+02 0.  0.
         11    1    3    3    0    0 -0.18172163252E+02  0.30829320457E+02 -0.69481305544E+02  0.78155782494E+02  0.00000000000E+00 0.  1.
        -11    1    3    3    0    0  0.53448438902E+02 -0.94056094807E+01 -0.26851930482E+02  0.60549378869E+02  0.00000000000E+00 0. -1.
         22    1    1    2    0    0 -0.35276275650E+02 -0.21423710976E+02 -0.24162753469E+03  0.24512702123E+03  0.00000000000E+00 0.  1.
<mgrwt>
<rscale>  0 0.80028684E+02</rscale>
<asrwt>0</asrwt>
<pdfrwt beam="1">  1        1 0.35285702E-02 0.99794937E+02</pdfrwt>
<pdfrwt beam="2">  1       -1 0.55522534E-01 0.99794937E+02</pdfrwt>
<totfact> 0.84039722E+03</totfact>
</mgrwt>
</event>
<event>
 6    1  0.1535419E-002  0.9217538E+02  0.7546771E-02  0.1386223E+00
          2   -1    0    0  501    0  0.00000000000E+00  0.00000000000E+00  0.68240642948E+02  0.68240642948E+02  0.00000000000E+00 0. -1.
         -2   -1    0    0    0  501 -0.00000000000E+00 -0.00000000000E+00 -0.52991066668E+02  0.52991066668E+02  0.00000000000E+00 0.  1.
         23    2    1    2    0    0 -0.99407501305E+01  0.17275446578E+02  0.29442456691E+02  0.96763415397E+02  0.89994670596E+02 0.  0.
         13    1    3    3    0    0  0.11672441811E+02  0.26481274293E+02  0.54938494744E+02  0.62094621271E+02  0.00000000000E+00 0. -1.
        -13    1    3    3    0    0 -0.21613191941E+02 -0.92058277154E+01 -0.25496038052E+02  0.34668794127E+02  0.00000000000E+00 0.  1.
         22    1    1    2    0    0  0.99407501305E+01 -0.17275446578E+02 -0.14192880411E+02  0.24468294219E+02  0.00000000000E+00 0. -1.
<mgrwt>
<rscale>  0 0.62855819E+02</rscale>
<asrwt>0</asrwt>
<pdfrwt beam="1">  1        2 0.10498561E-01 0.92175378E+02</pdfrwt>
<pdfrwt beam="2">  1       -2 0.81524717E-02 0.92175378E+02</pdfrwt>
<totfact> 0.47825784E+04</totfact>
</mgrwt>
</event>
<event>
 6    1  0.1535419E-002  0.1155755E+03  0.7546771E-02  0.1364985E+00
         -2   -1    0    0    0  501 -0.00000000000E+00  0.00000000000E+00  0.66566609892E+01  0.66566609892E+01  0.00000000000E+00 0.  1.
          2   -1    0    0  501    0  0.00000000000E+00 -0.00000000000E+00 -0.80187619782E+03  0.80187619782E+03  0.00000000000E+00 0. -1.
         23    2    1    2    0    0  0.11855807737E+02  0.80477937752E+01 -0.77600016359E+03  0.78455971822E+03  0.11468378441E+03 0.  0.
         11    1    3    3    0    0  0.44094697602E+02 -0.23553327336E+02 -0.62394922061E+03  0.62594866522E+03  0.00000000000E+00 0. -1.
        -11    1    3    3    0    0 -0.32238889865E+02  0.31601121111E+02 -0.15205094298E+03  0.15861105300E+03  0.00000000000E+00 0.  1.
         22    1    1    2    0    0 -0.11855807737E+02 -0.80477937752E+01 -0.19219373239E+02  0.23973140584E+02  0.00000000000E+00 0. -1.
<mgrwt>
<rscale>  0 0.68581212E+02</rscale>
<asrwt>0</asrwt>
<pdfrwt beam="1">  1        2 0.12336562E+00 0.11557551E+03</pdfrwt>
<pdfrwt beam="2">  1       -2 0.10241012E-02 0.11557551E+03</pdfrwt>
<totfact> 0.66568129E+04</totfact>
</mgrwt>
</event>
<event>
 6    1  0.1535419E-002  0.9149462E+02  0.7546771E-02  0.1411054E+00
          2   -1    0    0  501    0  0.00000000000E+00  0.00000000000E+00  0.15865743484E+03  0.15865743484E+03  0.00000000000E+00 0. -1.
         -2   -1    0    0    0  501 -0.00000000000E+00 -0.00000000000E+00 -0.42735233377E+02  0.42735233377E+02  0.00000000000E+00 0.  1.
         23    2    1    2    0    0  0.11476867541E+02 -0.75595103703E+01  0.14372633584E+03  0.17037759811E+03  0.90456628494E+02 0.  0.
         13    1    3    3    0    0 -0.29180655611E+02  0.24636539826E+02  0.76196013952E+02  0.85230876439E+02  0.00000000000E+00 0. -1.
        -13    1    3    3    0    0  0.40657523152E+02 -0.32196050196E+02  0.67530321889E+02  0.85146721673E+02  0.00000000000E+00 0.  1.
         22    1    1    2    0    0 -0.11476867541E+02  0.75595103703E+01 -0.27804134374E+02  0.31015070109E+02  0.00000000000E+00 0.  1.
<mgrwt>
<rscale>  0 0.56959416E+02</rscale>
<asrwt>0</asrwt>
<pdfrwt beam="1">  1        2 0.24408836E-01 0.91494625E+02</pdfrwt>
<pdfrwt beam="2">  1       -2 0.65746514E-02 0.91494625E+02</pdfrwt>
<totfact> 0.25149149E+04</totfact>
</mgrwt>
</event>
<event>
 6    1  0.1535419E-002  0.9478559E+02  0.7546771E-02  0.1359368E+00
         -2   -1    0    0    0  501 -0.00000000000E+00  0.00000000000E+00  0.13879303976E+02  0.13879303976E+02  0.00000000000E+00 0.  1.
          2   -1    0    0  501    0  0.00000000000E+00 -0.00000000000E+00 -0.69294050965E+03  0.69294050965E+03  0.00000000000E+00 0. -1.
         23    2    1    2    0    0 -0.28237582082E+02 -0.41471925567E+01 -0.67029470581E+03  0.67696329394E+03  0.90386660848E+02 0.  0.
         13    1    3    3    0    0  0.92461827556E+01 -0.28015905530E+02 -0.84815379767E+02  0.89799952691E+02  0.00000000000E+00 0.  1.
        -13    1    3    3    0    0 -0.37483764837E+02  0.23868712973E+02 -0.58547932604E+03  0.58716334125E+03  0.00000000000E+00 0. -1.
         22    1    1    2    0    0  0.28237582082E+02  0.41471925567E+01 -0.87664998677E+01  0.29856519688E+02  0.00000000000E+00 0.  1.
<mgrwt>
<rscale>  0 0.70213747E+02</rscale>
<asrwt>0</asrwt>
<pdfrwt beam="1">  1        2 0.10660620E+00 0.94785593E+02</pdfrwt>
<pdfrwt beam="2">  1       -2 0.21352782E-02 0.94785593E+02</pdfrwt>
<totfact> 0.27104260E+04</totfact>
</mgrwt>
</event>
<event>
 6    1  0.1535419E-002  0.9304275E+02  0.7546771E-02  0.1386974E+00
         -2   -1    0    0    0  501 -0.00000000000E+00  0.00000000000E+00  0.80237189112E+01  0.80237189112E+01  0.00000000000E+00 0.  1.
          2   -1    0    0  501    0  0.00000000000E+00 -0.00000000000E+00 -0.39215649913E+03  0.39215649913E+03  0.00000000000E+00 0. -1.
         23    2    1    2    0    0 -0.18548049538E+02 -0.47456948090E+01 -0.31863057927E+03  0.33193734230E+03  0.91051641410E+02 0.  0.
         11    1    3    3    0    0  0.67532113074E+01 -0.37977714037E+00 -0.30033338152E+03  0.30040953738E+03  0.00000000000E+00 0. -1.
        -11    1    3    3    0    0 -0.25301260846E+02 -0.43659176687E+01 -0.18297197757E+02  0.31527804923E+02  0.00000000000E+00 0.  1.
         22    1    1    2    0    0  0.18548049538E+02  0.47456948090E+01 -0.65502200946E+02  0.68242875743E+02  0.00000000000E+00 0. -1.
<mgrwt>
<rscale>  0 0.62665544E+02</rscale>
<asrwt>0</asrwt>
<pdfrwt beam="1">  1        2 0.60331763E-01 0.93042749E+02</pdfrwt>
<pdfrwt beam="2">  1       -2 0.12344184E-02 0.93042749E+02</pdfrwt>
<totfact> 0.11051463E+05</totfact>
</mgrwt>
</event>
<event>
 6    1  0.1535419E-002  0.9276692E+02  0.7546771E-02  0.1412864E+00
          2   -1    0    0  501    0  0.00000000000E+00  0.00000000000E+00  0.16170021459E+04  0.16170021459E+04  0.00000000000E+00 0. -1.
         -2   -1    0    0    0  501 -0.00000000000E+00 -0.00000000000E+00 -0.31525569113E+01  0.31525569113E+01  0.00000000000E+00 0.  1.
         23    2    1    2    0    0  0.21405158609E+01 -0.12638711128E+02  0.15928690464E+04  0.15955680806E+04  0.91876993001E+02 0.  0.
         11    1    3    3    0    0  0.26382998660E+01 -0.39523296397E+02  0.14257088157E+04  0.14262589803E+04  0.00000000000E+00 0. -1.
        -11    1    3    3    0    0 -0.49778400507E+00  0.26884585268E+02  0.16716023071E+03  0.16930910031E+03  0.00000000000E+00 0.  1.
         22    1    1    2    0    0 -0.21405158609E+01  0.12638711128E+02  0.20980542577E+02  0.24586622256E+02  0.00000000000E+00 0.  1.
<mgrwt>
<rscale>  0 0.56559525E+02</rscale>
<asrwt>0</asrwt>
<pdfrwt beam="1">  1        2 0.24876890E+00 0.92766916E+02</pdfrwt>
<pdfrwt beam="2">  1       -2 0.48501005E-03 0.92766916E+02</pdfrwt>
<totfact> 0.65542940E+04</totfact>
</mgrwt>
</event>
<event>
 6    1  0.1535419E-002  0.1031366E+03  0.7546771E-02  0.1312937E+00
         -2   -1    0    0    0  501 -0.00000000000E+00  0.00000000000E+00  0.60697871313E+02  0.60697871313E+02  0.00000000000E+00 0. -1.
          2   -1    0    0  501    0  0.00000000000E+00 -0.00000000000E+00 -0.10769005177E+03  0.10769005177E+03  0.00000000000E+00 0.  1.
         23    2    1    2    0    0 -0.46499528286E+01  0.49553905605E+02 -0.56675726493E+02  0.11768306448E+03  0.90332464093E+02 0.  0.
         13    1    3    3    0    0  0.22266759900E+02  0.48936081507E+02 -0.69494237831E+02  0.87863517806E+02  0.00000000000E+00 0.  1.
        -13    1    3    3    0    0 -0.26916712728E+02  0.61782409843E+00  0.12818511338E+02  0.29819546670E+02  0.00000000000E+00 0. -1.
         22    1    1    2    0    0  0.46499528286E+01 -0.49553905605E+02  0.96835460397E+01  0.50704858603E+02  0.00000000000E+00 0. -1.
<mgrwt>
<rscale>  0 0.85961723E+02</rscale>
<asrwt>0</asrwt>
<pdfrwt beam="1">  1        2 0.16567700E-01 0.10313664E+03</pdfrwt>
<pdfrwt beam="2">  1       -2 0.93381342E-02 0.10313664E+03</pdfrwt>
<totfact> 0.22994935E+04</totfact>
</mgrwt>
</event>
<event>
 6    1  0.1535419E-002  0.1076570E+03  0.7546771E-02  0.1299165E+00
          2   -1    0    0  501    0  0.00000000000E+00  0.00000000000E+00  0.25734939324E+03  0.25734939324E+03  0.00000000000E+00 0. -1.
         -2   -1    0    0    0  501 -0.00000000000E+00 -0.00000000000E+00 -0.29611444774E+02  0.29611444774E+02  0.00000000000E+00 0.  1.
         23    2    1    2    0    0  0.56262180651E+02  0.11822881650E+01  0.19251442142E+03  0.22057162477E+03  0.91778038897E+02 0.  0.
         13    1    3    3    0    0  0.32190376863E+02  0.36475406819E+02  0.15899329207E+03  0.16626948785E+03  0.00000000000E+00 0. -1.
        -13    1    3    3    0    0  0.24071803788E+02 -0.35293118654E+02  0.33521129346E+02  0.54302136925E+02  0.00000000000E+00 0.  1.
         22    1    1    2    0    0 -0.56262180651E+02 -0.11822881650E+01  0.35223527043E+02  0.66389213237E+02  0.00000000000E+00 0. -1.
<mgrwt>
<rscale>  0 0.91539797E+02</rscale>
<asrwt>0</asrwt>
<pdfrwt beam="1">  1        2 0.39592213E-01 0.10765704E+03</pdfrwt>
<pdfrwt beam="2">  1       -2 0.45556071E-02 0.10765704E+03</pdfrwt>
<totfact> 0.26416058E+04</totfact>
</mgrwt>
</event>
<event>
 6    1  0.1535419E-002  0.9270902E+02  0.7546771E-02  0.1425280E+00
         -2   -1    0    0    0  501 -0.00000000000E+00  0.00000000000E+00  0.15152752972E+02  0.15152752972E+02  0.00000000000E+00 0.  1.
          2   -1    0    0  501    0  0.00000000000E+00 -0.00000000000E+00 -0.44941961483E+03  0.44941961483E+03  0.00000000000E+00 0. -1.
         23    2    1    2    0    0  0.57922118793E+01  0.88862883045E+01 -0.44188961402E+03  0.45151012494E+03  0.92100196049E+02 0.  0.
         13    1    3    3    0    0  0.10014242938E+02 -0.13201319986E+02 -0.41932899498E+03  0.41965624735E+03  0.00000000000E+00 0. -1.
        -13    1    3    3    0    0 -0.42220310583E+01  0.22087608291E+02 -0.22560619036E+02  0.31853877590E+02  0.00000000000E+00 0.  1.
         22    1    1    2    0    0 -0.57922118793E+01 -0.88862883045E+01  0.76227521529E+01  0.13062242865E+02  0.00000000000E+00 0.  1.
<mgrwt>
<rscale>  0 0.53919169E+02</rscale>
<asrwt>0</asrwt>
<pdfrwt beam="1">  1        2 0.69141491E-01 0.92709018E+02</pdfrwt>
<pdfrwt beam="2">  1       -2 0.23311924E-02 0.92709018E+02</pdfrwt>
<totfact> 0.38480324E+04</totfact>
</mgrwt>
</event>
<event>
 6    1  0.1535419E-002  0.8601464E+02  0.7546771E-02  0.1401402E+00
         -2   -1    0    0    0  501 -0.00000000000E+00  0.00000000000E+00  0.14339373641E+03  0.14339373641E+03  0.00000000000E+00 0.  1.
          2   -1    0    0  501    0  0.00000000000E+00 -0.00000000000E+00 -0.19318290066E+02  0.19318290066E+02  0.00000000000E+00 0. -1.
         23    2    1    2    0    0  0.11104315026E+02  0.15718227993E+02  0.10081903434E+03  0.13252545325E+03  0.83834059736E+02 0.  0.
         11    1    3    3    0    0  0.44551801014E+02 -0.70389846481E+01  0.59916277797E+02  0.74995804039E+02  0.00000000000E+00 0. -1.
        -11    1    3    3    0    0 -0.33447485988E+02  0.22757212641E+02  0.40902756539E+02  0.57529649213E+02  0.00000000000E+00 0.  1.
         22    1    1    2    0    0 -0.11104315026E+02 -0.15718227993E+02  0.23256412004E+02  0.30186573220E+02  0.00000000000E+00 0.  1.
<mgrwt>
<rscale>  0 0.59157326E+02</rscale>
<asrwt>0</asrwt>
<pdfrwt beam="1">  1        2 0.29720447E-02 0.86014639E+02</pdfrwt>
<pdfrwt beam="2">  1       -2 0.22060574E-01 0.86014639E+02</pdfrwt>
<totfact> 0.47933898E+04</totfact>
</mgrwt>
</event>
<event>
 6    1  0.1535419E-002  0.9190087E+02  0.7546771E-02  0.1421361E+00
         -2   -1    0    0    0  501 -0.00000000000E+00  0.00000000000E+00  0.85816465058E+01  0.85816465058E+01  0.00000000000E+00 0.  1.
          2   -1    0    0  501    0  0.00000000000E+00 -0.00000000000E+00 -0.52119098534E+03  0.52119098534E+03  0.00000000000E+00 0. -1.
         23    2    1    2    0    0 -0.45969385814E+01  0.10609952779E+02 -0.50960557722E+03  0.51782585295E+03  0.91170536377E+02 0.  0.
         13    1    3    3    0    0  0.51636267697E+01  0.33625571575E+02 -0.46836992900E+03  0.46960380375E+03  0.00000000000E+00 0. -1.
        -13    1    3    3    0    0 -0.97605653511E+01 -0.23015618796E+02 -0.41235648221E+02  0.48222049197E+02  0.00000000000E+00 0.  1.
         22    1    1    2    0    0  0.45969385814E+01 -0.10609952779E+02 -0.30037616165E+01  0.11946778902E+02  0.00000000000E+00 0.  1.
<mgrwt>
<rscale>  0 0.54734018E+02</rscale>
<asrwt>0</asrwt>
<pdfrwt beam="1">  1        2 0.80183246E-01 0.91900869E+02</pdfrwt>
<pdfrwt beam="2">  1       -2 0.13202530E-02 0.91900869E+02</pdfrwt>
<totfact> 0.73998348E+04</totfact>
</mgrwt>
</event>
<event>
 6    1  0.1535419E-002  0.9196644E+02  0.7546771E-02  0.1414828E+00
          2   -1    0    0  501    0  0.00000000000E+00  0.00000000000E+00  0.30017489170E+03  0.30017489170E+03  0.00000000000E+00 0.  1.
         -2   -1    0    0    0  501 -0.00000000000E+00 -0.00000000000E+00 -0.23905647239E+02  0.23905647239E+02  0.00000000000E+00 0. -1.
         23    2    1    2    0    0 -0.11189634925E+02  0.61358788980E+01  0.29065063694E+03  0.30485343855E+03  0.91076722077E+02 0.  0.
         11    1    3    3    0    0 -0.13135800358E+02  0.19657654349E+02  0.13221950817E+02  0.27088606627E+02  0.00000000000E+00 0. -1.
        -11    1    3    3    0    0  0.19461654325E+01 -0.13521775451E+02  0.27742868612E+03  0.27776483192E+03  0.00000000000E+00 0.  1.
         22    1    1    2    0    0  0.11189634925E+02 -0.61358788980E+01 -0.14381392479E+02  0.19227100386E+02  0.00000000000E+00 0. -1.
<mgrwt>
<rscale>  0 0.56130359E+02</rscale>
<asrwt>0</asrwt>
<pdfrwt beam="1">  1        2 0.46180750E-01 0.91966441E+02</pdfrwt>
<pdfrwt beam="2">  1       -2 0.36777921E-02 0.91966441E+02</pdfrwt>
<totfact> 0.30284585E+04</totfact>
</mgrwt>
</event>
<event>
 6    1  0.1535419E-002  0.1003349E+03  0.7546771E-02  0.1326799E+00
          3   -1    0    0  501    0  0.00000000000E+00  0.00000000000E+00  0.38021171024E+02  0.38021171024E+02  0.00000000000E+00 0. -1.
         -3   -1    0    0    0  501 -0.00000000000E+00 -0.00000000000E+00 -0.23866537532E+03  0.23866537532E+03  0.00000000000E+00 0.  1.
         23    2    1    2    0    0 -0.22159138122E+02 -0.35909170994E+02 -0.21064612853E+03  0.23332141690E+03  0.91030742912E+02 0.  0.
         13    1    3    3    0    0 -0.11315784794E+02 -0.65145951943E+02 -0.16756614522E+03  0.18014009843E+03  0.00000000000E+00 0.  1.
        -13    1    3    3    0    0 -0.10843353328E+02  0.29236780949E+02 -0.43079983313E+02  0.53181318467E+02  0.00000000000E+00 0. -1.
         22    1    1    2    0    0  0.22159138122E+02  0.35909170994E+02  0.10001924231E+02  0.43365129449E+02  0.00000000000E+00 0. -1.
<mgrwt>
<rscale>  0 0.80799122E+02</rscale>
<asrwt>0</asrwt>
<pdfrwt beam="1">  1        3 0.58494110E-02 0.10033490E+03</pdfrwt>
<pdfrwt beam="2">  1       -3 0.36717750E-01 0.10033490E+03</pdfrwt>
<totfact> 0.28019622E+03</totfact>
</mgrwt>
</event>
<event>
 6    1  0.1535419E-002  0.9556944E+02  0.7546771E-02  0.1362423E+00
          1   -1    0    0  501    0  0.00000000000E+00  0.00000000000E+00  0.44096833159E+03  0.44096833159E+03  0.00000000000E+00 0. -1.
         -1   -1    0    0    0  501 -0.00000000000E+00 -0.00000000000E+00 -0.92666545477E+01  0.92666545477E+01  0.00000000000E+00 0.  1.
         23    2    1    2    0    0 -0.20725847917E+02 -0.16436077247E+02  0.38374886612E+03  0.39547023943E+03  0.91835791582E+02 0.  0.
         13    1    3    3    0    0  0.91272083123E+01  0.71444241604E+01  0.19175121418E+01  0.11748428873E+02  0.00000000000E+00 0.  1.
        -13    1    3    3    0    0 -0.29853056229E+02 -0.23580501408E+02  0.38183135398E+03  0.38372181055E+03  0.00000000000E+00 0. -1.
         22    1    1    2    0    0  0.20725847917E+02  0.16436077247E+02  0.47952810924E+02  0.54764746714E+02  0.00000000000E+00 0. -1.
<mgrwt>
<rscale>  0 0.69319223E+02</rscale>
<asrwt>0</asrwt>
<pdfrwt beam="1">  1        1 0.67841265E-01 0.95569441E+02</pdfrwt>
<pdfrwt beam="2">  1       -1 0.14256395E-02 0.95569441E+02</pdfrwt>
<totfact> 0.53071022E+04</totfact>
</mgrwt>
</event>
<event>
 6    1  0.1535419E-002  0.6333021E+02  0.7546771E-02  0.1491785E+00
          2   -1    0    0  501    0  0.00000000000E+00  0.00000000000E+00  0.85598334562E+01  0.85598334562E+01  0.00000000000E+00 0. -1.
         -2   -1    0    0    0  501 -0.00000000000E+00 -0.00000000000E+00 -0.17903055151E+03  0.17903055151E+03  0.00000000000E+00 0.  1.
         23    2    1    2    0    0 -0.49834288542E+01 -0.11606720718E+02 -0.12147074142E+03  0.13698852493E+03  0.62057750623E+02 0.  0.
         13    1    3    3    0    0  0.72641419282E+01 -0.14698348246E+01 -0.12085099758E+03  0.12107804008E+03  0.00000000000E+00 0.  1.
        -13    1    3    3    0    0 -0.12247570782E+02 -0.10136885894E+02 -0.61974383310E+00  0.15910484848E+02  0.00000000000E+00 0. -1.
         22    1    1    2    0    0  0.49834288542E+01  0.11606720718E+02 -0.48999976640E+02  0.50601860041E+02  0.00000000000E+00 0. -1.
<mgrwt>
<rscale>  0 0.42322416E+02</rscale>
<asrwt>0</asrwt>
<pdfrwt beam="1">  1        2 0.13168975E-02 0.63330206E+02</pdfrwt>
<pdfrwt beam="2">  1       -2 0.27543161E-01 0.63330206E+02</pdfrwt>
<totfact> 0.92391452E+04</totfact>
</mgrwt>
</event>
<event>
 6    1  0.1535419E-002  0.9616543E+02  0.7546771E-02  0.1366337E+00
         -2   -1    0    0    0  501 -0.00000000000E+00  0.00000000000E+00  0.36629543659E+02  0.36629543659E+02  0.00000000000E+00 0.  1.
          2   -1    0    0  501    0  0.00000000000E+00 -0.00000000000E+00 -0.11781046106E+03  0.11781046106E+03  0.00000000000E+00 0. -1.
         23    2    1    2    0    0  0.14913439330E+02  0.19211931768E+02 -0.86724901847E+02  0.12949517042E+03  0.93039139966E+02 0.  0.
         13    1    3    3    0    0  0.57155821474E+01 -0.17442162910E+02 -0.89727463767E+02  0.91585559344E+02  0.00000000000E+00 0. -1.
        -13    1    3    3    0    0  0.91978571826E+01  0.36654094679E+02  0.30025619206E+01  0.37909611071E+02  0.00000000000E+00 0.  1.
         22    1    1    2    0    0 -0.14913439330E+02 -0.19211931768E+02  0.55439844451E+01  0.24944834304E+02  0.00000000000E+00 0.  1.
<mgrwt>
<rscale>  0 0.68196080E+02</rscale>
<asrwt>0</asrwt>
<pdfrwt beam="1">  1        2 0.18124686E-01 0.96165433E+02</pdfrwt>
<pdfrwt beam="2">  1       -2 0.56353144E-02 0.96165433E+02</pdfrwt>
<totfact> 0.44410296E+04</totfact>
</mgrwt>
</event>
<event>
 6    1  0.1535419E-002  0.9023832E+02  0.7546771E-02  0.1403984E+00
         -2   -1    0    0    0  501 -0.00000000000E+00  0.00000000000E+00  0.48577892535E+01  0.48577892535E+01  0.00000000000E+00 0.  1.
          2   -1    0    0  501    0  0.00000000000E+00 -0.00000000000E+00 -0.70662924354E+03  0.70662924354E+03  0.00000000000E+00 0. -1.
         23    2    1    2    0    0  0.15981354562E+02  0.81378266151E+00 -0.66854977169E+03  0.67461229713E+03  0.88808154317E+02 0.  0.
         13    1    3    3    0    0  0.37430782135E+02 -0.31645467101E+02 -0.44622840297E+03  0.44891233738E+03  0.00000000000E+00 0. -1.
        -13    1    3    3    0    0 -0.21449427573E+02  0.32459249762E+02 -0.22232136873E+03  0.22569995975E+03  0.00000000000E+00 0.  1.
         22    1    1    2    0    0 -0.15981354562E+02 -0.81378266151E+00 -0.33221682592E+02  0.36874735662E+02  0.00000000000E+00 0. -1.
<mgrwt>
<rscale>  0 0.58558133E+02</rscale>
<asrwt>0</asrwt>
<pdfrwt beam="1">  1        2 0.10871211E+00 0.90238319E+02</pdfrwt>
<pdfrwt beam="2">  1       -2 0.74735277E-03 0.90238319E+02</pdfrwt>
<totfact> 0.11730304E+05</totfact>
</mgrwt>
</event>
<event>
 6    1  0.1535419E-002  0.1005334E+03  0.7546771E-02  0.1372426E+00
         -1   -1    0    0    0  501 -0.00000000000E+00  0.00000000000E+00  0.28705814831E+01  0.28705814831E+01  0.00000000000E+00 0.  1.
          1   -1    0    0  501    0  0.00000000000E+00 -0.00000000000E+00 -0.19822324836E+04  0.19822324836E+04  0.00000000000E+00 0. -1.
         23    2    1    2    0    0 -0.16817823003E+02 -0.93529683139E+01 -0.19214374902E+04  0.19240657430E+04  0.98674401864E+02 0.  0.
         11    1    3    3    0    0  0.25166568471E+02  0.81901785273E+01 -0.17091193475E+03  0.17294890758E+03  0.00000000000E+00 0.  1.
        -11    1    3    3    0    0 -0.41984391474E+02 -0.17543146841E+02 -0.17505255554E+04  0.17511168354E+04  0.00000000000E+00 0. -1.
         22    1    1    2    0    0  0.16817823003E+02  0.93529683139E+01 -0.57924411888E+02  0.61037322020E+02  0.00000000000E+00 0.  1.
<mgrwt>
<rscale>  0 0.66497352E+02</rscale>
<asrwt>0</asrwt>
<pdfrwt beam="1">  1        1 0.30495816E+00 0.10053335E+03</pdfrwt>
<pdfrwt beam="2">  1       -1 0.44162891E-03 0.10053335E+03</pdfrwt>
<totfact> 0.20072325E+04</totfact>
</mgrwt>
</event>
<event>
 6    1  0.1535419E-002  0.9078841E+02  0.7546771E-02  0.1399349E+00
         -4   -1    0    0    0  501 -0.00000000000E+00  0.00000000000E+00  0.51391038647E+02  0.51391038647E+02  0.00000000000E+00 0.  1.
          4   -1    0    0  501    0  0.00000000000E+00 -0.00000000000E+00 -0.56425392192E+02  0.56425392192E+02  0.00000000000E+00 0. -1.
         23    2    1    2    0    0 -0.16896103511E+02  0.59894880177E+00 -0.39183920472E+01  0.90872924012E+02  0.89200322134E+02 0.  0.
         11    1    3    3    0    0  0.12768069179E+02 -0.28733640992E+02 -0.28512457015E+02  0.42445328604E+02  0.00000000000E+00 0. -1.
        -11    1    3    3    0    0 -0.29664172690E+02  0.29332589794E+02  0.24594064968E+02  0.48427595408E+02  0.00000000000E+00 0.  1.
         22    1    1    2    0    0  0.16896103511E+02 -0.59894880177E+00 -0.11159614983E+01  0.16943506827E+02  0.00000000000E+00 0.  1.
<mgrwt>
<rscale>  0 0.59639996E+02</rscale>
<asrwt>0</asrwt>
<pdfrwt beam="1">  1        4 0.86808295E-02 0.90788405E+02</pdfrwt>
<pdfrwt beam="2">  1       -4 0.79063137E-02 0.90788405E+02</pdfrwt>
<totfact> 0.15638175E+04</totfact>
</mgrwt>
</event>
<event>
 6    1  0.1535419E-002  0.9042141E+02  0.7546771E-02  0.1413931E+00
          2   -1    0    0  501    0  0.00000000000E+00  0.00000000000E+00  0.10597859286E+04  0.10597859286E+04  0.00000000000E+00 0. -1.
         -2   -1    0    0    0  501 -0.00000000000E+00 -0.00000000000E+00 -0.36032194928E+01  0.36032194928E+01  0.00000000000E+00 0.  1.
         23    2    1    2    0    0  0.13031819420E+02  0.39418500648E+01  0.10292163936E+04  0.10331807275E+04  0.89390516530E+02 0.  0.
         13    1    3    3    0    0 -0.10964259678E+02  0.11507444470E+02  0.94851357634E+03  0.94864674182E+03  0.00000000000E+00 0. -1.
        -13    1    3    3    0    0  0.23996079098E+02 -0.75655944052E+01  0.80702817242E+02  0.84533985719E+02  0.00000000000E+00 0.  1.
         22    1    1    2    0    0 -0.13031819420E+02 -0.39418500648E+01  0.26966315544E+02  0.30208420570E+02  0.00000000000E+00 0.  1.
<mgrwt>
<rscale>  0 0.56325798E+02</rscale>
<asrwt>0</asrwt>
<pdfrwt beam="1">  1        2 0.16304374E+00 0.90421408E+02</pdfrwt>
<pdfrwt beam="2">  1       -2 0.55434230E-03 0.90421408E+02</pdfrwt>
<totfact> 0.10683913E+05</totfact>
</mgrwt>
</event>
<event>
 6    1  0.1535419E-002  0.9331689E+02  0.7546771E-02  0.1395453E+00
         -2   -1    0    0    0  501 -0.00000000000E+00  0.00000000000E+00  0.66662045251E+02  0.66662045251E+02  0.00000000000E+00 0.  1.
          2   -1    0    0  501    0  0.00000000000E+00 -0.00000000000E+00 -0.46822836212E+02  0.46822836212E+02  0.00000000000E+00 0. -1.
         23    2    1    2    0    0 -0.91153491141E+01 -0.13830201129E+02  0.91344037631E+01  0.93762890977E+02  0.91835060513E+02 0.  0.
         11    1    3    3    0    0  0.20956986483E+02 -0.36386017971E+02 -0.19704895799E+02  0.46383407644E+02  0.00000000000E+00 0. -1.
        -11    1    3    3    0    0 -0.30072335597E+02  0.22555816842E+02  0.28839299562E+02  0.47379483333E+02  0.00000000000E+00 0.  1.
         22    1    1    2    0    0  0.91153491141E+01  0.13830201129E+02  0.10704805276E+02  0.19721990487E+02  0.00000000000E+00 0. -1.
<mgrwt>
<rscale>  0 0.60570492E+02</rscale>
<asrwt>0</asrwt>
<pdfrwt beam="1">  1        2 0.72035132E-02 0.93316892E+02</pdfrwt>
<pdfrwt beam="2">  1       -2 0.10255699E-01 0.93316892E+02</pdfrwt>
<totfact> 0.53414630E+04</totfact>
</mgrwt>
</event>
<event>
 6    1  0.1535419E-002  0.9238907E+02  0.7546771E-02  0.1423766E+00
         -2   -1    0    0    0  501 -0.00000000000E+00  0.00000000000E+00  0.29071134725E+01  0.29071134725E+01  0.00000000000E+00 0.  1.
          2   -1    0    0  501    0  0.00000000000E+00 -0.00000000000E+00 -0.13077062266E+04  0.13077062266E+04  0.00000000000E+00 0. -1.
         23    2    1    2    0    0  0.55534932726E+01 -0.94590853949E+01 -0.12818756248E+04  0.12852007073E+04  0.91735626607E+02 0.  0.
         11    1    3    3    0    0  0.23286743392E+02 -0.74930591960E+01 -0.92161991428E+02  0.95353295790E+02  0.00000000000E+00 0.  1.
        -11    1    3    3    0    0 -0.17733250119E+02 -0.19660261989E+01 -0.11897136333E+04  0.11898474115E+04  0.00000000000E+00 0. -1.
         22    1    1    2    0    0 -0.55534932726E+01  0.94590853949E+01 -0.22923488402E+02  0.25412632775E+02  0.00000000000E+00 0. -1.
<mgrwt>
<rscale>  0 0.54232009E+02</rscale>
<asrwt>0</asrwt>
<pdfrwt beam="1">  1        2 0.20118570E+00 0.92389073E+02</pdfrwt>
<pdfrwt beam="2">  1       -2 0.44724794E-03 0.92389073E+02</pdfrwt>
<totfact> 0.10590812E+05</totfact>
</mgrwt>
</event>
<event>
 6    1  0.1535419E-002  0.9256540E+02  0.7546771E-02  0.1390969E+00
         -1   -1    0    0    0  501 -0.00000000000E+00  0.00000000000E+00  0.13836802694E+02  0.13836802694E+02  0.00000000000E+00 0.  1.
          1   -1    0    0  501    0  0.00000000000E+00 -0.00000000000E+00 -0.15237038471E+04  0.15237038471E+04  0.00000000000E+00 0. -1.
         23    2    1    2    0    0  0.29542000201E+01 -0.17991474398E+02 -0.15156031371E+04  0.15184272198E+04  0.90752035771E+02 0.  0.
         13    1    3    3    0    0  0.12654359204E+02 -0.49522232616E+02 -0.12036159709E+04  0.12047007885E+04  0.00000000000E+00 0. -1.
        -13    1    3    3    0    0 -0.97001591841E+01  0.31530758218E+02 -0.31198716619E+03  0.31372643126E+03  0.00000000000E+00 0.  1.
         22    1    1    2    0    0 -0.29542000201E+01  0.17991474398E+02  0.57360927031E+01  0.19113430050E+02  0.00000000000E+00 0.  1.
<mgrwt>
<rscale>  0 0.61666239E+02</rscale>
<asrwt>0</asrwt>
<pdfrwt beam="1">  1        1 0.23441580E+00 0.92565396E+02</pdfrwt>
<pdfrwt beam="2">  1       -1 0.21287405E-02 0.92565396E+02</pdfrwt>
<totfact> 0.42118450E+03</totfact>
</mgrwt>
</event>
<event>
 6    1  0.1535419E-002  0.9056669E+02  0.7546771E-02  0.1417146E+00
          2   -1    0    0  501    0  0.00000000000E+00  0.00000000000E+00  0.37929773438E+03  0.37929773438E+03  0.00000000000E+00 0. -1.
         -2   -1    0    0    0  501 -0.00000000000E+00 -0.00000000000E+00 -0.82168056262E+01  0.82168056262E+01  0.00000000000E+00 0.  1.
         23    2    1    2    0    0  0.96510232643E+01  0.85470758713E+01  0.35748298057E+03  0.36877690539E+03  0.89644463293E+02 0.  0.
         13    1    3    3    0    0  0.19743034383E+02  0.12805608769E+02  0.35703955929E+03  0.35781422263E+03  0.00000000000E+00 0. -1.
        -13    1    3    3    0    0 -0.10092011119E+02 -0.42585328975E+01  0.44342128160E+00  0.10962682760E+02  0.00000000000E+00 0.  1.
         22    1    1    2    0    0 -0.96510232643E+01 -0.85470758713E+01  0.13597948179E+02  0.18737634608E+02  0.00000000000E+00 0. -1.
<mgrwt>
<rscale>  0 0.55629290E+02</rscale>
<asrwt>0</asrwt>
<pdfrwt beam="1">  1        2 0.58353484E-01 0.90566686E+02</pdfrwt>
<pdfrwt beam="2">  1       -2 0.12641242E-02 0.90566686E+02</pdfrwt>
<totfact> 0.11020615E+05</totfact>
</mgrwt>
</event>
<event>
 6    1  0.1535419E-002  0.9315397E+02  0.7546771E-02  0.1384937E+00
          2   -1    0    0  501    0  0.00000000000E+00  0.00000000000E+00  0.26206241663E+04  0.26206241663E+04  0.00000000000E+00 0. -1.
         -2   -1    0    0    0  501 -0.00000000000E+00 -0.00000000000E+00 -0.21987312798E+01  0.21987312798E+01  0.00000000000E+00 0.  1.
         23    2    1    2    0    0 -0.19514199584E+02  0.28126080755E+01  0.25476541462E+04  0.25493566464E+04  0.91043653533E+02 0.  0.
         13    1    3    3    0    0 -0.38795379865E+02 -0.23217658574E+02  0.21182220051E+04  0.21187044636E+04  0.00000000000E+00 0. -1.
        -13    1    3    3    0    0  0.19281180282E+02  0.26030266650E+02  0.42943214113E+03  0.43065218278E+03  0.00000000000E+00 0.  1.
         22    1    1    2    0    0  0.19514199584E+02 -0.28126080755E+01  0.70771288807E+02  0.73466251224E+02  0.00000000000E+00 0.  1.
<mgrwt>
<rscale>  0 0.63183677E+02</rscale>
<asrwt>0</asrwt>
<pdfrwt beam="1">  1        2 0.40317045E+00 0.93153967E+02</pdfrwt>
<pdfrwt beam="2">  1       -2 0.33826845E-03 0.93153967E+02</pdfrwt>
<totfact> 0.33334602E+04</totfact>
</mgrwt>
</event>
<event>
 6    1  0.1535419E-002  0.1001253E+03  0.7546771E-02  0.1329450E+00
          2   -1    0    0  501    0  0.00000000000E+00  0.00000000000E+00  0.45029972549E+03  0.45029972549E+03  0.00000000000E+00 0. -1.
         -2   -1    0    0    0  501 -0.00000000000E+00 -0.00000000000E+00 -0.12329253312E+02  0.12329253312E+02  0.00000000000E+00 0.  1.
         23    2    1    2    0    0 -0.39150379261E+01  0.40331489909E+02  0.23157769443E+03  0.25229606338E+03  0.91559371134E+02 0.  0.
         11    1    3    3    0    0 -0.25870296156E+02  0.63254770673E+02  0.15463890468E+03  0.16906693668E+03  0.00000000000E+00 0.  1.
        -11    1    3    3    0    0  0.21955258229E+02 -0.22923280764E+02  0.76938789744E+02  0.83229126706E+02  0.00000000000E+00 0. -1.
         22    1    1    2    0    0  0.39150379261E+01 -0.40331489909E+02  0.20639277776E+03  0.21033291542E+03  0.00000000000E+00 0. -1.
<mgrwt>
<rscale>  0 0.79859773E+02</rscale>
<asrwt>0</asrwt>
<pdfrwt beam="1">  1        2 0.69276868E-01 0.10012530E+03</pdfrwt>
<pdfrwt beam="2">  1       -2 0.18968085E-02 0.10012530E+03</pdfrwt>
<totfact> 0.52163390E+04</totfact>
</mgrwt>
</event>
<event>
 6    1  0.1535419E-002  0.7758077E+02  0.7546771E-02  0.1464649E+00
         -2   -1    0    0    0  501 -0.00000000000E+00  0.00000000000E+00  0.27111913629E+01  0.27111913629E+01  0.00000000000E+00 0.  1.
          2   -1    0    0  501    0  0.00000000000E+00 -0.00000000000E+00 -0.10535709390E+04  0.10535709390E+04  0.00000000000E+00 0. -1.
         23    2    1    2    0    0 -0.43386004679E+01  0.91107172834E+01 -0.10318296314E+04  0.10347420759E+04  0.76921692204E+02 0.  0.
         11    1    3    3    0    0 -0.39764055189E+02 -0.36332823116E+01 -0.52649295447E+03  0.52800493551E+03  0.00000000000E+00 0.  1.
        -11    1    3    3    0    0  0.35425454721E+02  0.12743999595E+02 -0.50533667694E+03  0.50673714037E+03  0.00000000000E+00 0. -1.
         22    1    1    2    0    0  0.43386004679E+01 -0.91107172834E+01 -0.19030116272E+02  0.21540054521E+02  0.00000000000E+00 0.  1.
<mgrwt>
<rscale>  0 0.46590705E+02</rscale>
<asrwt>0</asrwt>
<pdfrwt beam="1">  1        2 0.16208791E+00 0.77580767E+02</pdfrwt>
<pdfrwt beam="2">  1       -2 0.41710619E-03 0.77580767E+02</pdfrwt>
<totfact> 0.15691115E+05</totfact>
</mgrwt>
</event>
<event>
 6    1  0.1535419E-002  0.9595574E+02  0.7546771E-02  0.1352407E+00
         -1   -1    0    0    0  501 -0.00000000000E+00  0.00000000000E+00  0.20636636531E+03  0.20636636531E+03  0.00000000000E+00 0.  1.
          1   -1    0    0  501    0  0.00000000000E+00 -0.00000000000E+00 -0.40551285881E+02  0.40551285881E+02  0.00000000000E+00 0. -1.
         23    2    1    2    0    0  0.29550731822E+02 -0.91852032514E+01  0.20210575897E+02  0.98061058596E+02  0.90828905779E+02 0.  0.
         13    1    3    3    0    0  0.55200421729E+02 -0.12178467017E+02 -0.10962547828E+02  0.57581065229E+02  0.00000000000E+00 0. -1.
        -13    1    3    3    0    0 -0.25649689907E+02  0.29932637660E+01  0.31173123725E+02  0.40479993368E+02  0.00000000000E+00 0.  1.
         22    1    1    2    0    0 -0.29550731822E+02  0.91852032514E+01  0.14560450354E+03  0.14885659260E+03  0.00000000000E+00 0.  1.
<mgrwt>
<rscale>  0 0.72310607E+02</rscale>
<asrwt>0</asrwt>
<pdfrwt beam="1">  1        1 0.62386595E-02 0.95955739E+02</pdfrwt>
<pdfrwt beam="2">  1       -1 0.31748671E-01 0.95955739E+02</pdfrwt>
<totfact> 0.10316518E+04</totfact>
</mgrwt>
</event>
<event>
 6    1  0.1535419E-002  0.9134613E+02  0.7546771E-02  0.1424876E+00
         -2   -1    0    0    0  501 -0.00000000000E+00  0.00000000000E+00  0.65535986060E+02  0.65535986060E+02  0.00000000000E+00 0.  1.
          2   -1    0    0  501    0  0.00000000000E+00 -0.00000000000E+00 -0.99623329716E+02  0.99623329716E+02  0.00000000000E+00 0. -1.
         23    2    1    2    0    0 -0.89091671048E+01 -0.67175033680E+01 -0.77835712998E+02  0.12001047382E+03  0.90662106188E+02 0.  0.
         13    1    3    3    0    0 -0.42519024384E+01  0.32462693938E+02 -0.73318918440E+02  0.80296755683E+02  0.00000000000E+00 0. -1.
        -13    1    3    3    0    0 -0.46572646664E+01 -0.39180197306E+02 -0.45167945581E+01  0.39713718136E+02  0.00000000000E+00 0.  1.
         22    1    1    2    0    0  0.89091671048E+01  0.67175033680E+01  0.43748369342E+02  0.45148841957E+02  0.00000000000E+00 0.  1.
<mgrwt>
<rscale>  0 0.54002388E+02</rscale>
<asrwt>0</asrwt>
<pdfrwt beam="1">  1        2 0.15326666E-01 0.91346131E+02</pdfrwt>
<pdfrwt beam="2">  1       -2 0.10082459E-01 0.91346131E+02</pdfrwt>
<totfact> 0.22022205E+04</totfact>
</mgrwt>
</event>
<event>
 6    1  0.1535419E-002  0.9085482E+02  0.7546771E-02  0.1427445E+00
         -2   -1    0    0    0  501 -0.00000000000E+00  0.00000000000E+00  0.23793299380E+01  0.23793299380E+01  0.00000000000E+00 0.  1.
          2   -1    0    0  501    0  0.00000000000E+00 -0.00000000000E+00 -0.11662991673E+04  0.11662991673E+04  0.00000000000E+00 0. -1.
         23    2    1    2    0    0 -0.20265365431E+01  0.10714375885E+02 -0.11071012145E+04  0.11108229823E+04  0.90198083301E+02 0.  0.
         13    1    3    3    0    0  0.96955971646E+01 -0.18873116785E+01 -0.10686507368E+04  0.10686963852E+04  0.00000000000E+00 0. -1.
        -13    1    3    3    0    0 -0.11722133708E+02  0.12601687564E+02 -0.38450477748E+02  0.42126597147E+02  0.00000000000E+00 0.  1.
         22    1    1    2    0    0  0.20265365431E+01 -0.10714375885E+02 -0.56818622866E+02  0.57855514909E+02  0.00000000000E+00 0.  1.
<mgrwt>
<rscale>  0 0.53476241E+02</rscale>
<asrwt>0</asrwt>
<pdfrwt beam="1">  1        2 0.17943096E+00 0.90854823E+02</pdfrwt>
<pdfrwt beam="2">  1       -2 0.36605011E-03 0.90854823E+02</pdfrwt>
<totfact> 0.16659510E+05</totfact>
</mgrwt>
</event>
<event>
 6    1  0.1535419E-002  0.9778345E+02  0.7546771E-02  0.1351778E+00
          2   -1    0    0  501    0  0.00000000000E+00  0.00000000000E+00  0.47283237327E+03  0.47283237327E+03  0.00000000000E+00 0.  1.
         -2   -1    0    0    0  501 -0.00000000000E+00 -0.00000000000E+00 -0.10341169337E+02  0.10341169337E+02  0.00000000000E+00 0. -1.
         23    2    1    2    0    0  0.23294300035E+02  0.18192968211E+02  0.42115283912E+03  0.43235554469E+03  0.93209412733E+02 0.  0.
         11    1    3    3    0    0 -0.18115425806E+02  0.23741120634E+01  0.14584056896E+02  0.23377334659E+02  0.00000000000E+00 0. -1.
        -11    1    3    3    0    0  0.41409725841E+02  0.15818856148E+02  0.40656878222E+03  0.40897821003E+03  0.00000000000E+00 0.  1.
         22    1    1    2    0    0 -0.23294300035E+02 -0.18192968211E+02  0.41338364814E+02  0.50817997913E+02  0.00000000000E+00 0. -1.
<mgrwt>
<rscale>  0 0.72504277E+02</rscale>
<asrwt>0</asrwt>
<pdfrwt beam="1">  1        2 0.72743425E-01 0.97783450E+02</pdfrwt>
<pdfrwt beam="2">  1       -2 0.15909495E-02 0.97783450E+02</pdfrwt>
<totfact> 0.63517665E+04</totfact>
</mgrwt>
</event>
<event>
 6    1  0.1535419E-002  0.9226160E+02  0.7546771E-02  0.1413397E+00
         -2   -1    0    0    0  501 -0.00000000000E+00  0.00000000000E+00  0.61804757591E+02  0.61804757591E+02  0.00000000000E+00 0.  1.
          2   -1    0    0  501    0  0.00000000000E+00 -0.00000000000E+00 -0.67398872233E+02  0.67398872233E+02  0.00000000000E+00 0. -1.
         23    2    1    2    0    0 -0.12766977364E+02 -0.20026335901E+01 -0.33736246642E+02  0.98236133221E+02  0.91352051320E+02 0.  0.
         11    1    3    3    0    0 -0.49765675493E+02 -0.82988448552E+00 -0.35565546780E+02  0.61173681296E+02  0.00000000000E+00 0. -1.
        -11    1    3    3    0    0  0.36998698129E+02 -0.11727491046E+01  0.18293001374E+01  0.37062451925E+02  0.00000000000E+00 0.  1.
         22    1    1    2    0    0  0.12766977364E+02  0.20026335901E+01  0.28142132001E+02  0.30967496603E+02  0.00000000000E+00 0.  1.
<mgrwt>
<rscale>  0 0.56442643E+02</rscale>
<asrwt>0</asrwt>
<pdfrwt beam="1">  1        2 0.10369057E-01 0.92261604E+02</pdfrwt>
<pdfrwt beam="2">  1       -2 0.95084243E-02 0.92261604E+02</pdfrwt>
<totfact> 0.38311059E+04</totfact>
</mgrwt>
</event>
<event>
 6    1  0.1535419E-002  0.9422554E+02  0.7546771E-02  0.1390641E+00
          1   -1    0    0  501    0  0.00000000000E+00  0.00000000000E+00  0.10811991659E+04  0.10811991659E+04  0.00000000000E+00 0. -1.
         -1   -1    0    0    0  501 -0.00000000000E+00 -0.00000000000E+00 -0.95536318352E+01  0.95536318352E+01  0.00000000000E+00 0.  1.
         23    2    1    2    0    0 -0.66510340460E+01 -0.16053568016E+02  0.10690367413E+04  0.10731812554E+04  0.92609391635E+02 0.  0.
         13    1    3    3    0    0  0.90635658592E+01  0.27458286874E+02  0.13804927426E+03  0.14104505616E+03  0.00000000000E+00 0.  1.
        -13    1    3    3    0    0 -0.15714599905E+02 -0.43511854890E+02  0.93098746708E+03  0.93213619929E+03  0.00000000000E+00 0. -1.
         22    1    1    2    0    0  0.66510340460E+01  0.16053568016E+02  0.26087927650E+01  0.17571542323E+02  0.00000000000E+00 0.  1.
<mgrwt>
<rscale>  0 0.61747440E+02</rscale>
<asrwt>0</asrwt>
<pdfrwt beam="1">  1        1 0.16633824E+00 0.94225542E+02</pdfrwt>
<pdfrwt beam="2">  1       -1 0.14697904E-02 0.94225542E+02</pdfrwt>
<totfact> 0.14019386E+04</totfact>
</mgrwt>
</event>
<event>
 6    1  0.1535419E-002  0.9001147E+02  0.7546771E-02  0.1432549E+00
          1   -1    0    0  501    0  0.00000000000E+00  0.00000000000E+00  0.93912300702E+03  0.93912300702E+03  0.00000000000E+00 0. -1.
         -1   -1    0    0    0  501 -0.00000000000E+00 -0.00000000000E+00 -0.31549819425E+01  0.31549819425E+01  0.00000000000E+00 0.  1.
         23    2    1    2    0    0  0.10291630415E+02 -0.13424092837E+01  0.90792531278E+03  0.91237625937E+03  0.89411103152E+02 0.  0.
         11    1    3    3    0    0 -0.11944594245E+02 -0.46711617571E+01  0.85205464183E+03  0.85215116367E+03  0.00000000000E+00 0. -1.
        -11    1    3    3    0    0  0.22236224659E+02  0.33287524733E+01  0.55870670951E+02  0.60225095705E+02  0.00000000000E+00 0.  1.
         22    1    1    2    0    0 -0.10291630415E+02  0.13424092837E+01  0.28042712301E+02  0.29901729590E+02  0.00000000000E+00 0. -1.
<mgrwt>
<rscale>  0 0.52451788E+02</rscale>
<asrwt>0</asrwt>
<pdfrwt beam="1">  1        1 0.14448024E+00 0.90011472E+02</pdfrwt>
<pdfrwt beam="2">  1       -1 0.48538258E-03 0.90011472E+02</pdfrwt>
<totfact> 0.84012965E+04</totfact>
</mgrwt>
</event>
<event>
 6    1  0.1535419E-002  0.9521519E+02  0.7546771E-02  0.1383197E+00
          2   -1    0    0  501    0  0.00000000000E+00  0.00000000000E+00  0.76677225398E+02  0.76677225398E+02  0.00000000000E+00 0. -1.
         -2   -1    0    0    0  501 -0.00000000000E+00 -0.00000000000E+00 -0.44388765618E+02  0.44388765618E+02  0.00000000000E+00 0.  1.
         23    2    1    2    0    0 -0.13390837290E+02  0.13466754653E+02  0.35855641929E+02  0.10174261676E+03  0.93302009638E+02 0.  0.
         11    1    3    3    0    0 -0.31892224142E+02  0.38642522365E+02 -0.49526927034E+01  0.50347667875E+02  0.00000000000E+00 0. -1.
        -11    1    3    3    0    0  0.18501386852E+02 -0.25175767711E+02  0.40808334632E+02  0.51394948883E+02  0.00000000000E+00 0.  1.
         22    1    1    2    0    0  0.13390837290E+02 -0.13466754653E+02 -0.35671821490E+01  0.19323374258E+02  0.00000000000E+00 0. -1.
<mgrwt>
<rscale>  0 0.63630911E+02</rscale>
<asrwt>0</asrwt>
<pdfrwt beam="1">  1        2 0.11796496E-01 0.95215193E+02</pdfrwt>
<pdfrwt beam="2">  1       -2 0.68290409E-02 0.95215193E+02</pdfrwt>
<totfact> 0.54702168E+04</totfact>
</mgrwt>
</event>
<event>
 6    1  0.1535419E-002  0.1085246E+03  0.7546771E-02  0.1297861E+00
          2   -1    0    0  501    0  0.00000000000E+00  0.00000000000E+00  0.11572627919E+03  0.11572627919E+03  0.00000000000E+00 0. -1.
         -2   -1    0    0    0  501 -0.00000000000E+00 -0.00000000000E+00 -0.64432674206E+02  0.64432674206E+02  0.00000000000E+00 0.  1.
         23    2    1    2    0    0 -0.41674409354E+02 -0.37818002996E+02  0.58725169072E+02  0.12339465219E+03  0.92793517888E+02 0.  0.
         11    1    3    3    0    0 -0.71164183301E+02 -0.30674007192E+02  0.35789641960E+02  0.85358855274E+02  0.00000000000E+00 0. -1.
        -11    1    3    3    0    0  0.29489773947E+02 -0.71439958038E+01  0.22935527112E+02  0.38035796921E+02  0.00000000000E+00 0.  1.
         22    1    1    2    0    0  0.41674409354E+02  0.37818002996E+02 -0.74315640920E+01  0.56764301198E+02  0.00000000000E+00 0.  1.
<mgrwt>
<rscale>  0 0.92092977E+02</rscale>
<asrwt>0</asrwt>
<pdfrwt beam="1">  1        2 0.17804043E-01 0.10852463E+03</pdfrwt>
<pdfrwt beam="2">  1       -2 0.99127191E-02 0.10852463E+03</pdfrwt>
<totfact> 0.19406619E+04</totfact>
</mgrwt>
</event>
<event>
 6    1  0.1535419E-002  0.9255831E+02  0.7546771E-02  0.1427166E+00
          1   -1    0    0  501    0  0.00000000000E+00  0.00000000000E+00  0.59040299368E+02  0.59040299368E+02  0.00000000000E+00 0. -1.
         -1   -1    0    0    0  501 -0.00000000000E+00 -0.00000000000E+00 -0.97176721982E+02  0.97176721982E+02  0.00000000000E+00 0.  1.
         23    2    1    2    0    0  0.37872316463E+01  0.96400421934E+01  0.22047853770E+02  0.95148038544E+02  0.91976996287E+02 0.  0.
         13    1    3    3    0    0 -0.18361658342E+02  0.36244400806E+02 -0.16037690576E+02  0.43680826525E+02  0.00000000000E+00 0.  1.
        -13    1    3    3    0    0  0.22148889989E+02 -0.26604358613E+02  0.38085544346E+02  0.51467212019E+02  0.00000000000E+00 0. -1.
         22    1    1    2    0    0 -0.37872316463E+01 -0.96400421934E+01 -0.60184276384E+02  0.61068982805E+02  0.00000000000E+00 0.  1.
<mgrwt>
<rscale>  0 0.53533193E+02</rscale>
<asrwt>0</asrwt>
<pdfrwt beam="1">  1        1 0.90831230E-02 0.92558313E+02</pdfrwt>
<pdfrwt beam="2">  1       -1 0.14950265E-01 0.92558313E+02</pdfrwt>
<totfact> 0.20914739E+04</totfact>
</mgrwt>
</event>
<event>
 6    1  0.1535419E-002  0.9437148E+02  0.7546771E-02  0.1396675E+00
         -2   -1    0    0    0  501 -0.00000000000E+00  0.00000000000E+00  0.12542664449E+03  0.12542664449E+03  0.00000000000E+00 0.  1.
          2   -1    0    0  501    0  0.00000000000E+00 -0.00000000000E+00 -0.41259043726E+02  0.41259043726E+02  0.00000000000E+00 0. -1.
         23    2    1    2    0    0 -0.14630910609E+02 -0.57112959135E+01  0.14754576944E+02  0.95517926399E+02  0.93055329114E+02 0.  0.
         11    1    3    3    0    0 -0.32651160456E+01 -0.38515564058E+02  0.37626847818E+02  0.53943390088E+02  0.00000000000E+00 0.  1.
        -11    1    3    3    0    0 -0.11365794564E+02  0.32804268144E+02 -0.22872270874E+02  0.41574536311E+02  0.00000000000E+00 0. -1.
         22    1    1    2    0    0  0.14630910609E+02  0.57112959135E+01  0.69413023817E+02  0.71167761814E+02  0.00000000000E+00 0.  1.
<mgrwt>
<rscale>  0 0.60276477E+02</rscale>
<asrwt>0</asrwt>
<pdfrwt beam="1">  1        2 0.63475452E-02 0.94371483E+02</pdfrwt>
<pdfrwt beam="2">  1       -2 0.19296407E-01 0.94371483E+02</pdfrwt>
<totfact> 0.22677696E+04</totfact>
</mgrwt>
</event>
<event>
 6    1  0.1535419E-002  0.9539293E+02  0.7546771E-02  0.1361196E+00
          2   -1    0    0  501    0  0.00000000000E+00  0.00000000000E+00  0.45187735402E+03  0.45187735402E+03  0.00000000000E+00 0. -1.
         -2   -1    0    0    0  501 -0.00000000000E+00 -0.00000000000E+00 -0.10068631104E+02  0.10068631104E+02  0.00000000000E+00 0.  1.
         23    2    1    2    0    0 -0.20621807037E+02  0.17663004452E+02  0.40572056284E+03  0.41678409910E+03  0.91447085772E+02 0.  0.
         13    1    3    3    0    0 -0.75669031377E+01 -0.35703325725E+02  0.22353971852E+03  0.22649942880E+03  0.00000000000E+00 0.  1.
        -13    1    3    3    0    0 -0.13054903899E+02  0.53366330177E+02  0.18218084432E+03  0.19028467030E+03  0.00000000000E+00 0. -1.
         22    1    1    2    0    0  0.20621807037E+02 -0.17663004452E+02  0.36088160068E+02  0.45161886019E+02  0.00000000000E+00 0.  1.
<mgrwt>
<rscale>  0 0.69676814E+02</rscale>
<asrwt>0</asrwt>
<pdfrwt beam="1">  1        2 0.69519577E-01 0.95392925E+02</pdfrwt>
<pdfrwt beam="2">  1       -2 0.15490205E-02 0.95392925E+02</pdfrwt>
<totfact> 0.69051468E+04</totfact>
</mgrwt>
</event>
<event>
 6    1  0.1535419E-002  0.1185910E+03  0.7546771E-02  0.1273429E+00
         -1   -1    0    0    0  501 -0.00000000000E+00  0.00000000000E+00  0.10608939229E+03  0.10608939229E+03  0.00000000000E+00 0.  1.
          1   -1    0    0  501    0  0.00000000000E+00 -0.00000000000E+00 -0.20238293490E+03  0.20238293490E+03  0.00000000000E+00 0. -1.
         23    2    1    2    0    0 -0.37316680031E+02  0.57292735260E+02 -0.17042354293E+03  0.20762467442E+03  0.96895971661E+02 0.  0.
         11    1    3    3    0    0 -0.36734058665E+02 -0.17843387592E+02 -0.40358850898E+02  0.57416150973E+02  0.00000000000E+00 0.  1.
        -11    1    3    3    0    0 -0.58262136577E+00  0.75136122852E+02 -0.13006469203E+03  0.15020852345E+03  0.00000000000E+00 0. -1.
         22    1    1    2    0    0  0.37316680031E+02 -0.57292735260E+02  0.74130000312E+02  0.10084765277E+03  0.00000000000E+00 0.  1.
<mgrwt>
<rscale>  0 0.10333831E+03</rscale>
<asrwt>0</asrwt>
<pdfrwt beam="1">  1        1 0.31135836E-01 0.11859098E+03</pdfrwt>
<pdfrwt beam="2">  1       -1 0.16321445E-01 0.11859098E+03</pdfrwt>
<totfact> 0.38698759E+03</totfact>
</mgrwt>
</event>
<event>
 6    1  0.1535419E-002  0.9658310E+02  0.7546771E-02  0.1354157E+00
         -2   -1    0    0    0  501 -0.00000000000E+00  0.00000000000E+00  0.39661189228E+01  0.39661189228E+01  0.00000000000E+00 0.  1.
          2   -1    0    0  501    0  0.00000000000E+00 -0.00000000000E+00 -0.13685155570E+04  0.13685155570E+04  0.00000000000E+00 0. -1.
         23    2    1    2    0    0  0.29308522640E+02 -0.29648456953E+01 -0.12645644948E+04  0.12682474747E+04  0.91981062876E+02 0.  0.
         11    1    3    3    0    0  0.15707462383E+02 -0.34786014251E+02 -0.23322170731E+03  0.23632426012E+03  0.00000000000E+00 0.  1.
        -11    1    3    3    0    0  0.13601060257E+02  0.31821168556E+02 -0.10313427875E+04  0.10319232146E+04  0.00000000000E+00 0. -1.
         22    1    1    2    0    0 -0.29308522640E+02  0.29648456953E+01 -0.99984943320E+02  0.10423420120E+03  0.00000000000E+00 0. -1.
<mgrwt>
<rscale>  0 0.71775637E+02</rscale>
<asrwt>0</asrwt>
<pdfrwt beam="1">  1        2 0.21054084E+00 0.96583103E+02</pdfrwt>
<pdfrwt beam="2">  1       -2 0.61017219E-03 0.96583103E+02</pdfrwt>
<totfact> 0.63945773E+04</totfact>
</mgrwt>
</event>
<event>
 6    1  0.1535419E-002  0.9381139E+02  0.7546771E-02  0.1383089E+00
         -2   -1    0    0    0  501 -0.00000000000E+00  0.00000000000E+00  0.10871990778E+03  0.10871990778E+03  0.00000000000E+00 0.  1.
          2   -1    0    0  501    0  0.00000000000E+00 -0.00000000000E+00 -0.30811509827E+02  0.30811509827E+02  0.00000000000E+00 0. -1.
         23    2    1    2    0    0 -0.18555347236E+02 -0.71669430721E+01  0.53323206979E+02  0.10790709786E+03  0.91678303773E+02 0.  0.
         11    1    3    3    0    0 -0.26468654511E+02 -0.11803762232E+02  0.77129761246E+02  0.82394893921E+02  0.00000000000E+00 0.  1.
        -11    1    3    3    0    0  0.79133072749E+01  0.46368191595E+01 -0.23806554267E+02  0.25512203942E+02  0.00000000000E+00 0. -1.
         22    1    1    2    0    0  0.18555347236E+02  0.71669430721E+01  0.24585190974E+02  0.31624319744E+02  0.00000000000E+00 0.  1.
<mgrwt>
<rscale>  0 0.63658702E+02</rscale>
<asrwt>0</asrwt>
<pdfrwt beam="1">  1        2 0.47402323E-02 0.93811393E+02</pdfrwt>
<pdfrwt beam="2">  1       -2 0.16726139E-01 0.93811393E+02</pdfrwt>
<totfact> 0.41737414E+04</totfact>
</mgrwt>
</event>
<event>
 6    1  0.1535419E-002  0.9219835E+02  0.7546771E-02  0.1414255E+00
         -2   -1    0    0    0  501 -0.00000000000E+00  0.00000000000E+00  0.96057969678E+01  0.96057969678E+01  0.00000000000E+00 0.  1.
          2   -1    0    0  501    0  0.00000000000E+00 -0.00000000000E+00 -0.41692069638E+03  0.41692069638E+03  0.00000000000E+00 0. -1.
         23    2    1    2    0    0  0.41596213036E+01  0.12082563600E+02 -0.40241325177E+03  0.41284011537E+03  0.91308514760E+02 0.  0.
         13    1    3    3    0    0 -0.15428976842E+02 -0.23160388216E+02 -0.43309546048E+02  0.51479837680E+02  0.00000000000E+00 0. -1.
        -13    1    3    3    0    0  0.19588598145E+02  0.35242951816E+02 -0.35910370572E+03  0.36136027769E+03  0.00000000000E+00 0.  1.
         22    1    1    2    0    0 -0.41596213036E+01 -0.12082563600E+02 -0.49016476445E+01  0.13686377978E+02  0.00000000000E+00 0. -1.
<mgrwt>
<rscale>  0 0.56255187E+02</rscale>
<asrwt>0</asrwt>
<pdfrwt beam="1">  1        2 0.64141638E-01 0.92198350E+02</pdfrwt>
<pdfrwt beam="2">  1       -2 0.14778151E-02 0.92198350E+02</pdfrwt>
<totfact> 0.80075550E+04</totfact>
</mgrwt>
</event>
<event>
 6    1  0.1535419E-002  0.9602725E+02  0.7546771E-02  0.1354246E+00
          2   -1    0    0  501    0  0.00000000000E+00  0.00000000000E+00  0.12428652880E+04  0.12428652880E+04  0.00000000000E+00 0. -1.
         -2   -1    0    0    0  501 -0.00000000000E+00 -0.00000000000E+00 -0.47745330676E+01  0.47745330676E+01  0.00000000000E+00 0.  1.
         23    2    1    2    0    0  0.14635885551E+02 -0.26104576237E+02  0.11606765421E+04  0.11646421199E+04  0.91244583846E+02 0.  0.
         13    1    3    3    0    0 -0.13384180765E+02 -0.34717132038E+02  0.19484309842E+03  0.19836392957E+03  0.00000000000E+00 0.  1.
        -13    1    3    3    0    0  0.28020066316E+02  0.86125558011E+01  0.96583344365E+03  0.96627819033E+03  0.00000000000E+00 0. -1.
         22    1    1    2    0    0 -0.14635885551E+02  0.26104576237E+02  0.77414212854E+02  0.82997701162E+02  0.00000000000E+00 0.  1.
<mgrwt>
<rscale>  0 0.71748634E+02</rscale>
<asrwt>0</asrwt>
<pdfrwt beam="1">  1        2 0.19120979E+00 0.96027247E+02</pdfrwt>
<pdfrwt beam="2">  1       -2 0.73454454E-03 0.96027247E+02</pdfrwt>
<totfact> 0.57362352E+04</totfact>
</mgrwt>
</event>
<event>
 6    1  0.1535419E-002  0.9200576E+02  0.7546771E-02  0.1404018E+00
         -4   -1    0    0    0  501 -0.00000000000E+00  0.00000000000E+00  0.94248126760E+01  0.94248126760E+01  0.00000000000E+00 0.  1.
          4   -1    0    0  501    0  0.00000000000E+00 -0.00000000000E+00 -0.32812840058E+03  0.32812840058E+03  0.00000000000E+00 0. -1.
         23    2    1    2    0    0 -0.11397682466E+02 -0.98885651030E+01 -0.29836295189E+03  0.31222669832E+03  0.90759953707E+02 0.  0.
         13    1    3    3    0    0  0.31322969079E+02 -0.26379174428E+02 -0.19374461861E+03  0.19802516627E+03  0.00000000000E+00 0. -1.
        -13    1    3    3    0    0 -0.42720651545E+02  0.16490609325E+02 -0.10461833329E+03  0.11420153206E+03  0.00000000000E+00 0.  1.
         22    1    1    2    0    0  0.11397682466E+02  0.98885651030E+01 -0.20340636009E+02  0.25326514933E+02  0.00000000000E+00 0.  1.
<mgrwt>
<rscale>  0 0.58550347E+02</rscale>
<asrwt>0</asrwt>
<pdfrwt beam="1">  1        4 0.50481289E-01 0.92005761E+02</pdfrwt>
<pdfrwt beam="2">  1       -4 0.14499713E-02 0.92005761E+02</pdfrwt>
<totfact> 0.92866515E+03</totfact>
</mgrwt>
</event>
<event>
 6    1  0.1535419E-002  0.8570107E+02  0.7546771E-02  0.1436646E+00
         -3   -1    0    0    0  501 -0.00000000000E+00  0.00000000000E+00  0.11028107742E+02  0.11028107742E+02  0.00000000000E+00 0. -1.
          3   -1    0    0  501    0  0.00000000000E+00 -0.00000000000E+00 -0.23361379210E+03  0.23361379210E+03  0.00000000000E+00 0.  1.
         23    2    1    2    0    0  0.65772811224E+00 -0.11286166293E+02 -0.21375912219E+03  0.23029901465E+03  0.84952125780E+02 0.  0.
         11    1    3    3    0    0  0.12698578143E+02 -0.45614591542E+02 -0.14460980424E+03  0.15216418873E+03  0.00000000000E+00 0.  1.
        -11    1    3    3    0    0 -0.12040850030E+02  0.34328425249E+02 -0.69149317946E+02  0.78134825923E+02  0.00000000000E+00 0. -1.
         22    1    1    2    0    0 -0.65772811224E+00  0.11286166293E+02 -0.88265621668E+01  0.14342885189E+02  0.00000000000E+00 0. -1.
<mgrwt>
<rscale>  0 0.51648815E+02</rscale>
<asrwt>0</asrwt>
<pdfrwt beam="1">  1        3 0.35940585E-01 0.85701073E+02</pdfrwt>
<pdfrwt beam="2">  1       -3 0.16966319E-02 0.85701073E+02</pdfrwt>
<totfact> 0.18861121E+04</totfact>
</mgrwt>
</event>
<event>
 6    1  0.1535419E-002  0.8838982E+02  0.7546771E-02  0.1435678E+00
         -2   -1    0    0    0  501 -0.00000000000E+00  0.00000000000E+00  0.30589743833E+03  0.30589743833E+03  0.00000000000E+00 0.  1.
          2   -1    0    0  501    0  0.00000000000E+00 -0.00000000000E+00 -0.82807120839E+01  0.82807120839E+01  0.00000000000E+00 0. -1.
         23    2    1    2    0    0 -0.48294776580E+01 -0.92735234247E+01  0.24316056648E+03  0.25872731248E+03  0.87769237441E+02 0.  0.
         13    1    3    3    0    0 -0.45389403738E+02 -0.46939328177E+01  0.10113698509E+03  0.11095458860E+03  0.00000000000E+00 0. -1.
        -13    1    3    3    0    0  0.40559926080E+02 -0.45795906070E+01  0.14202358139E+03  0.14777272389E+03  0.00000000000E+00 0.  1.
         22    1    1    2    0    0  0.48294776580E+01  0.92735234247E+01  0.54456159768E+02  0.55450837936E+02  0.00000000000E+00 0.  1.
<mgrwt>
<rscale>  0 0.51837040E+02</rscale>
<asrwt>0</asrwt>
<pdfrwt beam="1">  1        2 0.12739559E-02 0.88389825E+02</pdfrwt>
<pdfrwt beam="2">  1       -2 0.47061136E-01 0.88389825E+02</pdfrwt>
<totfact> 0.38310889E+04</totfact>
</mgrwt>
</event>
<event>
 6    1  0.1535419E-002  0.9624446E+02  0.7546771E-02  0.1358008E+00
          2   -1    0    0  501    0  0.00000000000E+00  0.00000000000E+00  0.10233133897E+04  0.10233133897E+04  0.00000000000E+00 0. -1.
         -2   -1    0    0    0  501 -0.00000000000E+00 -0.00000000000E+00 -0.51057199828E+01  0.51057199828E+01  0.00000000000E+00 0.  1.
         23    2    1    2    0    0 -0.14127708628E+02  0.24051089430E+02  0.94800479525E+03  0.95287779227E+03  0.92113778158E+02 0.  0.
         11    1    3    3    0    0  0.97751087726E+01  0.53161086120E+02  0.69318712177E+03  0.69529133434E+03  0.00000000000E+00 0. -1.
        -11    1    3    3    0    0 -0.23902817400E+02 -0.29109996690E+02  0.25481767349E+03  0.25758645793E+03  0.00000000000E+00 0.  1.
         22    1    1    2    0    0  0.14127708628E+02 -0.24051089430E+02  0.70202874515E+02  0.75541317462E+02  0.00000000000E+00 0.  1.
<mgrwt>
<rscale>  0 0.70616717E+02</rscale>
<asrwt>0</asrwt>
<pdfrwt beam="1">  1        2 0.15743267E+00 0.96244455E+02</pdfrwt>
<pdfrwt beam="2">  1       -2 0.78549620E-03 0.96244455E+02</pdfrwt>
<totfact> 0.69186986E+04</totfact>
</mgrwt>
</event>
<event>
 6    1  0.1535419E-002  0.9329889E+02  0.7546771E-02  0.1418039E+00
          2   -1    0    0  501    0  0.00000000000E+00  0.00000000000E+00  0.19823360603E+03  0.19823360603E+03  0.00000000000E+00 0. -1.
         -2   -1    0    0    0  501 -0.00000000000E+00 -0.00000000000E+00 -0.50211880858E+02  0.50211880858E+02  0.00000000000E+00 0.  1.
         23    2    1    2    0    0  0.11200120330E+02  0.31346915060E+01  0.18634480608E+03  0.20839642302E+03  0.92571126104E+02 0.  0.
         13    1    3    3    0    0  0.10895290696E+02  0.30516629505E+02  0.17626169292E+03  0.17921539115E+03  0.00000000000E+00 0. -1.
        -13    1    3    3    0    0  0.30482963427E+00 -0.27381937999E+02  0.10083113160E+02  0.29181031865E+02  0.00000000000E+00 0.  1.
         22    1    1    2    0    0 -0.11200120330E+02 -0.31346915060E+01 -0.38323080909E+02  0.40049063867E+02  0.00000000000E+00 0.  1.
<mgrwt>
<rscale>  0 0.55437946E+02</rscale>
<asrwt>0</asrwt>
<pdfrwt beam="1">  1        2 0.30497477E-01 0.93298887E+02</pdfrwt>
<pdfrwt beam="2">  1       -2 0.77249048E-02 0.93298887E+02</pdfrwt>
<totfact> 0.15514675E+04</totfact>
</mgrwt>
</event>
<event>
 6    1  0.1535419E-002  0.9145644E+02  0.7546771E-02  0.1424900E+00
         -3   -1    0    0    0  501 -0.00000000000E+00  0.00000000000E+00  0.43738544259E+02  0.43738544259E+02  0.00000000000E+00 0.  1.
          3   -1    0    0  501    0  0.00000000000E+00 -0.00000000000E+00 -0.80714515182E+02  0.80714515182E+02  0.00000000000E+00 0. -1.
         23    2    1    2    0    0  0.10552506073E+02 -0.34862986385E+01 -0.52429102684E+02  0.10541864472E+03  0.90778687935E+02 0.  0.
         11    1    3    3    0    0 -0.37044891165E+02 -0.10796372377E+01 -0.36781449301E+01  0.37242694963E+02  0.00000000000E+00 0. -1.
        -11    1    3    3    0    0  0.47597397238E+02 -0.24066614008E+01 -0.48750957754E+02  0.68175949755E+02  0.00000000000E+00 0.  1.
         22    1    1    2    0    0 -0.10552506073E+02  0.34862986385E+01  0.15453131761E+02  0.19034414723E+02  0.00000000000E+00 0. -1.
<mgrwt>
<rscale>  0 0.53997459E+02</rscale>
<asrwt>0</asrwt>
<pdfrwt beam="1">  1        3 0.12417618E-01 0.91456437E+02</pdfrwt>
<pdfrwt beam="2">  1       -3 0.67290069E-02 0.91456437E+02</pdfrwt>
<totfact> 0.14891475E+04</totfact>
</mgrwt>
</event>
<event>
 6    1  0.1535419E-002  0.9718589E+02  0.7546771E-02  0.1387636E+00
          1   -1    0    0  501    0  0.00000000000E+00  0.00000000000E+00  0.19514506093E+03  0.19514506093E+03  0.00000000000E+00 0. -1.
         -1   -1    0    0    0  501 -0.00000000000E+00 -0.00000000000E+00 -0.71773130598E+02  0.71773130598E+02  0.00000000000E+00 0.  1.
         23    2    1    2    0    0 -0.14395468575E+02 -0.83089982986E+01  0.18181384850E+03  0.20615860984E+03  0.95753996971E+02 0.  0.
         11    1    3    3    0    0  0.33178187077E+02 -0.28940740144E+02  0.66906654147E+02  0.80092814328E+02  0.00000000000E+00 0. -1.
        -11    1    3    3    0    0 -0.47573655652E+02  0.20631741845E+02  0.11490719435E+03  0.12606579551E+03  0.00000000000E+00 0.  1.
         22    1    1    2    0    0  0.14395468575E+02  0.83089982986E+01 -0.58441918167E+02  0.60759581691E+02  0.00000000000E+00 0.  1.
<mgrwt>
<rscale>  0 0.62498403E+02</rscale>
<asrwt>0</asrwt>
<pdfrwt beam="1">  1        1 0.30022317E-01 0.97185888E+02</pdfrwt>
<pdfrwt beam="2">  1       -1 0.11042020E-01 0.97185888E+02</pdfrwt>
<totfact> 0.73050040E+03</totfact>
</mgrwt>
</event>
<event>
 6    1  0.1535419E-002  0.9477350E+02  0.7546771E-02  0.1363573E+00
         -2   -1    0    0    0  501 -0.00000000000E+00  0.00000000000E+00  0.35227019990E+02  0.35227019990E+02  0.00000000000E+00 0. -1.
          2   -1    0    0  501    0  0.00000000000E+00 -0.00000000000E+00 -0.20056363267E+03  0.20056363267E+03  0.00000000000E+00 0.  1.
         23    2    1    2    0    0  0.23812542908E+02  0.11870619302E+02 -0.18143198393E+03  0.20469387183E+03  0.90961901758E+02 0.  0.
         11    1    3    3    0    0 -0.26164668452E+01 -0.13022694129E+02  0.54207932448E+01  0.14346479029E+02  0.00000000000E+00 0. -1.
        -11    1    3    3    0    0  0.26429009753E+02  0.24893313431E+02 -0.18685277717E+03  0.19034739280E+03  0.00000000000E+00 0.  1.
         22    1    1    2    0    0 -0.23812542908E+02 -0.11870619302E+02  0.16095371246E+02  0.31096780829E+02  0.00000000000E+00 0. -1.
<mgrwt>
<rscale>  0 0.68986708E+02</rscale>
<asrwt>0</asrwt>
<pdfrwt beam="1">  1        2 0.30855944E-01 0.94773500E+02</pdfrwt>
<pdfrwt beam="2">  1       -2 0.54195415E-02 0.94773500E+02</pdfrwt>
<totfact> 0.26199813E+04</totfact>
</mgrwt>
</event>
<event>
 6    1  0.1535419E-002  0.9367233E+02  0.7546771E-02  0.1409126E+00
         -1   -1    0    0    0  501 -0.00000000000E+00  0.00000000000E+00  0.21896231121E+01  0.21896231121E+01  0.00000000000E+00 0.  1.
          1   -1    0    0  501    0  0.00000000000E+00 -0.00000000000E+00 -0.26134844005E+04  0.26134844005E+04  0.00000000000E+00 0. -1.
         23    2    1    2    0    0 -0.96133228651E+01 -0.90418435274E+01 -0.25801327300E+04  0.25818325682E+04  0.92737988921E+02 0.  0.
         11    1    3    3    0    0  0.21252199467E+02 -0.30430682954E+02 -0.50583878914E+03  0.50719874117E+03  0.00000000000E+00 0.  1.
        -11    1    3    3    0    0 -0.30865522332E+02  0.21388839427E+02 -0.20742939409E+04  0.20746338270E+04  0.00000000000E+00 0. -1.
         22    1    1    2    0    0  0.96133228651E+01  0.90418435274E+01 -0.31162047376E+02  0.33841455458E+02  0.00000000000E+00 0.  1.
<mgrwt>
<rscale>  0 0.57389236E+02</rscale>
<asrwt>0</asrwt>
<pdfrwt beam="1">  1        1 0.40207834E+00 0.93672330E+02</pdfrwt>
<pdfrwt beam="2">  1       -1 0.33686189E-03 0.93672330E+02</pdfrwt>
<totfact> 0.11558067E+04</totfact>
</mgrwt>
</event>
<event>
 6    1  0.1535419E-002  0.9444817E+02  0.7546771E-02  0.1403172E+00
          2   -1    0    0  501    0  0.00000000000E+00  0.00000000000E+00  0.56883861548E+03  0.56883861548E+03  0.00000000000E+00 0. -1.
         -2   -1    0    0    0  501 -0.00000000000E+00 -0.00000000000E+00 -0.93746888160E+01  0.93746888160E+01  0.00000000000E+00 0.  1.
         23    2    1    2    0    0  0.10672707699E+02  0.92691018991E+01  0.55558373071E+03  0.56355455741E+03  0.93384337045E+02 0.  0.
         13    1    3    3    0    0 -0.40740524649E+02 -0.47707831993E+01  0.25658346804E+03  0.25984154170E+03  0.00000000000E+00 0.  1.
        -13    1    3    3    0    0  0.51413232348E+02  0.14039885098E+02  0.29900026267E+03  0.30371301571E+03  0.00000000000E+00 0. -1.
         22    1    1    2    0    0 -0.10672707699E+02 -0.92691018991E+01  0.38801959516E+01  0.14658746886E+02  0.00000000000E+00 0.  1.
<mgrwt>
<rscale>  0 0.58745667E+02</rscale>
<asrwt>0</asrwt>
<pdfrwt beam="1">  1        2 0.87513606E-01 0.94448173E+02</pdfrwt>
<pdfrwt beam="2">  1       -2 0.14422603E-02 0.94448173E+02</pdfrwt>
<totfact> 0.59478176E+04</totfact>
</mgrwt>
</event>
<event>
 6    1  0.1535419E-002  0.9076730E+02  0.7546771E-02  0.1428742E+00
          2   -1    0    0  501    0  0.00000000000E+00  0.00000000000E+00  0.13278123064E+03  0.13278123064E+03  0.00000000000E+00 0. -1.
         -2   -1    0    0    0  501 -0.00000000000E+00 -0.00000000000E+00 -0.21118862540E+02  0.21118862540E+02  0.00000000000E+00 0.  1.
         23    2    1    2    0    0  0.10693099858E+02 -0.79206912224E+00  0.11067092996E+03  0.14313195928E+03  0.90131755064E+02 0.  0.
         13    1    3    3    0    0 -0.25677866336E+02 -0.70360998461E+01  0.10173671937E+03  0.10516282418E+03  0.00000000000E+00 0. -1.
        -13    1    3    3    0    0  0.36370966195E+02  0.62440307239E+01  0.89342105908E+01  0.37969135103E+02  0.00000000000E+00 0.  1.
         22    1    1    2    0    0 -0.10693099858E+02  0.79206912224E+00  0.99143813664E+00  0.10768133898E+02  0.00000000000E+00 0. -1.
<mgrwt>
<rscale>  0 0.53213279E+02</rscale>
<asrwt>0</asrwt>
<pdfrwt beam="1">  1        2 0.20427881E-01 0.90767302E+02</pdfrwt>
<pdfrwt beam="2">  1       -2 0.32490559E-02 0.90767302E+02</pdfrwt>
<totfact> 0.86844801E+04</totfact>
</mgrwt>
</event>
<event>
 6    1  0.1535419E-002  0.8826663E+02  0.7546771E-02  0.1391746E+00
         -2   -1    0    0    0  501 -0.00000000000E+00  0.00000000000E+00  0.18834983907E+02  0.18834983907E+02  0.00000000000E+00 0.  1.
          2   -1    0    0  501    0  0.00000000000E+00 -0.00000000000E+00 -0.33164648038E+03  0.33164648038E+03  0.00000000000E+00 0. -1.
         23    2    1    2    0    0  0.34989442444E+01  0.20471019607E+02 -0.31720258984E+03  0.32925443068E+03  0.85788646521E+02 0.  0.
         11    1    3    3    0    0 -0.94547326030E+01  0.23871795992E+02 -0.31455676055E+03  0.31560293126E+03  0.00000000000E+00 0. -1.
        -11    1    3    3    0    0  0.12953676847E+02 -0.34007763852E+01 -0.26458292854E+01  0.13651499423E+02  0.00000000000E+00 0.  1.
         22    1    1    2    0    0 -0.34989442444E+01 -0.20471019607E+02  0.43910933652E+01  0.21227033601E+02  0.00000000000E+00 0. -1.
<mgrwt>
<rscale>  0 0.61474568E+02</rscale>
<asrwt>0</asrwt>
<pdfrwt beam="1">  1        2 0.51022538E-01 0.88266625E+02</pdfrwt>
<pdfrwt beam="2">  1       -2 0.28976897E-02 0.88266625E+02</pdfrwt>
<totfact> 0.38442791E+04</totfact>
</mgrwt>
</event>
<event>
 6    1  0.1535419E-002  0.1651658E+03  0.7546771E-02  0.1191193E+00
         -1   -1    0    0    0  501 -0.00000000000E+00  0.00000000000E+00  0.28820940872E+03  0.28820940872E+03  0.00000000000E+00 0.  1.
          1   -1    0    0  501    0  0.00000000000E+00 -0.00000000000E+00 -0.13447340402E+03  0.13447340402E+03  0.00000000000E+00 0. -1.
         23    2    1    2    0    0  0.67166893764E+02  0.12014759007E+03 -0.53748778857E+02  0.17369130601E+03  0.91284738808E+02 0.  0.
         13    1    3    3    0    0 -0.21695735825E+02  0.39520128663E+02 -0.12095501384E+02  0.46678117745E+02  0.00000000000E+00 0.  1.
        -13    1    3    3    0    0  0.88862629589E+02  0.80627461405E+02 -0.41653277473E+02  0.12701318827E+03  0.00000000000E+00 0. -1.
         22    1    1    2    0    0 -0.67166893764E+02 -0.12014759007E+03  0.20748478355E+03  0.24899150673E+03  0.00000000000E+00 0.  1.
<mgrwt>
<rscale>  0 0.15780914E+03</rscale>
<asrwt>0</asrwt>
<pdfrwt beam="1">  1        1 0.20688216E-01 0.16516579E+03</pdfrwt>
<pdfrwt beam="2">  1       -1 0.44339909E-01 0.16516579E+03</pdfrwt>
<totfact> 0.12394372E+03</totfact>
</mgrwt>
</event>
<event>
 6    1  0.1535419E-002  0.9333134E+02  0.7546771E-02  0.1416729E+00
          2   -1    0    0  501    0  0.00000000000E+00  0.00000000000E+00  0.85981454289E+01  0.85981454289E+01  0.00000000000E+00 0. -1.
         -2   -1    0    0    0  501 -0.00000000000E+00 -0.00000000000E+00 -0.32623434793E+03  0.32623434793E+03  0.00000000000E+00 0.  1.
         23    2    1    2    0    0  0.67934925718E+01 -0.97164888186E+01 -0.26752535525E+03  0.28333823438E+03  0.92575254035E+02 0.  0.
         11    1    3    3    0    0 -0.15363042326E+02 -0.67215937916E+01 -0.20167690414E+01  0.16889945233E+02  0.00000000000E+00 0. -1.
        -11    1    3    3    0    0  0.22156534898E+02 -0.29948950270E+01 -0.26550858621E+03  0.26644828914E+03  0.00000000000E+00 0.  1.
         22    1    1    2    0    0 -0.67934925718E+01  0.97164888186E+01 -0.50110847246E+02  0.51494258981E+02  0.00000000000E+00 0.  1.
<mgrwt>
<rscale>  0 0.55719089E+02</rscale>
<asrwt>0</asrwt>
<pdfrwt beam="1">  1        2 0.13227916E-02 0.93331342E+02</pdfrwt>
<pdfrwt beam="2">  1       -2 0.50189898E-01 0.93331342E+02</pdfrwt>
<totfact> 0.32366327E+04</totfact>
</mgrwt>
</event>
<event>
 6    1  0.1535419E-002  0.7663156E+02  0.7546771E-02  0.1466910E+00
         -2   -1    0    0    0  501 -0.00000000000E+00  0.00000000000E+00  0.31475911064E+02  0.31475911064E+02  0.00000000000E+00 0.  1.
          2   -1    0    0  501    0  0.00000000000E+00 -0.00000000000E+00 -0.97850177050E+02  0.97850177050E+02  0.00000000000E+00 0. -1.
         23    2    1    2    0    0 -0.90456976815E+01 -0.45707255916E+01 -0.81017367618E+02  0.11151775848E+03  0.75958412445E+02 0.  0.
         13    1    3    3    0    0 -0.23419144796E+02 -0.27481335199E+02 -0.75817912616E+02  0.83976401452E+02  0.00000000000E+00 0. -1.
        -13    1    3    3    0    0  0.14373447115E+02  0.22910609607E+02 -0.51994550019E+01  0.27541357026E+02  0.00000000000E+00 0.  1.
         22    1    1    2    0    0  0.90456976815E+01  0.45707255916E+01  0.14643101632E+02  0.17808329635E+02  0.00000000000E+00 0.  1.
<mgrwt>
<rscale>  0 0.46212623E+02</rscale>
<asrwt>0</asrwt>
<pdfrwt beam="1">  1        2 0.15053873E-01 0.76631564E+02</pdfrwt>
<pdfrwt beam="2">  1       -2 0.48424480E-02 0.76631564E+02</pdfrwt>
<totfact> 0.66590752E+04</totfact>
</mgrwt>
</event>
<event>
 6    1  0.1535419E-002  0.1004088E+03  0.7546771E-02  0.1324562E+00
          2   -1    0    0  501    0  0.00000000000E+00  0.00000000000E+00  0.87721797441E+03  0.87721797441E+03  0.00000000000E+00 0.  1.
         -2   -1    0    0    0  501 -0.00000000000E+00 -0.00000000000E+00 -0.81174958380E+01  0.81174958380E+01  0.00000000000E+00 0. -1.
         23    2    1    2    0    0  0.16907186807E+02  0.40410100667E+02  0.77571712540E+03  0.78218858541E+03  0.90349849524E+02 0.  0.
         11    1    3    3    0    0 -0.96082270419E+01 -0.15864578095E+02  0.42924645540E+02  0.46760325702E+02  0.00000000000E+00 0. -1.
        -11    1    3    3    0    0  0.26515413849E+02  0.56274678762E+02  0.73279247986E+03  0.73542825971E+03  0.00000000000E+00 0.  1.
         22    1    1    2    0    0 -0.16907186807E+02 -0.40410100667E+02  0.93383353175E+02  0.10314688484E+03  0.00000000000E+00 0. -1.
<mgrwt>
<rscale>  0 0.81603414E+02</rscale>
<asrwt>0</asrwt>
<pdfrwt beam="1">  1        2 0.13495654E+00 0.10040879E+03</pdfrwt>
<pdfrwt beam="2">  1       -2 0.12488462E-02 0.10040879E+03</pdfrwt>
<totfact> 0.44133378E+04</totfact>
</mgrwt>
</event>
<event>
 6    1  0.1535419E-002  0.9487733E+02  0.7546771E-02  0.1367013E+00
          2   -1    0    0  501    0  0.00000000000E+00  0.00000000000E+00  0.17291397243E+04  0.17291397243E+04  0.00000000000E+00 0. -1.
         -2   -1    0    0    0  501 -0.00000000000E+00 -0.00000000000E+00 -0.80456386366E+01  0.80456386366E+01  0.00000000000E+00 0.  1.
         23    2    1    2    0    0 -0.21218723998E+02  0.13298850835E+02  0.17045132351E+04  0.17071517436E+04  0.91512914789E+02 0.  0.
         13    1    3    3    0    0  0.15591847073E+01 -0.37205109645E+02  0.51209255178E+03  0.51344467358E+03  0.00000000000E+00 0.  1.
        -13    1    3    3    0    0 -0.22777908705E+02  0.50503960481E+02  0.11924206833E+04  0.11937070701E+04  0.00000000000E+00 0. -1.
         22    1    1    2    0    0  0.21218723998E+02 -0.13298850835E+02  0.16580850574E+02  0.30033619286E+02  0.00000000000E+00 0.  1.
<mgrwt>
<rscale>  0 0.68004615E+02</rscale>
<asrwt>0</asrwt>
<pdfrwt beam="1">  1        2 0.26602120E+00 0.94877327E+02</pdfrwt>
<pdfrwt beam="2">  1       -2 0.12377919E-02 0.94877327E+02</pdfrwt>
<totfact> 0.15363542E+04</totfact>
</mgrwt>
</event>
<event>
 6    1  0.1535419E-002  0.1025037E+03  0.7546771E-02  0.1342141E+00
          2   -1    0    0  501    0  0.00000000000E+00  0.00000000000E+00  0.76523980572E+02  0.76523980572E+02  0.00000000000E+00 0.  1.
         -2   -1    0    0    0  501 -0.00000000000E+00 -0.00000000000E+00 -0.57591395831E+02  0.57591395831E+02  0.00000000000E+00 0. -1.
         23    2    1    2    0    0 -0.29052979236E+02 -0.84891721564E+01  0.14417230042E+02  0.10351259754E+03  0.97932934603E+02 0.  0.
         11    1    3    3    0    0 -0.54168712881E+02 -0.21400569471E+02 -0.17577458155E+02  0.60837495544E+02  0.00000000000E+00 0. -1.
        -11    1    3    3    0    0  0.25115733645E+02  0.12911397315E+02  0.31994688197E+02  0.42675101991E+02  0.00000000000E+00 0.  1.
         22    1    1    2    0    0  0.29052979236E+02  0.84891721564E+01  0.45153546988E+01  0.30602778868E+02  0.00000000000E+00 0.  1.
<mgrwt>
<rscale>  0 0.75561379E+02</rscale>
<asrwt>0</asrwt>
<pdfrwt beam="1">  1        2 0.11772920E-01 0.10250366E+03</pdfrwt>
<pdfrwt beam="2">  1       -2 0.88602147E-02 0.10250366E+03</pdfrwt>
<totfact> 0.37185613E+04</totfact>
</mgrwt>
</event>
<event>
 6    1  0.1535419E-002  0.9260768E+02  0.7546771E-02  0.1377850E+00
         -2   -1    0    0    0  501 -0.00000000000E+00  0.00000000000E+00  0.63567291854E+02  0.63567291854E+02  0.00000000000E+00 0.  1.
          2   -1    0    0  501    0  0.00000000000E+00 -0.00000000000E+00 -0.96548025646E+02  0.96548025646E+02  0.00000000000E+00 0. -1.
         23    2    1    2    0    0 -0.21323632354E+02  0.72439101952E+01 -0.70477430258E+02  0.11637547551E+03  0.89827677207E+02 0.  0.
         11    1    3    3    0    0  0.26438951242E+02 -0.21097970886E+02 -0.12425387899E+02  0.36035160367E+02  0.00000000000E+00 0. -1.
        -11    1    3    3    0    0 -0.47762583596E+02  0.28341881081E+02 -0.58052042359E+02  0.80340315141E+02  0.00000000000E+00 0.  1.
         22    1    1    2    0    0  0.21323632354E+02 -0.72439101952E+01  0.37496696466E+02  0.43739841992E+02  0.00000000000E+00 0.  1.
<mgrwt>
<rscale>  0 0.65032377E+02</rscale>
<asrwt>0</asrwt>
<pdfrwt beam="1">  1        2 0.14853542E-01 0.92607684E+02</pdfrwt>
<pdfrwt beam="2">  1       -2 0.97795833E-02 0.92607684E+02</pdfrwt>
<totfact> 0.23981379E+04</totfact>
</mgrwt>
</event>
<event>
 6    1  0.1535419E-002  0.9180402E+02  0.7546771E-02  0.1425335E+00
          4   -1    0    0  501    0  0.00000000000E+00  0.00000000000E+00  0.33428671357E+02  0.33428671357E+02  0.00000000000E+00 0. -1.
         -4   -1    0    0    0  501 -0.00000000000E+00 -0.00000000000E+00 -0.92833274020E+02  0.92833274020E+02  0.00000000000E+00 0.  1.
         23    2    1    2    0    0  0.55482147514E+01 -0.93997575225E+01 -0.32769768181E+02  0.97477356856E+02  0.91152834650E+02 0.  0.
         11    1    3    3    0    0 -0.26412596771E+02  0.16015420698E+02 -0.45241977995E+02  0.54780977914E+02  0.00000000000E+00 0.  1.
        -11    1    3    3    0    0  0.31960811522E+02 -0.25415178221E+02  0.12472209814E+02  0.42696378942E+02  0.00000000000E+00 0. -1.
         22    1    1    2    0    0 -0.55482147514E+01  0.93997575225E+01 -0.26634834482E+02  0.28784588521E+02  0.00000000000E+00 0.  1.
<mgrwt>
<rscale>  0 0.53907924E+02</rscale>
<asrwt>0</asrwt>
<pdfrwt beam="1">  1        4 0.51428725E-02 0.91804016E+02</pdfrwt>
<pdfrwt beam="2">  1       -4 0.14282042E-01 0.91804016E+02</pdfrwt>
<totfact> 0.13592585E+04</totfact>
</mgrwt>
</event>
<event>
 6    1  0.1535419E-002  0.9390664E+02  0.7546771E-02  0.1389432E+00
         -2   -1    0    0    0  501 -0.00000000000E+00  0.00000000000E+00  0.26265771681E+02  0.26265771681E+02  0.00000000000E+00 0.  1.
          2   -1    0    0  501    0  0.00000000000E+00 -0.00000000000E+00 -0.31821704833E+03  0.31821704833E+03  0.00000000000E+00 0. -1.
         23    2    1    2    0    0 -0.32419673514E+01 -0.17602787280E+02 -0.30703572088E+03  0.32107536543E+03  0.92185074249E+02 0.  0.
         13    1    3    3    0    0 -0.32839420933E+02 -0.11235370203E+01 -0.26527545782E+03  0.26730274675E+03  0.00000000000E+00 0. -1.
        -13    1    3    3    0    0  0.29597453582E+02 -0.16479250260E+02 -0.41760263067E+02  0.53772618674E+02  0.00000000000E+00 0.  1.
         22    1    1    2    0    0  0.32419673514E+01  0.17602787280E+02  0.15084444232E+02  0.23407454584E+02  0.00000000000E+00 0.  1.
<mgrwt>
<rscale>  0 0.62048093E+02</rscale>
<asrwt>0</asrwt>
<pdfrwt beam="1">  1        2 0.48956471E-01 0.93906637E+02</pdfrwt>
<pdfrwt beam="2">  1       -2 0.40408878E-02 0.93906637E+02</pdfrwt>
<totfact> 0.24869385E+04</totfact>
</mgrwt>
</event>
<event>
 6    1  0.1535419E-002  0.9120170E+02  0.7546771E-02  0.1394148E+00
         -2   -1    0    0    0  501 -0.00000000000E+00  0.00000000000E+00  0.47305636582E+01  0.47305636582E+01  0.00000000000E+00 0.  1.
          2   -1    0    0  501    0  0.00000000000E+00 -0.00000000000E+00 -0.65892008548E+03  0.65892008548E+03  0.00000000000E+00 0. -1.
         23    2    1    2    0    0  0.59455364976E+01  0.17113385366E+02 -0.58781522034E+03  0.59484828537E+03  0.89384181941E+02 0.  0.
         13    1    3    3    0    0 -0.27371002999E+02  0.23512290004E+02 -0.48981091902E+03  0.49113820456E+03  0.00000000000E+00 0. -1.
        -13    1    3    3    0    0  0.33316539497E+02 -0.63989046380E+01 -0.98004301325E+02  0.10371008082E+03  0.00000000000E+00 0.  1.
         22    1    1    2    0    0 -0.59455364976E+01 -0.17113385366E+02 -0.66374301480E+02  0.68802363767E+02  0.00000000000E+00 0. -1.
<mgrwt>
<rscale>  0 0.60886692E+02</rscale>
<asrwt>0</asrwt>
<pdfrwt beam="1">  1        2 0.10137232E+00 0.91201696E+02</pdfrwt>
<pdfrwt beam="2">  1       -2 0.72777902E-03 0.91201696E+02</pdfrwt>
<totfact> 0.13224074E+05</totfact>
</mgrwt>
</event>
<event>
 6    1  0.1535419E-002  0.9892407E+02  0.7546771E-02  0.1352665E+00
          2   -1    0    0  501    0  0.00000000000E+00  0.00000000000E+00  0.78918188822E+02  0.78918188822E+02  0.00000000000E+00 0. -1.
         -2   -1    0    0    0  501 -0.00000000000E+00 -0.00000000000E+00 -0.52366889120E+02  0.52366889120E+02  0.00000000000E+00 0.  1.
         23    2    1    2    0    0  0.27061633943E+02  0.76391027974E+01  0.28924347214E+02  0.10306594830E+03  0.94843470593E+02 0.  0.
         11    1    3    3    0    0 -0.10573326642E+02 -0.38143782794E+02  0.13564991139E+02  0.41841993101E+02  0.00000000000E+00 0. -1.
        -11    1    3    3    0    0  0.37634960584E+02  0.45782885591E+02  0.15359356075E+02  0.61223955200E+02  0.00000000000E+00 0.  1.
         22    1    1    2    0    0 -0.27061633943E+02 -0.76391027974E+01 -0.23730475117E+01  0.28219129641E+02  0.00000000000E+00 0. -1.
<mgrwt>
<rscale>  0 0.72231582E+02</rscale>
<asrwt>0</asrwt>
<pdfrwt beam="1">  1        2 0.12141260E-01 0.98924071E+02</pdfrwt>
<pdfrwt beam="2">  1       -2 0.80564445E-02 0.98924071E+02</pdfrwt>
<totfact> 0.41304164E+04</totfact>
</mgrwt>
</event>
<event>
 6    1  0.1535419E-002  0.9949520E+02  0.7546771E-02  0.1328963E+00
         -2   -1    0    0    0  501 -0.00000000000E+00  0.00000000000E+00  0.45766049605E+02  0.45766049605E+02  0.00000000000E+00 0.  1.
          2   -1    0    0  501    0  0.00000000000E+00 -0.00000000000E+00 -0.11868807899E+03  0.11868807899E+03  0.00000000000E+00 0. -1.
         23    2    1    2    0    0  0.26418362698E+02  0.32200956932E+02 -0.71961937277E+02  0.12279175598E+03  0.90357420314E+02 0.  0.
         13    1    3    3    0    0  0.42087200375E+02  0.37750586774E+02 -0.84709664932E+02  0.10184383423E+03  0.00000000000E+00 0. -1.
        -13    1    3    3    0    0 -0.15668837677E+02 -0.55496298419E+01  0.12747727655E+02  0.20947921756E+02  0.00000000000E+00 0.  1.
         22    1    1    2    0    0 -0.26418362698E+02 -0.32200956932E+02 -0.96009211141E+00  0.41662372615E+02  0.00000000000E+00 0.  1.
<mgrwt>
<rscale>  0 0.80031095E+02</rscale>
<asrwt>0</asrwt>
<pdfrwt beam="1">  1        2 0.18259704E-01 0.99495200E+02</pdfrwt>
<pdfrwt beam="2">  1       -2 0.70409308E-02 0.99495200E+02</pdfrwt>
<totfact> 0.31612517E+04</totfact>
</mgrwt>
</event>
<event>
 6    1  0.1535419E-002  0.9633230E+02  0.7546771E-02  0.1354792E+00
         -2   -1    0    0    0  501 -0.00000000000E+00  0.00000000000E+00  0.36540941231E+02  0.36540941231E+02  0.00000000000E+00 0. -1.
          2   -1    0    0  501    0  0.00000000000E+00 -0.00000000000E+00 -0.16004480037E+03  0.16004480037E+03  0.00000000000E+00 0.  1.
         23    2    1    2    0    0 -0.57562853290E+01  0.28801243851E+02 -0.13431449150E+03  0.16528851743E+03  0.91745653299E+02 0.  0.
         11    1    3    3    0    0 -0.49159981620E+00  0.52331885241E+02 -0.13085112933E+03  0.14092865546E+03  0.00000000000E+00 0. -1.
        -11    1    3    3    0    0 -0.52646855128E+01 -0.23530641390E+02 -0.34633621736E+01  0.24359861972E+02  0.00000000000E+00 0.  1.
         22    1    1    2    0    0  0.57562853290E+01 -0.28801243851E+02  0.10810632368E+02  0.31297224164E+02  0.00000000000E+00 0.  1.
<mgrwt>
<rscale>  0 0.71582694E+02</rscale>
<asrwt>0</asrwt>
<pdfrwt beam="1">  1        2 0.24622277E-01 0.96332297E+02</pdfrwt>
<pdfrwt beam="2">  1       -2 0.56216834E-02 0.96332297E+02</pdfrwt>
<totfact> 0.31709887E+04</totfact>
</mgrwt>
</event>
<event>
 6    1  0.1535419E-002  0.9027070E+02  0.7546771E-02  0.1429718E+00
         -2   -1    0    0    0  501 -0.00000000000E+00  0.00000000000E+00  0.92167299426E+02  0.92167299426E+02  0.00000000000E+00 0.  1.
          2   -1    0    0  501    0  0.00000000000E+00 -0.00000000000E+00 -0.27944219705E+02  0.27944219705E+02  0.00000000000E+00 0. -1.
         23    2    1    2    0    0 -0.35989995099E+00  0.10734143846E+02  0.53494147791E+02  0.10493056552E+03  0.89629506085E+02 0.  0.
         11    1    3    3    0    0 -0.12401504882E+02  0.46308861473E+02  0.12939217844E+02  0.49656130867E+02  0.00000000000E+00 0. -1.
        -11    1    3    3    0    0  0.12041604931E+02 -0.35574717627E+02  0.40554929947E+02  0.55274434656E+02  0.00000000000E+00 0.  1.
         22    1    1    2    0    0  0.35989995099E+00 -0.10734143846E+02  0.10728931930E+02  0.15180953608E+02  0.00000000000E+00 0.  1.
<mgrwt>
<rscale>  0 0.53016733E+02</rscale>
<asrwt>0</asrwt>
<pdfrwt beam="1">  1        2 0.42991108E-02 0.90270703E+02</pdfrwt>
<pdfrwt beam="2">  1       -2 0.14179584E-01 0.90270703E+02</pdfrwt>
<totfact> 0.61611745E+04</totfact>
</mgrwt>
</event>
<event>
 6    1  0.1535419E-002  0.9437227E+02  0.7546771E-02  0.1363291E+00
         -1   -1    0    0    0  501 -0.00000000000E+00  0.00000000000E+00  0.48894113027E+01  0.48894113027E+01  0.00000000000E+00 0.  1.
          1   -1    0    0  501    0  0.00000000000E+00 -0.00000000000E+00 -0.75985708384E+03  0.75985708384E+03  0.00000000000E+00 0. -1.
         23    2    1    2    0    0 -0.14048278333E+02  0.23145941102E+02 -0.61269452305E+03  0.61991991685E+03  0.90404845136E+02 0.  0.
         11    1    3    3    0    0  0.17539326301E+02  0.46831179097E+02 -0.43655020714E+03  0.43940513271E+03  0.00000000000E+00 0.  1.
        -11    1    3    3    0    0 -0.31587604634E+02 -0.23685237996E+02 -0.17614431591E+03  0.18051478414E+03  0.00000000000E+00 0. -1.
         22    1    1    2    0    0  0.14048278333E+02 -0.23145941102E+02 -0.14227314949E+03  0.14482657829E+03  0.00000000000E+00 0. -1.
<mgrwt>
<rscale>  0 0.69068155E+02</rscale>
<asrwt>0</asrwt>
<pdfrwt beam="1">  1        1 0.11690102E+00 0.94372267E+02</pdfrwt>
<pdfrwt beam="2">  1       -1 0.75221756E-03 0.94372267E+02</pdfrwt>
<totfact> 0.63123222E+04</totfact>
</mgrwt>
</event>
<event>
 6    1  0.1535419E-002  0.1608085E+03  0.7546771E-02  0.1196700E+00
          1   -1    0    0  501    0  0.00000000000E+00  0.00000000000E+00  0.99020760431E+03  0.99020760431E+03  0.00000000000E+00 0. -1.
         -1   -1    0    0    0  501 -0.00000000000E+00 -0.00000000000E+00 -0.22675310180E+02  0.22675310180E+02  0.00000000000E+00 0.  1.
         23    2    1    2    0    0  0.74766928876E+02  0.10898227404E+03  0.42284196721E+03  0.45238779234E+03  0.91608709846E+02 0.  0.
         11    1    3    3    0    0 -0.19216650001E+02  0.44687948248E+01  0.65112693901E+02  0.68036112995E+02  0.00000000000E+00 0. -1.
        -11    1    3    3    0    0  0.93983578878E+02  0.10451347921E+03  0.35772927331E+03  0.38435167935E+03  0.00000000000E+00 0.  1.
         22    1    1    2    0    0 -0.74766928876E+02 -0.10898227404E+03  0.54469032692E+03  0.56049512214E+03  0.00000000000E+00 0. -1.
<mgrwt>
<rscale>  0 0.15311221E+03</rscale>
<asrwt>0</asrwt>
<pdfrwt beam="1">  1        1 0.15233960E+00 0.16080854E+03</pdfrwt>
<pdfrwt beam="2">  1       -1 0.34885100E-02 0.16080854E+03</pdfrwt>
<totfact> 0.48202740E+03</totfact>
</mgrwt>
</event>
<event>
 6    1  0.1535419E-002  0.9333150E+02  0.7546771E-02  0.1385108E+00
          2   -1    0    0  501    0  0.00000000000E+00  0.00000000000E+00  0.22128958185E+03  0.22128958185E+03  0.00000000000E+00 0. -1.
         -2   -1    0    0    0  501 -0.00000000000E+00 -0.00000000000E+00 -0.16036388356E+02  0.16036388356E+02  0.00000000000E+00 0.  1.
         23    2    1    2    0    0 -0.17905481242E+02  0.78470317437E+01  0.19264669698E+03  0.21406428669E+03  0.91261091448E+02 0.  0.
         13    1    3    3    0    0  0.26619531708E+02 -0.25637114115E+02  0.64627765875E+02  0.74448701872E+02  0.00000000000E+00 0. -1.
        -13    1    3    3    0    0 -0.44525012950E+02  0.33484145859E+02  0.12801893111E+03  0.13961558482E+03  0.00000000000E+00 0.  1.
         22    1    1    2    0    0  0.17905481242E+02 -0.78470317437E+01  0.12606496515E+02  0.23261683518E+02  0.00000000000E+00 0.  1.
<mgrwt>
<rscale>  0 0.63140060E+02</rscale>
<asrwt>0</asrwt>
<pdfrwt beam="1">  1        2 0.34044549E-01 0.93331500E+02</pdfrwt>
<pdfrwt beam="2">  1       -2 0.24671368E-02 0.93331500E+02</pdfrwt>
<totfact> 0.74733658E+04</totfact>
</mgrwt>
</event>
<event>
 6    1  0.1535419E-002  0.1109427E+03  0.7546771E-02  0.1365573E+00
         -1   -1    0    0    0  501 -0.00000000000E+00  0.00000000000E+00  0.61436935484E+01  0.61436935484E+01  0.00000000000E+00 0.  1.
          1   -1    0    0  501    0  0.00000000000E+00 -0.00000000000E+00 -0.97312264610E+03  0.97312264610E+03  0.00000000000E+00 0. -1.
         23    2    1    2    0    0  0.15499534198E+02  0.41374206915E+01 -0.94776292730E+03  0.95423417161E+03  0.10977674658E+03 0.  0.
         11    1    3    3    0    0  0.75984372309E+01  0.22697792885E+01 -0.94586268223E+03  0.94589592545E+03  0.00000000000E+00 0. -1.
        -11    1    3    3    0    0  0.79010969671E+01  0.18676414030E+01 -0.19002450709E+01  0.83382461599E+01  0.00000000000E+00 0.  1.
         22    1    1    2    0    0 -0.15499534198E+02 -0.41374206915E+01 -0.19216025253E+02  0.25032168041E+02  0.00000000000E+00 0.  1.
<mgrwt>
<rscale>  0 0.68413285E+02</rscale>
<asrwt>0</asrwt>
<pdfrwt beam="1">  1        1 0.14971117E+00 0.11094272E+03</pdfrwt>
<pdfrwt beam="2">  1       -1 0.94518366E-03 0.11094272E+03</pdfrwt>
<totfact> 0.31777208E+04</totfact>
</mgrwt>
</event>
<event>
 6    1  0.1535419E-002  0.9275884E+02  0.7546771E-02  0.1416451E+00
         -2   -1    0    0    0  501 -0.00000000000E+00  0.00000000000E+00  0.13830943592E+02  0.13830943592E+02  0.00000000000E+00 0.  1.
          2   -1    0    0  501    0  0.00000000000E+00 -0.00000000000E+00 -0.21683848015E+03  0.21683848015E+03  0.00000000000E+00 0. -1.
         23    2    1    2    0    0  0.12103325690E+02  0.78325702240E+00 -0.19554137681E+03  0.21642696870E+03  0.91962485557E+02 0.  0.
         11    1    3    3    0    0 -0.23460491112E+02  0.20850174955E+02 -0.15757121126E+03  0.16066677023E+03  0.00000000000E+00 0. -1.
        -11    1    3    3    0    0  0.35563816802E+02 -0.20066917932E+02 -0.37970165550E+02  0.55760198464E+02  0.00000000000E+00 0.  1.
         22    1    1    2    0    0 -0.12103325690E+02 -0.78325702240E+00 -0.74661597449E+01  0.14242455043E+02  0.00000000000E+00 0.  1.
<mgrwt>
<rscale>  0 0.55778848E+02</rscale>
<asrwt>0</asrwt>
<pdfrwt beam="1">  1        2 0.33359766E-01 0.92758842E+02</pdfrwt>
<pdfrwt beam="2">  1       -2 0.21278375E-02 0.92758842E+02</pdfrwt>
<totfact> 0.94447044E+04</totfact>
</mgrwt>
</event>
<event>
 6    1  0.1535419E-002  0.9271114E+02  0.7546771E-02  0.1396886E+00
         -2   -1    0    0    0  501 -0.00000000000E+00  0.00000000000E+00  0.21915493417E+02  0.21915493417E+02  0.00000000000E+00 0.  1.
          2   -1    0    0  501    0  0.00000000000E+00 -0.00000000000E+00 -0.65222108214E+03  0.65222108214E+03  0.00000000000E+00 0. -1.
         23    2    1    2    0    0 -0.15282234217E+02 -0.62471268391E+01 -0.64524464624E+03  0.65187116032E+03  0.91229287459E+02 0.  0.
         11    1    3    3    0    0 -0.18193975423E+02  0.41154639839E+02 -0.29137477596E+03  0.29482873875E+03  0.00000000000E+00 0. -1.
        -11    1    3    3    0    0  0.29117412062E+01 -0.47401766678E+02 -0.35386987027E+03  0.35704242158E+03  0.00000000000E+00 0.  1.
         22    1    1    2    0    0  0.15282234217E+02  0.62471268391E+01  0.14939057509E+02  0.22265415236E+02  0.00000000000E+00 0.  1.
<mgrwt>
<rscale>  0 0.60226048E+02</rscale>
<asrwt>0</asrwt>
<pdfrwt beam="1">  1        2 0.10034173E+00 0.92711144E+02</pdfrwt>
<pdfrwt beam="2">  1       -2 0.33716137E-02 0.92711144E+02</pdfrwt>
<totfact> 0.14956202E+04</totfact>
</mgrwt>
</event>
<event>
 6    1  0.1535419E-002  0.9054147E+02  0.7546771E-02  0.1429605E+00
          1   -1    0    0  501    0  0.00000000000E+00  0.00000000000E+00  0.24914218271E+02  0.24914218271E+02  0.00000000000E+00 0. -1.
         -1   -1    0    0    0  501 -0.00000000000E+00 -0.00000000000E+00 -0.10934469541E+03  0.10934469541E+03  0.00000000000E+00 0.  1.
         23    2    1    2    0    0 -0.92813124452E+01  0.52480508188E+01 -0.62939889396E+02  0.11026870402E+03  0.89911470963E+02 0.  0.
         11    1    3    3    0    0 -0.18335724894E+02  0.23586430336E+02  0.12293079373E+02  0.32305391250E+02  0.00000000000E+00 0. -1.
        -11    1    3    3    0    0  0.90544124484E+01 -0.18338379517E+02 -0.75232968769E+02  0.77963312769E+02  0.00000000000E+00 0.  1.
         22    1    1    2    0    0  0.92813124452E+01 -0.52480508188E+01 -0.21490587746E+02  0.23990209665E+02  0.00000000000E+00 0.  1.
<mgrwt>
<rscale>  0 0.53039381E+02</rscale>
<asrwt>0</asrwt>
<pdfrwt beam="1">  1        1 0.38329567E-02 0.90541468E+02</pdfrwt>
<pdfrwt beam="2">  1       -1 0.16822261E-01 0.90541468E+02</pdfrwt>
<totfact> 0.55219666E+04</totfact>
</mgrwt>
</event>
<event>
 6    1  0.1535419E-002  0.9621117E+02  0.7546771E-02  0.1353989E+00
         -2   -1    0    0    0  501 -0.00000000000E+00  0.00000000000E+00  0.25133439592E+02  0.25133439592E+02  0.00000000000E+00 0.  1.
          2   -1    0    0  501    0  0.00000000000E+00 -0.00000000000E+00 -0.25978421627E+03  0.25978421627E+03  0.00000000000E+00 0. -1.
         23    2    1    2    0    0 -0.29749989254E+02  0.28500418691E+01 -0.73645446404E+02  0.12116204229E+03  0.91451649066E+02 0.  0.
         11    1    3    3    0    0  0.44293051158E+01 -0.36439993033E+02 -0.83551485000E+01  0.37647049586E+02  0.00000000000E+00 0.  1.
        -11    1    3    3    0    0 -0.34179294370E+02  0.39290034902E+02 -0.65290297904E+02  0.83514992706E+02  0.00000000000E+00 0. -1.
         22    1    1    2    0    0  0.29749989254E+02 -0.28500418691E+01 -0.16100533028E+03  0.16375561357E+03  0.00000000000E+00 0. -1.
<mgrwt>
<rscale>  0 0.71826841E+02</rscale>
<asrwt>0</asrwt>
<pdfrwt beam="1">  1        2 0.39966799E-01 0.96211167E+02</pdfrwt>
<pdfrwt beam="2">  1       -2 0.38666833E-02 0.96211167E+02</pdfrwt>
<totfact> 0.32906122E+04</totfact>
</mgrwt>
</event>
<event>
 6    1  0.1535419E-002  0.9644190E+02  0.7546771E-02  0.1419866E+00
         -2   -1    0    0    0  501 -0.00000000000E+00  0.00000000000E+00  0.25003618470E+01  0.25003618470E+01  0.00000000000E+00 0. -1.
          2   -1    0    0  501    0  0.00000000000E+00 -0.00000000000E+00 -0.23018769126E+04  0.23018769126E+04  0.00000000000E+00 0.  1.
         23    2    1    2    0    0 -0.88914093100E+01  0.50752295088E+01 -0.22831821809E+04  0.22852181323E+04  0.95896953781E+02 0.  0.
         13    1    3    3    0    0 -0.22049807260E+02  0.42645102020E+02 -0.17006073633E+04  0.17012848682E+04  0.00000000000E+00 0.  1.
        -13    1    3    3    0    0  0.13158397950E+02 -0.37569872512E+02 -0.58257481766E+03  0.58393326410E+03  0.00000000000E+00 0. -1.
         22    1    1    2    0    0  0.88914093100E+01 -0.50752295088E+01 -0.16194369839E+02  0.19159142167E+02  0.00000000000E+00 0. -1.
<mgrwt>
<rscale>  0 0.55049366E+02</rscale>
<asrwt>0</asrwt>
<pdfrwt beam="1">  1        2 0.35413528E+00 0.96441904E+02</pdfrwt>
<pdfrwt beam="2">  1       -2 0.38467065E-03 0.96441904E+02</pdfrwt>
<totfact> 0.41004009E+04</totfact>
</mgrwt>
</event>
<event>
 6    1  0.1535419E-002  0.9951930E+02  0.7546771E-02  0.1333702E+00
         -2   -1    0    0    0  501 -0.00000000000E+00  0.00000000000E+00  0.13292026878E+03  0.13292026878E+03  0.00000000000E+00 0.  1.
          2   -1    0    0  501    0  0.00000000000E+00 -0.00000000000E+00 -0.41936434516E+02  0.41936434516E+02  0.00000000000E+00 0. -1.
         23    2    1    2    0    0 -0.31728775332E+02 -0.21448489718E+02  0.32014106685E+02  0.10454182816E+03  0.91854983054E+02 0.  0.
         13    1    3    3    0    0 -0.60983665871E+02 -0.66381766858E+01  0.41026973323E+01  0.61480932151E+02  0.00000000000E+00 0. -1.
        -13    1    3    3    0    0  0.29254890539E+02 -0.14810313032E+02  0.27911409353E+02  0.43060896004E+02  0.00000000000E+00 0.  1.
         22    1    1    2    0    0  0.31728775332E+02  0.21448489718E+02  0.58969727578E+02  0.70314875140E+02  0.00000000000E+00 0. -1.
<mgrwt>
<rscale>  0 0.78383581E+02</rscale>
<asrwt>0</asrwt>
<pdfrwt beam="1">  1        2 0.64517592E-02 0.99519299E+02</pdfrwt>
<pdfrwt beam="2">  1       -2 0.20449272E-01 0.99519299E+02</pdfrwt>
<totfact> 0.20280151E+04</totfact>
</mgrwt>
</event>
<event>
 6    1  0.1535419E-002  0.9360008E+02  0.7546771E-02  0.1407144E+00
         -2   -1    0    0    0  501 -0.00000000000E+00  0.00000000000E+00  0.34791876030E+01  0.34791876030E+01  0.00000000000E+00 0. -1.
          2   -1    0    0  501    0  0.00000000000E+00 -0.00000000000E+00 -0.10105977330E+04  0.10105977330E+04  0.00000000000E+00 0.  1.
         23    2    1    2    0    0 -0.12750067536E+02 -0.48594079349E+01 -0.97042531808E+03  0.97492885553E+03  0.92600201474E+02 0.  0.
         13    1    3    3    0    0  0.20410913370E+02  0.25273304612E+02 -0.70500895231E+03  0.70575701779E+03  0.00000000000E+00 0.  1.
        -13    1    3    3    0    0 -0.33160980905E+02 -0.30132712547E+02 -0.26541636576E+03  0.26917183775E+03  0.00000000000E+00 0. -1.
         22    1    1    2    0    0  0.12750067536E+02  0.48594079349E+01 -0.36693227289E+02  0.39148065042E+02  0.00000000000E+00 0. -1.
<mgrwt>
<rscale>  0 0.57835998E+02</rscale>
<asrwt>0</asrwt>
<pdfrwt beam="1">  1        2 0.15547683E+00 0.93600082E+02</pdfrwt>
<pdfrwt beam="2">  1       -2 0.53525874E-03 0.93600082E+02</pdfrwt>
<totfact> 0.12034861E+05</totfact>
</mgrwt>
</event>
<event>
 6    1  0.1535419E-002  0.9875292E+02  0.7546771E-02  0.1367833E+00
          2   -1    0    0  501    0  0.00000000000E+00  0.00000000000E+00  0.39486011816E+02  0.39486011816E+02  0.00000000000E+00 0. -1.
         -2   -1    0    0    0  501 -0.00000000000E+00 -0.00000000000E+00 -0.95193503972E+02  0.95193503972E+02  0.00000000000E+00 0.  1.
         23    2    1    2    0    0  0.55402221392E+01  0.21194990034E+02 -0.35690332546E+02  0.10500447000E+03  0.96292352853E+02 0.  0.
         13    1    3    3    0    0  0.18892899259E+02 -0.35319891896E+02 -0.88042392646E+01  0.41011596347E+02  0.00000000000E+00 0.  1.
        -13    1    3    3    0    0 -0.13352677120E+02  0.56514881930E+02 -0.26886093281E+02  0.63992873648E+02  0.00000000000E+00 0. -1.
         22    1    1    2    0    0 -0.55402221392E+01 -0.21194990034E+02 -0.20017159610E+02  0.29675045792E+02  0.00000000000E+00 0. -1.
<mgrwt>
<rscale>  0 0.67773318E+02</rscale>
<asrwt>0</asrwt>
<pdfrwt beam="1">  1        2 0.60747711E-02 0.98752918E+02</pdfrwt>
<pdfrwt beam="2">  1       -2 0.14645154E-01 0.98752918E+02</pdfrwt>
<totfact> 0.37932191E+04</totfact>
</mgrwt>
</event>
<event>
 6    1  0.1535419E-002  0.9369945E+02  0.7546771E-02  0.1395776E+00
         -2   -1    0    0    0  501 -0.00000000000E+00  0.00000000000E+00  0.26216062921E+02  0.26216062921E+02  0.00000000000E+00 0.  1.
          2   -1    0    0  501    0  0.00000000000E+00 -0.00000000000E+00 -0.13096253073E+03  0.13096253073E+03  0.00000000000E+00 0. -1.
         23    2    1    2    0    0 -0.16240388223E+02 -0.11053531159E+01 -0.10522096856E+03  0.14089371827E+03  0.92274674801E+02 0.  0.
         13    1    3    3    0    0  0.11786424685E+02  0.47530960834E+01  0.13633963797E+02  0.18638580902E+02  0.00000000000E+00 0.  1.
        -13    1    3    3    0    0 -0.28026812908E+02 -0.58584491993E+01 -0.11885493235E+03  0.12225513737E+03  0.00000000000E+00 0. -1.
         22    1    1    2    0    0  0.16240388223E+02  0.11053531159E+01  0.47450074754E+00  0.16284875379E+02  0.00000000000E+00 0. -1.
<mgrwt>
<rscale>  0 0.60492676E+02</rscale>
<asrwt>0</asrwt>
<pdfrwt beam="1">  1        2 0.20148081E-01 0.93699454E+02</pdfrwt>
<pdfrwt beam="2">  1       -2 0.40332406E-02 0.93699454E+02</pdfrwt>
<totfact> 0.64546695E+04</totfact>
</mgrwt>
</event>
<event>
 6    1  0.1535419E-002  0.9501437E+02  0.7546771E-02  0.1399864E+00
         -2   -1    0    0    0  501 -0.00000000000E+00  0.00000000000E+00  0.10091630066E+02  0.10091630066E+02  0.00000000000E+00 0. -1.
          2   -1    0    0  501    0  0.00000000000E+00 -0.00000000000E+00 -0.30038252639E+03  0.30038252639E+03  0.00000000000E+00 0.  1.
         23    2    1    2    0    0  0.12463177174E+01  0.14576536283E+02 -0.24084322681E+03  0.25890768733E+03  0.93881318373E+02 0.  0.
         11    1    3    3    0    0  0.13335732793E+02  0.89665199923E+01  0.15535647482E+01  0.16144776658E+02  0.00000000000E+00 0. -1.
        -11    1    3    3    0    0 -0.12089415075E+02  0.56100162908E+01 -0.24239679156E+03  0.24276291067E+03  0.00000000000E+00 0.  1.
         22    1    1    2    0    0 -0.12463177174E+01 -0.14576536283E+02 -0.49447669514E+02  0.51566469127E+02  0.00000000000E+00 0. -1.
<mgrwt>
<rscale>  0 0.59518363E+02</rscale>
<asrwt>0</asrwt>
<pdfrwt beam="1">  1        2 0.46212695E-01 0.95014371E+02</pdfrwt>
<pdfrwt beam="2">  1       -2 0.15525585E-02 0.95014371E+02</pdfrwt>
<totfact> 0.10572701E+05</totfact>
</mgrwt>
</event>
<event>
 6    1  0.1535419E-002  0.8919629E+02  0.7546771E-02  0.1432715E+00
          2   -1    0    0  501    0  0.00000000000E+00  0.00000000000E+00  0.25187841659E+03  0.25187841659E+03  0.00000000000E+00 0. -1.
         -2   -1    0    0    0  501 -0.00000000000E+00 -0.00000000000E+00 -0.10011934669E+02  0.10011934669E+02  0.00000000000E+00 0.  1.
         23    2    1    2    0    0 -0.20439000279E+01  0.10441028141E+02  0.20605897453E+03  0.22453569718E+03  0.88559503874E+02 0.  0.
         13    1    3    3    0    0 -0.29613869142E+02 -0.64273815082E+01  0.18131673699E+03  0.18383158486E+03  0.00000000000E+00 0. -1.
        -13    1    3    3    0    0  0.27569969114E+02  0.16868409649E+02  0.24742237535E+02  0.40704112314E+02  0.00000000000E+00 0.  1.
         22    1    1    2    0    0  0.20439000279E+01 -0.10441028141E+02  0.35807507394E+02  0.37354654084E+02  0.00000000000E+00 0.  1.
<mgrwt>
<rscale>  0 0.52418833E+02</rscale>
<asrwt>0</asrwt>
<pdfrwt beam="1">  1        2 0.38750521E-01 0.89196291E+02</pdfrwt>
<pdfrwt beam="2">  1       -2 0.15402978E-02 0.89196291E+02</pdfrwt>
<totfact> 0.12733916E+05</totfact>
</mgrwt>
</event>
<event>
 6    1  0.1535419E-002  0.9251952E+02  0.7546771E-02  0.1420671E+00
          2   -1    0    0  501    0  0.00000000000E+00  0.00000000000E+00  0.45245780083E+04  0.45245780083E+04  0.00000000000E+00 0. -1.
         -2   -1    0    0    0  501 -0.00000000000E+00 -0.00000000000E+00 -0.15248700792E+01  0.15248700792E+01  0.00000000000E+00 0.  1.
         23    2    1    2    0    0 -0.15526665878E+00 -0.11452187882E+02  0.44928279062E+04  0.44937804192E+04  0.91807868877E+02 0.  0.
         13    1    3    3    0    0  0.36439199021E+02 -0.31753232180E+02  0.18991820933E+04  0.18997970172E+04  0.00000000000E+00 0.  1.
        -13    1    3    3    0    0 -0.36594465680E+02  0.20301044297E+02  0.25936458129E+04  0.25939834020E+04  0.00000000000E+00 0. -1.
         22    1    1    2    0    0  0.15526665878E+00  0.11452187882E+02  0.30225232051E+02  0.32322459182E+02  0.00000000000E+00 0.  1.
<mgrwt>
<rscale>  0 0.54879118E+02</rscale>
<asrwt>0</asrwt>
<pdfrwt beam="1">  1        2 0.69607818E+00 0.92519520E+02</pdfrwt>
<pdfrwt beam="2">  1       -2 0.23459902E-03 0.92519520E+02</pdfrwt>
<totfact> 0.29023997E+03</totfact>
</mgrwt>
</event>
<event>
 6    1  0.1535419E-002  0.9114830E+02  0.7546771E-02  0.1414646E+00
          4   -1    0    0  501    0  0.00000000000E+00  0.00000000000E+00  0.19701065857E+02  0.19701065857E+02  0.00000000000E+00 0. -1.
         -4   -1    0    0    0  501 -0.00000000000E+00 -0.00000000000E+00 -0.16324115913E+03  0.16324115913E+03  0.00000000000E+00 0.  1.
         23    2    1    2    0    0 -0.48614561639E+00 -0.13136355715E+02 -0.91059632548E+02  0.12884047883E+03  0.90195410787E+02 0.  0.
         13    1    3    3    0    0  0.20512542184E+02 -0.33512593538E+02 -0.91497543578E+02  0.99577401017E+02  0.00000000000E+00 0.  1.
        -13    1    3    3    0    0 -0.20998687800E+02  0.20376237823E+02  0.43791103023E+00  0.29263077815E+02  0.00000000000E+00 0. -1.
         22    1    1    2    0    0  0.48614561639E+00  0.13136355715E+02 -0.52480460723E+02  0.54101746152E+02  0.00000000000E+00 0.  1.
<mgrwt>
<rscale>  0 0.56170003E+02</rscale>
<asrwt>0</asrwt>
<pdfrwt beam="1">  1        4 0.30309331E-02 0.91148298E+02</pdfrwt>
<pdfrwt beam="2">  1       -4 0.25114025E-01 0.91148298E+02</pdfrwt>
<totfact> 0.11454039E+04</totfact>
</mgrwt>
</event>
<event>
 6    1  0.1535419E-002  0.9127623E+02  0.7546771E-02  0.1421288E+00
         -4   -1    0    0    0  501 -0.00000000000E+00  0.00000000000E+00  0.19054175469E+02  0.19054175469E+02  0.00000000000E+00 0.  1.
          4   -1    0    0  501    0  0.00000000000E+00 -0.00000000000E+00 -0.14252191601E+03  0.14252191601E+03  0.00000000000E+00 0. -1.
         23    2    1    2    0    0  0.10582970534E+02  0.52536361022E+01 -0.11597340057E+03  0.14758448367E+03  0.90508288136E+02 0.  0.
         13    1    3    3    0    0  0.14880801423E+02  0.47003231079E+02 -0.63283861374E+02  0.80222123465E+02  0.00000000000E+00 0. -1.
        -13    1    3    3    0    0 -0.42978308893E+01 -0.41749594977E+02 -0.52689539199E+02  0.67362360203E+02  0.00000000000E+00 0.  1.
         22    1    1    2    0    0 -0.10582970534E+02 -0.52536361022E+01 -0.74943399695E+01  0.13991607813E+02  0.00000000000E+00 0.  1.
<mgrwt>
<rscale>  0 0.54749345E+02</rscale>
<asrwt>0</asrwt>
<pdfrwt beam="1">  1        4 0.21926448E-01 0.91276230E+02</pdfrwt>
<pdfrwt beam="2">  1       -4 0.29314117E-02 0.91276230E+02</pdfrwt>
<totfact> 0.15442646E+04</totfact>
</mgrwt>
</event>
<event>
 6    1  0.1535419E-002  0.9482897E+02  0.7546771E-02  0.1364066E+00
         -2   -1    0    0    0  501 -0.00000000000E+00  0.00000000000E+00  0.58457227207E+01  0.58457227207E+01  0.00000000000E+00 0.  1.
          2   -1    0    0  501    0  0.00000000000E+00 -0.00000000000E+00 -0.86371210267E+03  0.86371210267E+03  0.00000000000E+00 0. -1.
         23    2    1    2    0    0  0.14360437951E+02 -0.22084383150E+02 -0.80423159335E+03  0.80980305578E+03  0.91096603983E+02 0.  0.
         13    1    3    3    0    0 -0.39081336291E+01  0.24578355175E+02 -0.55638187250E+03  0.55693819864E+03  0.00000000000E+00 0. -1.
        -13    1    3    3    0    0  0.18268571580E+02 -0.46662738326E+02 -0.24784972084E+03  0.25286485714E+03  0.00000000000E+00 0.  1.
         22    1    1    2    0    0 -0.14360437951E+02  0.22084383150E+02 -0.53634786605E+02  0.59754769612E+02  0.00000000000E+00 0. -1.
<mgrwt>
<rscale>  0 0.68844806E+02</rscale>
<asrwt>0</asrwt>
<pdfrwt beam="1">  1        2 0.13287883E+00 0.94828969E+02</pdfrwt>
<pdfrwt beam="2">  1       -2 0.89934165E-03 0.94828969E+02</pdfrwt>
<totfact> 0.71269961E+04</totfact>
</mgrwt>
</event>
<event>
 6    1  0.1535419E-002  0.9246578E+02  0.7546771E-02  0.1380425E+00
          2   -1    0    0  501    0  0.00000000000E+00  0.00000000000E+00  0.54797749839E+03  0.54797749839E+03  0.00000000000E+00 0.  1.
         -2   -1    0    0    0  501 -0.00000000000E+00 -0.00000000000E+00 -0.14201988685E+02  0.14201988685E+02  0.00000000000E+00 0. -1.
         23    2    1    2    0    0 -0.34341734269E+01 -0.21418985863E+02  0.53247948574E+03  0.54044826114E+03  0.89885225335E+02 0.  0.
         11    1    3    3    0    0 -0.39995767441E+02  0.10966624281E+02  0.30327913289E+03  0.30610155294E+03  0.00000000000E+00 0.  1.
        -11    1    3    3    0    0  0.36561594014E+02 -0.32385610144E+02  0.22920035284E+03  0.23434670820E+03  0.00000000000E+00 0. -1.
         22    1    1    2    0    0  0.34341734269E+01  0.21418985863E+02  0.12960239650E+01  0.21731225935E+02  0.00000000000E+00 0. -1.
<mgrwt>
<rscale>  0 0.64352200E+02</rscale>
<asrwt>0</asrwt>
<pdfrwt beam="1">  1        2 0.84304214E-01 0.92465779E+02</pdfrwt>
<pdfrwt beam="2">  1       -2 0.21849218E-02 0.92465779E+02</pdfrwt>
<totfact> 0.34088204E+04</totfact>
</mgrwt>
</event>
<event>
 6    1  0.1535419E-002  0.9162805E+02  0.7546771E-02  0.1427639E+00
         -1   -1    0    0    0  501 -0.00000000000E+00  0.00000000000E+00  0.47727702876E+01  0.47727702876E+01  0.00000000000E+00 0.  1.
          1   -1    0    0  501    0  0.00000000000E+00 -0.00000000000E+00 -0.65762056408E+03  0.65762056408E+03  0.00000000000E+00 0. -1.
         23    2    1    2    0    0 -0.27541354387E+01 -0.10235269897E+02 -0.63544225473E+03  0.64201445309E+03  0.91012926967E+02 0.  0.
         13    1    3    3    0    0 -0.18336315830E+02 -0.22949052250E+02 -0.66288204191E+02  0.72505210104E+02  0.00000000000E+00 0.  1.
        -13    1    3    3    0    0  0.15582180391E+02  0.12713782353E+02 -0.56915405053E+03  0.56950924299E+03  0.00000000000E+00 0. -1.
         22    1    1    2    0    0  0.27541354387E+01  0.10235269897E+02 -0.17405539067E+02  0.20378881277E+02  0.00000000000E+00 0.  1.
<mgrwt>
<rscale>  0 0.53436872E+02</rscale>
<asrwt>0</asrwt>
<pdfrwt beam="1">  1        1 0.10117240E+00 0.91628046E+02</pdfrwt>
<pdfrwt beam="2">  1       -1 0.73427228E-03 0.91628046E+02</pdfrwt>
<totfact> 0.79796071E+04</totfact>
</mgrwt>
</event>
<event>
 6    1  0.1535419E-002  0.9541395E+02  0.7546771E-02  0.1393800E+00
         -4   -1    0    0    0  501 -0.00000000000E+00  0.00000000000E+00  0.14555568624E+03  0.14555568624E+03  0.00000000000E+00 0.  1.
          4   -1    0    0  501    0  0.00000000000E+00 -0.00000000000E+00 -0.22885167850E+02  0.22885167850E+02  0.00000000000E+00 0. -1.
         23    2    1    2    0    0  0.46334940428E+01 -0.15220319844E+02  0.85935314341E+02  0.12840833456E+03  0.94078130992E+02 0.  0.
         11    1    3    3    0    0  0.33050404366E+02 -0.96870060403E+01 -0.32959377022E+01  0.34598128853E+02  0.00000000000E+00 0. -1.
        -11    1    3    3    0    0 -0.28416910323E+02 -0.55333138039E+01  0.89231252043E+02  0.93810205709E+02  0.00000000000E+00 0.  1.
         22    1    1    2    0    0 -0.46334940428E+01  0.15220319844E+02  0.36735204054E+02  0.40032519532E+02  0.00000000000E+00 0.  1.
<mgrwt>
<rscale>  0 0.60971420E+02</rscale>
<asrwt>0</asrwt>
<pdfrwt beam="1">  1        4 0.35207951E-02 0.95413951E+02</pdfrwt>
<pdfrwt beam="2">  1       -4 0.22393182E-01 0.95413951E+02</pdfrwt>
<totfact> 0.11322538E+04</totfact>
</mgrwt>
</event>
<event>
 6    1  0.1535419E-002  0.9297094E+02  0.7546771E-02  0.1381040E+00
         -4   -1    0    0    0  501 -0.00000000000E+00  0.00000000000E+00  0.18955291531E+02  0.18955291531E+02  0.00000000000E+00 0.  1.
          4   -1    0    0  501    0  0.00000000000E+00 -0.00000000000E+00 -0.29316692016E+03  0.29316692016E+03  0.00000000000E+00 0. -1.
         23    2    1    2    0    0  0.68942503633E+01  0.19971784133E+02 -0.27568806375E+03  0.29094244044E+03  0.90538347148E+02 0.  0.
         11    1    3    3    0    0  0.43866346914E+02  0.73023166762E+00 -0.19776478139E+03  0.20257269902E+03  0.00000000000E+00 0. -1.
        -11    1    3    3    0    0 -0.36972096551E+02  0.19241552465E+02 -0.77923282366E+02  0.88369741424E+02  0.00000000000E+00 0.  1.
         22    1    1    2    0    0 -0.68942503633E+01 -0.19971784133E+02  0.14764351237E+01  0.21179771250E+02  0.00000000000E+00 0.  1.
<mgrwt>
<rscale>  0 0.64191316E+02</rscale>
<asrwt>0</asrwt>
<pdfrwt beam="1">  1        4 0.45102600E-01 0.92970937E+02</pdfrwt>
<pdfrwt beam="2">  1       -4 0.29161989E-02 0.92970937E+02</pdfrwt>
<totfact> 0.40082151E+03</totfact>
</mgrwt>
</event>
<event>
 6    1  0.1535419E-002  0.1006635E+03  0.7546771E-02  0.1324712E+00
          2   -1    0    0  501    0  0.00000000000E+00  0.00000000000E+00  0.16179330888E+03  0.16179330888E+03  0.00000000000E+00 0. -1.
         -2   -1    0    0    0  501 -0.00000000000E+00 -0.00000000000E+00 -0.32199144245E+02  0.32199144245E+02  0.00000000000E+00 0.  1.
         23    2    1    2    0    0  0.27247844552E+02  0.33724886076E+02  0.96521399617E+02  0.13946153750E+03  0.90847822667E+02 0.  0.
         13    1    3    3    0    0  0.60919993577E+02  0.24939188046E+02  0.61334001653E+02  0.89972598476E+02  0.00000000000E+00 0. -1.
        -13    1    3    3    0    0 -0.33672149025E+02  0.87856980301E+01  0.35187397964E+02  0.49488939020E+02  0.00000000000E+00 0.  1.
         22    1    1    2    0    0 -0.27247844552E+02 -0.33724886076E+02  0.33072765020E+02  0.54530915632E+02  0.00000000000E+00 0.  1.
<mgrwt>
<rscale>  0 0.81548944E+02</rscale>
<asrwt>0</asrwt>
<pdfrwt beam="1">  1        2 0.24891278E-01 0.10066350E+03</pdfrwt>
<pdfrwt beam="2">  1       -2 0.49537146E-02 0.10066350E+03</pdfrwt>
<totfact> 0.38051275E+04</totfact>
</mgrwt>
</event>
<event>
 6    1  0.1535419E-002  0.9330712E+02  0.7546771E-02  0.1411506E+00
         -2   -1    0    0    0  501 -0.00000000000E+00  0.00000000000E+00  0.59109530953E+01  0.59109530953E+01  0.00000000000E+00 0.  1.
          2   -1    0    0  501    0  0.00000000000E+00 -0.00000000000E+00 -0.49663174477E+03  0.49663174477E+03  0.00000000000E+00 0. -1.
         23    2    1    2    0    0 -0.12188093154E+02 -0.41226559308E+01 -0.45748468727E+03  0.46690304940E+03  0.92415759192E+02 0.  0.
         13    1    3    3    0    0  0.39565343292E+02 -0.37191992626E+00 -0.24499626232E+03  0.24817075425E+03  0.00000000000E+00 0. -1.
        -13    1    3    3    0    0 -0.51753436445E+02 -0.37507360046E+01 -0.21248842495E+03  0.21873229515E+03  0.00000000000E+00 0.  1.
         22    1    1    2    0    0  0.12188093154E+02  0.41226559308E+01 -0.33236104406E+02  0.35639648465E+02  0.00000000000E+00 0.  1.
<mgrwt>
<rscale>  0 0.56859219E+02</rscale>
<asrwt>0</asrwt>
<pdfrwt beam="1">  1        2 0.76404867E-01 0.93307119E+02</pdfrwt>
<pdfrwt beam="2">  1       -2 0.90937760E-03 0.93307119E+02</pdfrwt>
<totfact> 0.13260925E+05</totfact>
</mgrwt>
</event>
<event>
 6    1  0.1535419E-002  0.9200547E+02  0.7546771E-02  0.1412725E+00
         -4   -1    0    0    0  501 -0.00000000000E+00  0.00000000000E+00  0.39901207044E+02  0.39901207044E+02  0.00000000000E+00 0. -1.
          4   -1    0    0  501    0  0.00000000000E+00 -0.00000000000E+00 -0.73664543646E+02  0.73664543646E+02  0.00000000000E+00 0.  1.
         23    2    1    2    0    0 -0.12294337992E+02 -0.47168343075E+01 -0.19303829456E+02  0.94008741219E+02  0.91058257843E+02 0.  0.
         11    1    3    3    0    0  0.17866702882E+02  0.31495166009E+02 -0.28390988934E+02  0.46013180790E+02  0.00000000000E+00 0.  1.
        -11    1    3    3    0    0 -0.30161040874E+02 -0.36212000316E+02  0.90871594777E+01  0.47995560429E+02  0.00000000000E+00 0. -1.
         22    1    1    2    0    0  0.12294337992E+02  0.47168343075E+01 -0.14459507146E+02  0.19557009471E+02  0.00000000000E+00 0. -1.
<mgrwt>
<rscale>  0 0.56590187E+02</rscale>
<asrwt>0</asrwt>
<pdfrwt beam="1">  1        4 0.11333007E-01 0.92005465E+02</pdfrwt>
<pdfrwt beam="2">  1       -4 0.61386473E-02 0.92005465E+02</pdfrwt>
<totfact> 0.15187022E+04</totfact>
</mgrwt>
</event>
<event>
 6    1  0.1535419E-002  0.9798520E+02  0.7546771E-02  0.1333905E+00
         -2   -1    0    0    0  501 -0.00000000000E+00  0.00000000000E+00  0.10447552416E+03  0.10447552416E+03  0.00000000000E+00 0.  1.
          2   -1    0    0  501    0  0.00000000000E+00 -0.00000000000E+00 -0.72632254917E+02  0.72632254917E+02  0.00000000000E+00 0. -1.
         23    2    1    2    0    0 -0.39403863324E+02 -0.67839327037E+01 -0.30869860507E+02  0.10273289870E+03  0.89456212753E+02 0.  0.
         11    1    3    3    0    0 -0.20874702643E+02 -0.43320833888E+02  0.49140997358E+01  0.48338351600E+02  0.00000000000E+00 0.  1.
        -11    1    3    3    0    0 -0.18529160681E+02  0.36536901184E+02 -0.35783960243E+02  0.54394547102E+02  0.00000000000E+00 0. -1.
         22    1    1    2    0    0  0.39403863324E+02  0.67839327037E+01  0.62713129750E+02  0.74374880376E+02  0.00000000000E+00 0. -1.
<mgrwt>
<rscale>  0 0.78314247E+02</rscale>
<asrwt>0</asrwt>
<pdfrwt beam="1">  1        2 0.11174193E-01 0.97985204E+02</pdfrwt>
<pdfrwt beam="2">  1       -2 0.16073158E-01 0.97985204E+02</pdfrwt>
<totfact> 0.15313914E+04</totfact>
</mgrwt>
</event>
<event>
 6    1  0.1535419E-002  0.9400316E+02  0.7546771E-02  0.1392565E+00
          2   -1    0    0  501    0  0.00000000000E+00  0.00000000000E+00  0.10371193776E+04  0.10371193776E+04  0.00000000000E+00 0. -1.
         -2   -1    0    0    0  501 -0.00000000000E+00 -0.00000000000E+00 -0.38930296892E+01  0.38930296892E+01  0.00000000000E+00 0.  1.
         23    2    1    2    0    0 -0.89581284972E+01 -0.14411791433E+02  0.99180677876E+03  0.99625161522E+03  0.92458891538E+02 0.  0.
         11    1    3    3    0    0  0.38522249911E+02  0.10882357963E+02  0.45352376500E+03  0.45528693686E+03  0.00000000000E+00 0.  1.
        -11    1    3    3    0    0 -0.47480378409E+02 -0.25294149395E+02  0.53828301376E+03  0.54096467836E+03  0.00000000000E+00 0. -1.
         22    1    1    2    0    0  0.89581284972E+01  0.14411791433E+02  0.41419569141E+02  0.44760792065E+02  0.00000000000E+00 0. -1.
<mgrwt>
<rscale>  0 0.61273271E+02</rscale>
<asrwt>0</asrwt>
<pdfrwt beam="1">  1        2 0.15955661E+00 0.94003162E+02</pdfrwt>
<pdfrwt beam="2">  1       -2 0.59892847E-03 0.94003162E+02</pdfrwt>
<totfact> 0.99247454E+04</totfact>
</mgrwt>
</event>
<event>
 6    1  0.1535419E-002  0.8827249E+02  0.7546771E-02  0.1423136E+00
          2   -1    0    0  501    0  0.00000000000E+00  0.00000000000E+00  0.29114320460E+03  0.29114320460E+03  0.00000000000E+00 0. -1.
         -2   -1    0    0    0  501 -0.00000000000E+00 -0.00000000000E+00 -0.99720924797E+01  0.99720924797E+01  0.00000000000E+00 0.  1.
         23    2    1    2    0    0  0.73171069389E+01  0.10377733322E+02  0.27046784827E+03  0.28450815223E+03  0.87354417962E+02 0.  0.
         13    1    3    3    0    0  0.19482190328E+02 -0.32324238426E+02  0.17767821566E+03  0.18164239717E+03  0.00000000000E+00 0. -1.
        -13    1    3    3    0    0 -0.12165083389E+02  0.42701971748E+02  0.92789632608E+02  0.10286575506E+03  0.00000000000E+00 0.  1.
         22    1    1    2    0    0 -0.73171069389E+01 -0.10377733322E+02  0.10703263853E+02  0.16607144847E+02  0.00000000000E+00 0. -1.
<mgrwt>
<rscale>  0 0.54362853E+02</rscale>
<asrwt>0</asrwt>
<pdfrwt beam="1">  1        2 0.44791256E-01 0.88272486E+02</pdfrwt>
<pdfrwt beam="2">  1       -2 0.15341683E-02 0.88272486E+02</pdfrwt>
<totfact> 0.10987660E+05</totfact>
</mgrwt>
</event>
<event>
 6    1  0.1535419E-002  0.8683992E+02  0.7546771E-02  0.1437310E+00
         -2   -1    0    0    0  501 -0.00000000000E+00  0.00000000000E+00  0.37001640538E+01  0.37001640538E+01  0.00000000000E+00 0.  1.
          2   -1    0    0  501    0  0.00000000000E+00 -0.00000000000E+00 -0.72946809437E+03  0.72946809437E+03  0.00000000000E+00 0. -1.
         23    2    1    2    0    0  0.76423829800E+01  0.75724233727E+01 -0.69812855567E+03  0.70350881399E+03  0.86170897088E+02 0.  0.
         13    1    3    3    0    0  0.15878435806E+01  0.22519312433E+02 -0.67463695855E+03  0.67501456764E+03  0.00000000000E+00 0. -1.
        -13    1    3    3    0    0  0.60545393994E+01 -0.14946889061E+02 -0.23491597118E+02  0.28494246350E+02  0.00000000000E+00 0.  1.
         22    1    1    2    0    0 -0.76423829800E+01 -0.75724233727E+01 -0.27639374646E+02  0.29659444434E+02  0.00000000000E+00 0.  1.
<mgrwt>
<rscale>  0 0.51520320E+02</rscale>
<asrwt>0</asrwt>
<pdfrwt beam="1">  1        2 0.11222574E+00 0.86839917E+02</pdfrwt>
<pdfrwt beam="2">  1       -2 0.56925662E-03 0.86839917E+02</pdfrwt>
<totfact> 0.16471182E+05</totfact>
</mgrwt>
</event>
<event>
 6    1  0.1535419E-002  0.9695754E+02  0.7546771E-02  0.1344025E+00
          1   -1    0    0  501    0  0.00000000000E+00  0.00000000000E+00  0.39332754181E+02  0.39332754181E+02  0.00000000000E+00 0. -1.
         -1   -1    0    0    0  501 -0.00000000000E+00 -0.00000000000E+00 -0.16024624973E+03  0.16024624973E+03  0.00000000000E+00 0.  1.
         23    2    1    2    0    0  0.50221732541E+01  0.34255318765E+02 -0.28754692453E+02  0.10113158609E+03  0.90565535823E+02 0.  0.
         13    1    3    3    0    0 -0.26755165824E+02  0.46505570634E+02  0.41016578589E+01  0.53809205490E+02  0.00000000000E+00 0. -1.
        -13    1    3    3    0    0  0.31777339078E+02 -0.12250251869E+02 -0.32856350312E+02  0.47322380599E+02  0.00000000000E+00 0.  1.
         22    1    1    2    0    0 -0.50221732541E+01 -0.34255318765E+02 -0.92158803098E+02  0.98447417824E+02  0.00000000000E+00 0.  1.
<mgrwt>
<rscale>  0 0.74950186E+02</rscale>
<asrwt>0</asrwt>
<pdfrwt beam="1">  1        1 0.60511929E-02 0.96957544E+02</pdfrwt>
<pdfrwt beam="2">  1       -1 0.24653269E-01 0.96957544E+02</pdfrwt>
<totfact> 0.16333709E+04</totfact>
</mgrwt>
</event>
<event>
 6    1  0.1535419E-002  0.9793942E+02  0.7546771E-02  0.1335877E+00
          2   -1    0    0  501    0  0.00000000000E+00  0.00000000000E+00  0.10272357452E+03  0.10272357452E+03  0.00000000000E+00 0. -1.
         -2   -1    0    0    0  501 -0.00000000000E+00 -0.00000000000E+00 -0.46987484561E+02  0.46987484561E+02  0.00000000000E+00 0.  1.
         23    2    1    2    0    0 -0.27788699946E+02  0.26912191989E+02  0.51888969862E+02  0.11083589663E+03  0.89975846019E+02 0.  0.
         13    1    3    3    0    0  0.20200602422E+02 -0.12093182212E+02 -0.78841659645E+01  0.24828803177E+02  0.00000000000E+00 0.  1.
        -13    1    3    3    0    0 -0.47989302368E+02  0.39005374201E+02  0.59773135826E+02  0.86007093456E+02  0.00000000000E+00 0. -1.
         22    1    1    2    0    0  0.27788699946E+02 -0.26912191989E+02  0.38471200976E+01  0.38875162448E+02  0.00000000000E+00 0. -1.
<mgrwt>
<rscale>  0 0.77642936E+02</rscale>
<asrwt>0</asrwt>
<pdfrwt beam="1">  1        2 0.15803627E-01 0.97939424E+02</pdfrwt>
<pdfrwt beam="2">  1       -2 0.72288438E-02 0.97939424E+02</pdfrwt>
<totfact> 0.35752064E+04</totfact>
</mgrwt>
</event>
<event>
 6    1  0.1535419E-002  0.8738319E+02  0.7546771E-02  0.1409231E+00
         -2   -1    0    0    0  501 -0.00000000000E+00  0.00000000000E+00  0.76534444582E+02  0.76534444582E+02  0.00000000000E+00 0.  1.
          2   -1    0    0  501    0  0.00000000000E+00 -0.00000000000E+00 -0.74677828882E+02  0.74677828882E+02  0.00000000000E+00 0. -1.
         23    2    1    2    0    0  0.10481198011E+02  0.12392250090E+02 -0.47357498787E+02  0.99390922279E+02  0.85862677375E+02 0.  0.
         11    1    3    3    0    0  0.33772794553E+02 -0.14163591849E+02 -0.52170647396E+02  0.63741551877E+02  0.00000000000E+00 0. -1.
        -11    1    3    3    0    0 -0.23291596541E+02  0.26555841938E+02  0.48131486094E+01  0.35649370402E+02  0.00000000000E+00 0.  1.
         22    1    1    2    0    0 -0.10481198011E+02 -0.12392250090E+02  0.49214114486E+02  0.51821351186E+02  0.00000000000E+00 0. -1.
<mgrwt>
<rscale>  0 0.57365757E+02</rscale>
<asrwt>0</asrwt>
<pdfrwt beam="1">  1        2 0.11488897E-01 0.87383195E+02</pdfrwt>
<pdfrwt beam="2">  1       -2 0.11774530E-01 0.87383195E+02</pdfrwt>
<totfact> 0.24090176E+04</totfact>
</mgrwt>
</event>
<event>
 6    1  0.1535419E-002  0.9421403E+02  0.7546771E-02  0.1358442E+00
         -2   -1    0    0    0  501 -0.00000000000E+00  0.00000000000E+00  0.55432326743E+01  0.55432326743E+01  0.00000000000E+00 0. -1.
          2   -1    0    0  501    0  0.00000000000E+00 -0.00000000000E+00 -0.98703816746E+03  0.98703816746E+03  0.00000000000E+00 0.  1.
         23    2    1    2    0    0 -0.27744537143E+02 -0.10082096301E+02 -0.91488664989E+03  0.91972488619E+03  0.89469973323E+02 0.  0.
         11    1    3    3    0    0 -0.10430908465E+02 -0.12255246109E+02 -0.88478464124E+03  0.88493098956E+03  0.00000000000E+00 0.  1.
        -11    1    3    3    0    0 -0.17313628678E+02  0.21731498081E+01 -0.30102008650E+02  0.34793896632E+02  0.00000000000E+00 0. -1.
         22    1    1    2    0    0  0.27744537143E+02  0.10082096301E+02 -0.66608284895E+02  0.72856513941E+02  0.00000000000E+00 0.  1.
<mgrwt>
<rscale>  0 0.70487871E+02</rscale>
<asrwt>0</asrwt>
<pdfrwt beam="1">  1        2 0.15185195E+00 0.94214034E+02</pdfrwt>
<pdfrwt beam="2">  1       -2 0.85280547E-03 0.94214034E+02</pdfrwt>
<totfact> 0.64531339E+04</totfact>
</mgrwt>
</event>
<event>
 6    1  0.1580163E-002  0.1488659E+03  0.7546771E-02  0.1224963E+00
          4   -1    0    0  501    0  0.00000000000E+00  0.00000000000E+00  0.34800400382E+03  0.34800400382E+03  0.00000000000E+00 0.  1.
         -4   -1    0    0    0  501 -0.00000000000E+00 -0.00000000000E+00 -0.61532350334E+02  0.61532350334E+02  0.00000000000E+00 0. -1.
         23    2    1    2    0    0 -0.25601480447E+02  0.87507702081E+02  0.51544876722E+02  0.15753709986E+03  0.11767765205E+03 0.  0.
         13    1    3    3    0    0 -0.72612249772E+01 -0.27990324716E+02 -0.18564513093E+01  0.28976371018E+02  0.00000000000E+00 0. -1.
        -13    1    3    3    0    0 -0.18340255470E+02  0.11549802680E+03  0.53401328031E+02  0.12856072884E+03  0.00000000000E+00 0.  1.
         22    1    1    2    0    0  0.25601480447E+02 -0.87507702081E+02  0.23492677676E+03  0.25199925429E+03  0.00000000000E+00 0. -1.
<mgrwt>
<rscale>  0 0.13169413E+03</rscale>
<asrwt>0</asrwt>
<pdfrwt beam="1">  1        4 0.53539076E-01 0.14886592E+03</pdfrwt>
<pdfrwt beam="2">  1       -4 0.94665157E-02 0.14886592E+03</pdfrwt>
<totfact> 0.47383646E+02</totfact>
</mgrwt>
</event>
<event>
 6    1  0.1535419E-002  0.9354375E+02  0.7546771E-02  0.1393987E+00
          2   -1    0    0  501    0  0.00000000000E+00  0.00000000000E+00  0.45902380483E+02  0.45902380483E+02  0.00000000000E+00 0. -1.
         -2   -1    0    0    0  501 -0.00000000000E+00 -0.00000000000E+00 -0.68197332479E+02  0.68197332479E+02  0.00000000000E+00 0.  1.
         23    2    1    2    0    0  0.15433978135E+02  0.67186415041E+01 -0.25516071519E+02  0.96961351439E+02  0.92016769898E+02 0.  0.
         11    1    3    3    0    0  0.29128233707E+02  0.12459120687E+02 -0.55271154148E+02  0.63707018200E+02  0.00000000000E+00 0.  1.
        -11    1    3    3    0    0 -0.13694255572E+02 -0.57404791830E+01  0.29755082629E+02  0.33254333239E+02  0.00000000000E+00 0. -1.
         22    1    1    2    0    0 -0.15433978135E+02 -0.67186415041E+01  0.32211195230E+01  0.17138361524E+02  0.00000000000E+00 0.  1.
<mgrwt>
<rscale>  0 0.60925777E+02</rscale>
<asrwt>0</asrwt>
<pdfrwt beam="1">  1        2 0.70619047E-02 0.93543753E+02</pdfrwt>
<pdfrwt beam="2">  1       -2 0.10491897E-01 0.93543753E+02</pdfrwt>
<totfact> 0.52867232E+04</totfact>
</mgrwt>
</event>
<event>
 6    1  0.1535419E-002  0.9116300E+02  0.7546771E-02  0.1391981E+00
         -2   -1    0    0    0  501 -0.00000000000E+00  0.00000000000E+00  0.23772577938E+01  0.23772577938E+01  0.00000000000E+00 0.  1.
          2   -1    0    0  501    0  0.00000000000E+00 -0.00000000000E+00 -0.14566169875E+04  0.14566169875E+04  0.00000000000E+00 0. -1.
         23    2    1    2    0    0  0.15411928059E+02  0.10730802898E+02 -0.13501342103E+04  0.13532084390E+04  0.89207711031E+02 0.  0.
         13    1    3    3    0    0 -0.19625649401E+01 -0.38708761803E+02 -0.57693539091E+03  0.57823582143E+03  0.00000000000E+00 0.  1.
        -13    1    3    3    0    0  0.17374492999E+02  0.49439564701E+02 -0.77319881943E+03  0.77497261754E+03  0.00000000000E+00 0. -1.
         22    1    1    2    0    0 -0.15411928059E+02 -0.10730802898E+02 -0.10410551934E+03  0.10578580630E+03  0.00000000000E+00 0.  1.
<mgrwt>
<rscale>  0 0.61416663E+02</rscale>
<asrwt>0</asrwt>
<pdfrwt beam="1">  1        2 0.22409492E+00 0.91163004E+02</pdfrwt>
<pdfrwt beam="2">  1       -2 0.36573197E-03 0.91163004E+02</pdfrwt>
<totfact> 0.11717677E+05</totfact>
</mgrwt>
</event>
<event>
 6    1  0.1535419E-002  0.9568921E+02  0.7546771E-02  0.1346747E+00
         -1   -1    0    0    0  501 -0.00000000000E+00  0.00000000000E+00  0.54983135594E+01  0.54983135594E+01  0.00000000000E+00 0.  1.
          1   -1    0    0  501    0  0.00000000000E+00 -0.00000000000E+00 -0.12329700198E+04  0.12329700198E+04  0.00000000000E+00 0. -1.
         23    2    1    2    0    0  0.30000674137E+02  0.16772611863E+02 -0.11467284389E+04  0.11507139250E+04  0.89303212474E+02 0.  0.
         11    1    3    3    0    0  0.27575082689E+02 -0.30329105377E+02 -0.31597187566E+03  0.31861962593E+03  0.00000000000E+00 0.  1.
        -11    1    3    3    0    0  0.24255914483E+01  0.47101717240E+02 -0.83075656323E+03  0.83209429911E+03  0.00000000000E+00 0. -1.
         22    1    1    2    0    0 -0.30000674137E+02 -0.16772611863E+02 -0.80743267342E+02  0.87754408314E+02  0.00000000000E+00 0.  1.
<mgrwt>
<rscale>  0 0.74078990E+02</rscale>
<asrwt>0</asrwt>
<pdfrwt beam="1">  1        1 0.18968773E+00 0.95689209E+02</pdfrwt>
<pdfrwt beam="2">  1       -1 0.84589426E-03 0.95689209E+02</pdfrwt>
<totfact> 0.24157472E+04</totfact>
</mgrwt>
</event>
<event>
 6    1  0.1535419E-002  0.9581964E+02  0.7546771E-02  0.1355501E+00
         -2   -1    0    0    0  501 -0.00000000000E+00  0.00000000000E+00  0.22047583369E+03  0.22047583369E+03  0.00000000000E+00 0.  1.
          2   -1    0    0  501    0  0.00000000000E+00 -0.00000000000E+00 -0.26204223595E+02  0.26204223595E+02  0.00000000000E+00 0. -1.
         23    2    1    2    0    0  0.14496755903E+02 -0.25679389186E+02  0.19490435751E+03  0.21718450966E+03  0.91169159806E+02 0.  0.
         13    1    3    3    0    0  0.31777042348E+02 -0.39429927993E+02  0.18698930092E+03  0.19372531662E+03  0.00000000000E+00 0.  1.
        -13    1    3    3    0    0 -0.17280286445E+02  0.13750538808E+02  0.79150565873E+01  0.23459193036E+02  0.00000000000E+00 0. -1.
         22    1    1    2    0    0 -0.14496755903E+02  0.25679389186E+02 -0.63274740944E+00  0.29495547629E+02  0.00000000000E+00 0. -1.
<mgrwt>
<rscale>  0 0.71368245E+02</rscale>
<asrwt>0</asrwt>
<pdfrwt beam="1">  1        2 0.40314192E-02 0.95819636E+02</pdfrwt>
<pdfrwt beam="2">  1       -2 0.33919358E-01 0.95819636E+02</pdfrwt>
<totfact> 0.15280985E+04</totfact>
</mgrwt>
</event>
<event>
 6    1  0.1535419E-002  0.1197762E+03  0.7546771E-02  0.1265229E+00
          2   -1    0    0  501    0  0.00000000000E+00  0.00000000000E+00  0.69861569439E+03  0.69861569439E+03  0.00000000000E+00 0. -1.
         -2   -1    0    0    0  501 -0.00000000000E+00 -0.00000000000E+00 -0.16710126787E+02  0.16710126787E+02  0.00000000000E+00 0.  1.
         23    2    1    2    0    0 -0.61733401126E+02 -0.47316393988E+02  0.54369389752E+03  0.55673099244E+03  0.91085068972E+02 0.  0.
         11    1    3    3    0    0 -0.82840817229E+02 -0.49386465581E+02  0.48017484742E+03  0.48976474769E+03  0.00000000000E+00 0. -1.
        -11    1    3    3    0    0  0.21107416103E+02  0.20700715927E+01  0.63519050097E+02  0.66966244752E+02  0.00000000000E+00 0.  1.
         22    1    1    2    0    0  0.61733401126E+02  0.47316393988E+02  0.13821167008E+03  0.15859482874E+03  0.00000000000E+00 0.  1.
<mgrwt>
<rscale>  0 0.10752169E+03</rscale>
<asrwt>0</asrwt>
<pdfrwt beam="1">  1        2 0.10747932E+00 0.11977622E+03</pdfrwt>
<pdfrwt beam="2">  1       -2 0.25707893E-02 0.11977622E+03</pdfrwt>
<totfact> 0.20966854E+04</totfact>
</mgrwt>
</event>
<event>
 6    1  0.1535419E-002  0.9263192E+02  0.7546771E-02  0.1367933E+00
          2   -1    0    0  501    0  0.00000000000E+00  0.00000000000E+00  0.74484040476E+02  0.74484040476E+02  0.00000000000E+00 0. -1.
         -2   -1    0    0    0  501 -0.00000000000E+00 -0.00000000000E+00 -0.47925787002E+02  0.47925787002E+02  0.00000000000E+00 0.  1.
         23    2    1    2    0    0 -0.24674534789E+02 -0.96628151199E+01  0.24576509370E+02  0.95836721285E+02  0.88760743973E+02 0.  0.
         11    1    3    3    0    0 -0.54344820546E+02 -0.22725928488E+02  0.23441448545E+02  0.63398177069E+02  0.00000000000E+00 0.  1.
        -11    1    3    3    0    0  0.29670285757E+02  0.13063113368E+02  0.11350608252E+01  0.32438544216E+02  0.00000000000E+00 0. -1.
         22    1    1    2    0    0  0.24674534789E+02  0.96628151199E+01  0.19817441042E+01  0.26573106194E+02  0.00000000000E+00 0.  1.
<mgrwt>
<rscale>  0 0.67745165E+02</rscale>
<asrwt>0</asrwt>
<pdfrwt beam="1">  1        2 0.11459083E-01 0.92631919E+02</pdfrwt>
<pdfrwt beam="2">  1       -2 0.73731980E-02 0.92631919E+02</pdfrwt>
<totfact> 0.50221129E+04</totfact>
</mgrwt>
</event>
<event>
 6    1  0.1535419E-002  0.9227001E+02  0.7546771E-02  0.1403099E+00
          2   -1    0    0  501    0  0.00000000000E+00  0.00000000000E+00  0.42301261076E+03  0.42301261076E+03  0.00000000000E+00 0. -1.
         -2   -1    0    0    0  501 -0.00000000000E+00 -0.00000000000E+00 -0.77883906541E+01  0.77883906541E+01  0.00000000000E+00 0.  1.
         23    2    1    2    0    0  0.14174645640E+02 -0.54278727820E+01  0.39429501801E+03  0.40494729989E+03  0.91013032487E+02 0.  0.
         11    1    3    3    0    0 -0.21780961385E+02  0.11240447200E+02  0.31827172369E+03  0.31921411002E+03  0.00000000000E+00 0. -1.
        -11    1    3    3    0    0  0.35955607025E+02 -0.16668319982E+02  0.76023294314E+02  0.85733189874E+02  0.00000000000E+00 0.  1.
         22    1    1    2    0    0 -0.14174645640E+02  0.54278727820E+01  0.20929202104E+02  0.25853701528E+02  0.00000000000E+00 0.  1.
<mgrwt>
<rscale>  0 0.58762678E+02</rscale>
<asrwt>0</asrwt>
<pdfrwt beam="1">  1        2 0.65078845E-01 0.92270008E+02</pdfrwt>
<pdfrwt beam="2">  1       -2 0.11982143E-02 0.92270008E+02</pdfrwt>
<totfact> 0.10630378E+05</totfact>
</mgrwt>
</event>
<event>
 6    1  0.1535419E-002  0.8937510E+02  0.7546771E-02  0.1404348E+00
         -1   -1    0    0    0  501 -0.00000000000E+00  0.00000000000E+00  0.14981094488E+03  0.14981094488E+03  0.00000000000E+00 0.  1.
          1   -1    0    0  501    0  0.00000000000E+00 -0.00000000000E+00 -0.21131314476E+02  0.21131314476E+02  0.00000000000E+00 0. -1.
         23    2    1    2    0    0  0.96834591365E+01 -0.13206259636E+02  0.81329877111E+02  0.12084062454E+03  0.87862010867E+02 0.  0.
         13    1    3    3    0    0  0.43727227564E+02 -0.10574533457E+02  0.17155442442E+02  0.48147693544E+02  0.00000000000E+00 0. -1.
        -13    1    3    3    0    0 -0.34043768428E+02 -0.26317261790E+01  0.64174434669E+02  0.72692930994E+02  0.00000000000E+00 0.  1.
         22    1    1    2    0    0 -0.96834591365E+01  0.13206259636E+02  0.47349753289E+02  0.50101634813E+02  0.00000000000E+00 0.  1.
<mgrwt>
<rscale>  0 0.58474243E+02</rscale>
<asrwt>0</asrwt>
<pdfrwt beam="1">  1        1 0.32509715E-02 0.89375095E+02</pdfrwt>
<pdfrwt beam="2">  1       -1 0.23047837E-01 0.89375095E+02</pdfrwt>
<totfact> 0.41868858E+04</totfact>
</mgrwt>
</event>
<event>
 6    1  0.1535419E-002  0.8683043E+02  0.7546771E-02  0.1401376E+00
          2   -1    0    0  501    0  0.00000000000E+00  0.00000000000E+00  0.41458656937E+03  0.41458656937E+03  0.00000000000E+00 0.  1.
         -2   -1    0    0    0  501 -0.00000000000E+00 -0.00000000000E+00 -0.85372730208E+01  0.85372730208E+01  0.00000000000E+00 0. -1.
         23    2    1    2    0    0 -0.43365576512E+01 -0.18205971981E+02  0.38620775423E+03  0.39584839662E+03  0.84789507231E+02 0.  0.
         13    1    3    3    0    0 -0.10798769793E+02 -0.80685515879E+01  0.48877573837E+01  0.14338937409E+02  0.00000000000E+00 0. -1.
        -13    1    3    3    0    0  0.64622121417E+01 -0.10137420393E+02  0.38131999684E+03  0.38150945921E+03  0.00000000000E+00 0.  1.
         22    1    1    2    0    0  0.43365576512E+01  0.18205971981E+02  0.19841542125E+02  0.27275445770E+02  0.00000000000E+00 0.  1.
<mgrwt>
<rscale>  0 0.59163420E+02</rscale>
<asrwt>0</asrwt>
<pdfrwt beam="1">  1        2 0.63782534E-01 0.86830431E+02</pdfrwt>
<pdfrwt beam="2">  1       -2 0.13134269E-02 0.86830431E+02</pdfrwt>
<totfact> 0.94456436E+04</totfact>
</mgrwt>
</event>
<event>
 6    1  0.1535419E-002  0.9296552E+02  0.7546771E-02  0.1395953E+00
          1   -1    0    0  501    0  0.00000000000E+00  0.00000000000E+00  0.40301180035E+02  0.40301180035E+02  0.00000000000E+00 0. -1.
         -1   -1    0    0    0  501 -0.00000000000E+00 -0.00000000000E+00 -0.91754518602E+02  0.91754518602E+02  0.00000000000E+00 0.  1.
         23    2    1    2    0    0  0.19027086558E+01  0.16510140263E+02 -0.17986540515E+02  0.94689516018E+02  0.91467938493E+02 0.  0.
         13    1    3    3    0    0 -0.36800803648E+02 -0.17624426789E+02 -0.28166823158E+01  0.40900528946E+02  0.00000000000E+00 0.  1.
        -13    1    3    3    0    0  0.38703512304E+02  0.34134567051E+02 -0.15169858199E+02  0.53788987072E+02  0.00000000000E+00 0. -1.
         22    1    1    2    0    0 -0.19027086558E+01 -0.16510140263E+02 -0.33466798052E+02  0.37366182620E+02  0.00000000000E+00 0.  1.
<mgrwt>
<rscale>  0 0.60449873E+02</rscale>
<asrwt>0</asrwt>
<pdfrwt beam="1">  1        1 0.62001815E-02 0.92965525E+02</pdfrwt>
<pdfrwt beam="2">  1       -1 0.14116080E-01 0.92965525E+02</pdfrwt>
<totfact> 0.37996609E+04</totfact>
</mgrwt>
</event>
<event>
 6    1  0.1535419E-002  0.9417752E+02  0.7546771E-02  0.1362238E+00
         -2   -1    0    0    0  501 -0.00000000000E+00  0.00000000000E+00  0.30228910204E+03  0.30228910204E+03  0.00000000000E+00 0.  1.
          2   -1    0    0  501    0  0.00000000000E+00 -0.00000000000E+00 -0.12558467628E+02  0.12558467628E+02  0.00000000000E+00 0. -1.
         23    2    1    2    0    0  0.29648303910E+01  0.27569348695E+02  0.20277505374E+03  0.22357801167E+03  0.90003031489E+02 0.  0.
         13    1    3    3    0    0  0.44172273685E+02  0.24267700195E+02  0.85731913267E+02  0.99448841057E+02  0.00000000000E+00 0. -1.
        -13    1    3    3    0    0 -0.41207443294E+02  0.33016485003E+01  0.11704314048E+03  0.12412917062E+03  0.00000000000E+00 0.  1.
         22    1    1    2    0    0 -0.29648303910E+01 -0.27569348695E+02  0.86955580668E+02  0.91269557992E+02  0.00000000000E+00 0.  1.
<mgrwt>
<rscale>  0 0.69373129E+02</rscale>
<asrwt>0</asrwt>
<pdfrwt beam="1">  1        2 0.19320722E-02 0.94177518E+02</pdfrwt>
<pdfrwt beam="2">  1       -2 0.46506010E-01 0.94177518E+02</pdfrwt>
<totfact> 0.22478150E+04</totfact>
</mgrwt>
</event>
<event>
 6    1  0.1535419E-002  0.8897859E+02  0.7546771E-02  0.1427758E+00
         -4   -1    0    0    0  501 -0.00000000000E+00  0.00000000000E+00  0.29230782223E+03  0.29230782223E+03  0.00000000000E+00 0.  1.
          4   -1    0    0  501    0  0.00000000000E+00 -0.00000000000E+00 -0.91105159092E+01  0.91105159092E+01  0.00000000000E+00 0. -1.
         23    2    1    2    0    0  0.88188827142E+01  0.74642202608E+01  0.22251263592E+03  0.23964361436E+03  0.88225288227E+02 0.  0.
         11    1    3    3    0    0  0.34209691636E+02 -0.14389664238E+02  0.18768509104E+03  0.19131925893E+03  0.00000000000E+00 0.  1.
        -11    1    3    3    0    0 -0.25390808921E+02  0.21853884498E+02  0.34827544881E+02  0.48324355431E+02  0.00000000000E+00 0. -1.
         22    1    1    2    0    0 -0.88188827142E+01 -0.74642202608E+01  0.60684670398E+02  0.61774723777E+02  0.00000000000E+00 0. -1.
<mgrwt>
<rscale>  0 0.53412648E+02</rscale>
<asrwt>0</asrwt>
<pdfrwt beam="1">  1        4 0.14016181E-02 0.88978586E+02</pdfrwt>
<pdfrwt beam="2">  1       -4 0.44970427E-01 0.88978586E+02</pdfrwt>
<totfact> 0.12197475E+04</totfact>
</mgrwt>
</event>
<event>
 6    1  0.1535419E-002  0.9371634E+02  0.7546771E-02  0.1380400E+00
         -2   -1    0    0    0  501 -0.00000000000E+00  0.00000000000E+00  0.16588505820E+02  0.16588505820E+02  0.00000000000E+00 0.  1.
          2   -1    0    0  501    0  0.00000000000E+00 -0.00000000000E+00 -0.19925190956E+03  0.19925190956E+03  0.00000000000E+00 0. -1.
         23    2    1    2    0    0 -0.81400357069E+00 -0.20828309710E+02 -0.15615360276E+03  0.18211726850E+03  0.91368871864E+02 0.  0.
         13    1    3    3    0    0 -0.22130780857E+02 -0.10288377311E+02 -0.24607917013E+00  0.24406612300E+02  0.00000000000E+00 0.  1.
        -13    1    3    3    0    0  0.21316777286E+02 -0.10539932399E+02 -0.15590752359E+03  0.15771065620E+03  0.00000000000E+00 0. -1.
         22    1    1    2    0    0  0.81400357069E+00  0.20828309710E+02 -0.26509800985E+02  0.33723146880E+02  0.00000000000E+00 0.  1.
<mgrwt>
<rscale>  0 0.64358785E+02</rscale>
<asrwt>0</asrwt>
<pdfrwt beam="1">  1        2 0.30654141E-01 0.93716337E+02</pdfrwt>
<pdfrwt beam="2">  1       -2 0.25520777E-02 0.93716337E+02</pdfrwt>
<totfact> 0.79611863E+04</totfact>
</mgrwt>
</event>
<event>
 6    1  0.1535419E-002  0.8981907E+02  0.7546771E-02  0.1433532E+00
         -2   -1    0    0    0  501 -0.00000000000E+00  0.00000000000E+00  0.22944341142E+02  0.22944341142E+02  0.00000000000E+00 0.  1.
          2   -1    0    0  501    0  0.00000000000E+00 -0.00000000000E+00 -0.11047430943E+03  0.11047430943E+03  0.00000000000E+00 0. -1.
         23    2    1    2    0    0 -0.52940415728E+01 -0.88257396444E+01 -0.82523637205E+02  0.12197383046E+03  0.89227484908E+02 0.  0.
         13    1    3    3    0    0 -0.28869403291E+02 -0.32351339857E+02 -0.76779382842E+02  0.88176670761E+02  0.00000000000E+00 0. -1.
        -13    1    3    3    0    0  0.23575361718E+02  0.23525600213E+02 -0.57442543631E+01  0.33797159699E+02  0.00000000000E+00 0.  1.
         22    1    1    2    0    0  0.52940415728E+01  0.88257396444E+01 -0.50063310807E+01  0.11444820109E+02  0.00000000000E+00 0.  1.
<mgrwt>
<rscale>  0 0.52257537E+02</rscale>
<asrwt>0</asrwt>
<pdfrwt beam="1">  1        2 0.16996047E-01 0.89819066E+02</pdfrwt>
<pdfrwt beam="2">  1       -2 0.35298987E-02 0.89819066E+02</pdfrwt>
<totfact> 0.94496709E+04</totfact>
</mgrwt>
</event>
<event>
 6    1  0.1535419E-002  0.9743980E+02  0.7546771E-02  0.1348563E+00
          2   -1    0    0  501    0  0.00000000000E+00  0.00000000000E+00  0.55263794042E+03  0.55263794042E+03  0.00000000000E+00 0. -1.
         -2   -1    0    0    0  501 -0.00000000000E+00 -0.00000000000E+00 -0.76973965152E+01  0.76973965152E+01  0.00000000000E+00 0.  1.
         23    2    1    2    0    0 -0.13502696877E+02  0.28520069892E+02  0.37262506617E+03  0.38515445591E+03  0.92188924280E+02 0.  0.
         11    1    3    3    0    0 -0.20660194515E+02  0.36721926955E+02  0.65787605421E+02  0.78123956528E+02  0.00000000000E+00 0.  1.
        -11    1    3    3    0    0  0.71574976373E+01 -0.82018570622E+01  0.30683746075E+03  0.30703049939E+03  0.00000000000E+00 0. -1.
         22    1    1    2    0    0  0.13502696877E+02 -0.28520069892E+02  0.17231547773E+03  0.17518088102E+03  0.00000000000E+00 0. -1.
<mgrwt>
<rscale>  0 0.73505409E+02</rscale>
<asrwt>0</asrwt>
<pdfrwt beam="1">  1        2 0.85021191E-01 0.97439802E+02</pdfrwt>
<pdfrwt beam="2">  1       -2 0.11842153E-02 0.97439802E+02</pdfrwt>
<totfact> 0.81646419E+04</totfact>
</mgrwt>
</event>
<event>
 6    1  0.1535419E-002  0.1036967E+03  0.7546771E-02  0.1344217E+00
          2   -1    0    0  501    0  0.00000000000E+00  0.00000000000E+00  0.14723511396E+04  0.14723511396E+04  0.00000000000E+00 0. -1.
         -2   -1    0    0    0  501 -0.00000000000E+00 -0.00000000000E+00 -0.94633821797E+01  0.94633821797E+01  0.00000000000E+00 0.  1.
         23    2    1    2    0    0 -0.25074754577E+02  0.12919160072E+02  0.14443352736E+04  0.14480529657E+04  0.99786576280E+02 0.  0.
         13    1    3    3    0    0 -0.65349576889E+01 -0.25153404114E+02  0.10933497916E+03  0.11238121319E+03  0.00000000000E+00 0.  1.
        -13    1    3    3    0    0 -0.18539796888E+02  0.38072564186E+02  0.13350002945E+04  0.13356717525E+04  0.00000000000E+00 0. -1.
         22    1    1    2    0    0  0.25074754577E+02 -0.12919160072E+02  0.18552483787E+02  0.33761556077E+02  0.00000000000E+00 0.  1.
<mgrwt>
<rscale>  0 0.74888283E+02</rscale>
<asrwt>0</asrwt>
<pdfrwt beam="1">  1        2 0.22651538E+00 0.10369672E+03</pdfrwt>
<pdfrwt beam="2">  1       -2 0.14559061E-02 0.10369672E+03</pdfrwt>
<totfact> 0.16552116E+04</totfact>
</mgrwt>
</event>
<event>
 6    1  0.1535419E-002  0.9361749E+02  0.7546771E-02  0.1370871E+00
         -2   -1    0    0    0  501 -0.00000000000E+00  0.00000000000E+00  0.17704882839E+02  0.17704882839E+02  0.00000000000E+00 0.  1.
          2   -1    0    0  501    0  0.00000000000E+00 -0.00000000000E+00 -0.19798191604E+03  0.19798191604E+03  0.00000000000E+00 0. -1.
         23    2    1    2    0    0 -0.20250443053E+02  0.13703114760E+02 -0.14928353962E+03  0.17620955933E+03  0.90368013148E+02 0.  0.
         11    1    3    3    0    0 -0.29264658210E+02  0.48240397885E+02 -0.10622378068E+03  0.12027904136E+03  0.00000000000E+00 0.  1.
        -11    1    3    3    0    0  0.90142151575E+01 -0.34537283126E+02 -0.43059758933E+02  0.55930517966E+02  0.00000000000E+00 0. -1.
         22    1    1    2    0    0  0.20250443053E+02 -0.13703114760E+02 -0.30993493583E+02  0.39477239549E+02  0.00000000000E+00 0. -1.
<mgrwt>
<rscale>  0 0.66925602E+02</rscale>
<asrwt>0</asrwt>
<pdfrwt beam="1">  1        2 0.30458756E-01 0.93617486E+02</pdfrwt>
<pdfrwt beam="2">  1       -2 0.27238282E-02 0.93617486E+02</pdfrwt>
<totfact> 0.72928028E+04</totfact>
</mgrwt>
</event>
<event>
 6    1  0.1535419E-002  0.1202334E+03  0.7546771E-02  0.1269767E+00
          2   -1    0    0  501    0  0.00000000000E+00  0.00000000000E+00  0.12003127047E+04  0.12003127047E+04  0.00000000000E+00 0. -1.
         -2   -1    0    0    0  501 -0.00000000000E+00 -0.00000000000E+00 -0.21284349986E+02  0.21284349986E+02  0.00000000000E+00 0.  1.
         23    2    1    2    0    0  0.11500070088E+02 -0.69466095780E+02  0.11286084711E+04  0.11349947756E+04  0.97459066548E+02 0.  0.
         13    1    3    3    0    0  0.12979116536E+02 -0.79494487932E+02  0.51150628793E+03  0.51780934104E+03  0.00000000000E+00 0. -1.
        -13    1    3    3    0    0 -0.14790464479E+01  0.10028392151E+02  0.61710218313E+03  0.61718543458E+03  0.00000000000E+00 0.  1.
         22    1    1    2    0    0 -0.11500070088E+02  0.69466095780E+02  0.50419883691E+02  0.86602279106E+02  0.00000000000E+00 0.  1.
<mgrwt>
<rscale>  0 0.10517917E+03</rscale>
<asrwt>0</asrwt>
<pdfrwt beam="1">  1        2 0.18466344E+00 0.12023336E+03</pdfrwt>
<pdfrwt beam="2">  1       -2 0.32745163E-02 0.12023336E+03</pdfrwt>
<totfact> 0.71915475E+03</totfact>
</mgrwt>
</event>
<event>
 6    1  0.1535419E-002  0.9050080E+02  0.7546771E-02  0.1419939E+00
          4   -1    0    0  501    0  0.00000000000E+00  0.00000000000E+00  0.37204750813E+02  0.37204750813E+02  0.00000000000E+00 0. -1.
         -4   -1    0    0    0  501 -0.00000000000E+00 -0.00000000000E+00 -0.71915955579E+02  0.71915955579E+02  0.00000000000E+00 0.  1.
         23    2    1    2    0    0  0.11688150950E+02 -0.40668893809E+01 -0.26618904034E+02  0.94334300711E+02  0.89650665233E+02 0.  0.
         13    1    3    3    0    0  0.26845195716E+02  0.18804822242E+02 -0.48982370108E+02  0.58936902311E+02  0.00000000000E+00 0.  1.
        -13    1    3    3    0    0 -0.15157044766E+02 -0.22871711623E+02  0.22363466074E+02  0.35397398400E+02  0.00000000000E+00 0. -1.
         22    1    1    2    0    0 -0.11688150950E+02  0.40668893809E+01 -0.80923007317E+01  0.14786405682E+02  0.00000000000E+00 0. -1.
<mgrwt>
<rscale>  0 0.55033838E+02</rscale>
<asrwt>0</asrwt>
<pdfrwt beam="1">  1        4 0.57238079E-02 0.90500797E+02</pdfrwt>
<pdfrwt beam="2">  1       -4 0.11063993E-01 0.90500797E+02</pdfrwt>
<totfact> 0.17609996E+04</totfact>
</mgrwt>
</event>
<event>
 6    1  0.1535419E-002  0.2132895E+03  0.7546771E-02  0.1143174E+00
          2   -1    0    0  501    0  0.00000000000E+00  0.00000000000E+00  0.85165836103E+03  0.85165836103E+03  0.00000000000E+00 0. -1.
         -2   -1    0    0    0  501 -0.00000000000E+00 -0.00000000000E+00 -0.51773674726E+02  0.51773674726E+02  0.00000000000E+00 0.  1.
         23    2    1    2    0    0 -0.19244435884E+03  0.12309953350E+02  0.53365693870E+03  0.57470178191E+03  0.91137498905E+02 0.  0.
         13    1    3    3    0    0 -0.18195803576E+03  0.21247681882E+02  0.52952275285E+03  0.56031646107E+03  0.00000000000E+00 0. -1.
        -13    1    3    3    0    0 -0.10486323074E+02 -0.89377285317E+01  0.41341858515E+01  0.14385320837E+02  0.00000000000E+00 0.  1.
         22    1    1    2    0    0  0.19244435884E+03 -0.12309953350E+02  0.26622774760E+03  0.32873025384E+03  0.00000000000E+00 0.  1.
<mgrwt>
<rscale>  0 0.20798168E+03</rscale>
<asrwt>0</asrwt>
<pdfrwt beam="1">  1        2 0.13102435E+00 0.21328950E+03</pdfrwt>
<pdfrwt beam="2">  1       -2 0.79651813E-02 0.21328950E+03</pdfrwt>
<totfact> 0.30913745E+03</totfact>
</mgrwt>
</event>
<event>
 6    1  0.1535419E-002  0.9240372E+02  0.7546771E-02  0.1380853E+00
         -2   -1    0    0    0  501 -0.00000000000E+00  0.00000000000E+00  0.29025950381E+02  0.29025950381E+02  0.00000000000E+00 0.  1.
          2   -1    0    0  501    0  0.00000000000E+00 -0.00000000000E+00 -0.30155357510E+03  0.30155357510E+03  0.00000000000E+00 0. -1.
         23    2    1    2    0    0  0.15944258671E+02 -0.14549848526E+02 -0.28900901509E+03  0.30342158548E+03  0.89847260687E+02 0.  0.
         11    1    3    3    0    0  0.11139643342E+02 -0.17287902557E+01  0.25364283714E+01  0.11554818840E+02  0.00000000000E+00 0.  1.
        -11    1    3    3    0    0  0.48046153291E+01 -0.12821058270E+02 -0.29154544347E+03  0.29186676664E+03  0.00000000000E+00 0. -1.
         22    1    1    2    0    0 -0.15944258671E+02  0.14549848526E+02  0.16481390372E+02  0.27157940005E+02  0.00000000000E+00 0.  1.
<mgrwt>
<rscale>  0 0.64240028E+02</rscale>
<asrwt>0</asrwt>
<pdfrwt beam="1">  1        2 0.46392857E-01 0.92403721E+02</pdfrwt>
<pdfrwt beam="2">  1       -2 0.44655309E-02 0.92403721E+02</pdfrwt>
<totfact> 0.22663297E+04</totfact>
</mgrwt>
</event>
<event>
 6    1  0.1535419E-002  0.1259094E+03  0.7546771E-02  0.1251462E+00
          2   -1    0    0  501    0  0.00000000000E+00  0.00000000000E+00  0.20183104766E+02  0.20183104766E+02  0.00000000000E+00 0. -1.
         -2   -1    0    0    0  501 -0.00000000000E+00 -0.00000000000E+00 -0.67778584211E+03  0.67778584211E+03  0.00000000000E+00 0.  1.
         23    2    1    2    0    0  0.81407024210E+02  0.32971204853E+02 -0.51762010454E+03  0.53271356444E+03  0.90216213430E+02 0.  0.
         11    1    3    3    0    0  0.40749807784E+02 -0.16627848948E+02 -0.88630548924E+02  0.98956588450E+02  0.00000000000E+00 0. -1.
        -11    1    3    3    0    0  0.40657216426E+02  0.49599053800E+02 -0.42898955562E+03  0.43375697599E+03  0.00000000000E+00 0.  1.
         22    1    1    2    0    0 -0.81407024210E+02 -0.32971204853E+02 -0.13998263280E+03  0.16525538244E+03  0.00000000000E+00 0. -1.
<mgrwt>
<rscale>  0 0.11506810E+03</rscale>
<asrwt>0</asrwt>
<pdfrwt beam="1">  1        2 0.31050927E-02 0.12590937E+03</pdfrwt>
<pdfrwt beam="2">  1       -2 0.10427476E+00 0.12590937E+03</pdfrwt>
<totfact> 0.22121133E+03</totfact>
</mgrwt>
</event>
<event>
 6    1  0.1535419E-002  0.1150844E+03  0.7546771E-02  0.1276598E+00
         -2   -1    0    0    0  501 -0.00000000000E+00  0.00000000000E+00  0.51772017871E+01  0.51772017871E+01  0.00000000000E+00 0.  1.
          2   -1    0    0  501    0  0.00000000000E+00 -0.00000000000E+00 -0.26244933786E+04  0.26244933786E+04  0.00000000000E+00 0. -1.
         23    2    1    2    0    0 -0.70314349749E+02 -0.35230884596E+01 -0.22911016985E+04  0.22939902805E+04  0.91037873414E+02 0.  0.
         13    1    3    3    0    0 -0.61453284372E+02  0.18615246458E+02 -0.76140159010E+03  0.76410432205E+03  0.00000000000E+00 0.  1.
        -13    1    3    3    0    0 -0.88610653769E+01 -0.22138334918E+02 -0.15297001084E+04  0.15298859585E+04  0.00000000000E+00 0. -1.
         22    1    1    2    0    0  0.70314349749E+02  0.35230884596E+01 -0.32821447829E+03  0.33568029983E+03  0.00000000000E+00 0.  1.
<mgrwt>
<rscale>  0 0.10177928E+03</rscale>
<asrwt>0</asrwt>
<pdfrwt beam="1">  1        2 0.40376866E+00 0.11508438E+03</pdfrwt>
<pdfrwt beam="2">  1       -2 0.79649169E-03 0.11508438E+03</pdfrwt>
<totfact> 0.10029464E+04</totfact>
</mgrwt>
</event>
<event>
 6    1  0.1535419E-002  0.8964909E+02  0.7546771E-02  0.1372794E+00
          2   -1    0    0  501    0  0.00000000000E+00  0.00000000000E+00  0.28025717020E+02  0.28025717020E+02  0.00000000000E+00 0. -1.
         -2   -1    0    0    0  501 -0.00000000000E+00 -0.00000000000E+00 -0.19387994800E+03  0.19387994800E+03  0.00000000000E+00 0.  1.
         23    2    1    2    0    0 -0.26961138870E+02  0.83668110379E+00 -0.49380703933E+02  0.10234946256E+03  0.85494768965E+02 0.  0.
         11    1    3    3    0    0 -0.54064042178E+02  0.13613793854E-01 -0.52120011174E+02  0.75096047877E+02  0.00000000000E+00 0.  1.
        -11    1    3    3    0    0  0.27102903309E+02  0.82306730994E+00  0.27393072408E+01  0.27253414680E+02  0.00000000000E+00 0. -1.
         22    1    1    2    0    0  0.26961138870E+02 -0.83668110379E+00 -0.11647352704E+03  0.11955620246E+03  0.00000000000E+00 0. -1.
<mgrwt>
<rscale>  0 0.66396657E+02</rscale>
<asrwt>0</asrwt>
<pdfrwt beam="1">  1        2 0.43116486E-02 0.89649086E+02</pdfrwt>
<pdfrwt beam="2">  1       -2 0.29827686E-01 0.89649086E+02</pdfrwt>
<totfact> 0.17506330E+04</totfact>
</mgrwt>
</event>
<event>
 6    1  0.1535419E-002  0.9458494E+02  0.7546771E-02  0.1421432E+00
          2   -1    0    0  501    0  0.00000000000E+00  0.00000000000E+00  0.17847829733E+04  0.17847829733E+04  0.00000000000E+00 0. -1.
         -2   -1    0    0    0  501 -0.00000000000E+00 -0.00000000000E+00 -0.22053106173E+01  0.22053106173E+01  0.00000000000E+00 0.  1.
         23    2    1    2    0    0 -0.61767058434E+01  0.86080089172E+01  0.17533543817E+04  0.17559037272E+04  0.93989690869E+02 0.  0.
         11    1    3    3    0    0  0.41348640283E+02  0.89468936695E+00  0.11002386650E+04  0.11010157267E+04  0.00000000000E+00 0. -1.
        -11    1    3    3    0    0 -0.47525346126E+02  0.77133195503E+01  0.65311571666E+03  0.65488800048E+03  0.00000000000E+00 0.  1.
         22    1    1    2    0    0  0.61767058434E+01 -0.86080089172E+01  0.29223280998E+02  0.31084556694E+02  0.00000000000E+00 0. -1.
<mgrwt>
<rscale>  0 0.54719178E+02</rscale>
<asrwt>0</asrwt>
<pdfrwt beam="1">  1        2 0.27458084E+00 0.94584943E+02</pdfrwt>
<pdfrwt beam="2">  1       -2 0.33927998E-03 0.94584943E+02</pdfrwt>
<totfact> 0.89117016E+04</totfact>
</mgrwt>
</event>
<event>
 6    1  0.1535419E-002  0.9404036E+02  0.7546771E-02  0.1395172E+00
         -2   -1    0    0    0  501 -0.00000000000E+00  0.00000000000E+00  0.67626910441E+01  0.67626910441E+01  0.00000000000E+00 0. -1.
          2   -1    0    0  501    0  0.00000000000E+00 -0.00000000000E+00 -0.45053106526E+03  0.45053106526E+03  0.00000000000E+00 0.  1.
         23    2    1    2    0    0 -0.15438709229E+02 -0.50934310660E+01 -0.38492109088E+03  0.39624214258E+03  0.92624470670E+02 0.  0.
         13    1    3    3    0    0 -0.23585810589E+02 -0.50658083979E+01 -0.38706628553E+03  0.38781730527E+03  0.00000000000E+00 0.  1.
        -13    1    3    3    0    0  0.81471013602E+01 -0.27622668177E-01  0.21451946456E+01  0.84248373072E+01  0.00000000000E+00 0. -1.
         22    1    1    2    0    0  0.15438709229E+02  0.50934310660E+01 -0.58847283331E+02  0.61051613722E+02  0.00000000000E+00 0. -1.
<mgrwt>
<rscale>  0 0.60638325E+02</rscale>
<asrwt>0</asrwt>
<pdfrwt beam="1">  1        2 0.69312487E-01 0.94040360E+02</pdfrwt>
<pdfrwt beam="2">  1       -2 0.10404138E-02 0.94040360E+02</pdfrwt>
<totfact> 0.12181954E+05</totfact>
</mgrwt>
</event>
<event>
 6    1  0.1535419E-002  0.9489185E+02  0.7546771E-02  0.1367027E+00
         -2   -1    0    0    0  501 -0.00000000000E+00  0.00000000000E+00  0.11890516602E+03  0.11890516602E+03  0.00000000000E+00 0.  1.
          2   -1    0    0  501    0  0.00000000000E+00 -0.00000000000E+00 -0.11253516728E+03  0.11253516728E+03  0.00000000000E+00 0. -1.
         23    2    1    2    0    0 -0.21788481275E+02 -0.12308085497E+02 -0.90657720591E+02  0.13123751296E+03  0.91532702465E+02 0.  0.
         11    1    3    3    0    0 -0.42838054041E+02  0.24847631615E+02 -0.63897047844E+02  0.80841427462E+02  0.00000000000E+00 0. -1.
        -11    1    3    3    0    0  0.21049572766E+02 -0.37155717112E+02 -0.26760672747E+02  0.50396085499E+02  0.00000000000E+00 0.  1.
         22    1    1    2    0    0  0.21788481275E+02  0.12308085497E+02  0.97027719334E+02  0.10020282034E+03  0.00000000000E+00 0.  1.
<mgrwt>
<rscale>  0 0.68000661E+02</rscale>
<asrwt>0</asrwt>
<pdfrwt beam="1">  1        2 0.17313103E-01 0.94891846E+02</pdfrwt>
<pdfrwt beam="2">  1       -2 0.18293102E-01 0.94891846E+02</pdfrwt>
<totfact> 0.73962077E+03</totfact>
</mgrwt>
</event>
<event>
 6    1  0.1535419E-002  0.9285657E+02  0.7546771E-02  0.1398977E+00
          1   -1    0    0  501    0  0.00000000000E+00  0.00000000000E+00  0.61149547172E+03  0.61149547172E+03  0.00000000000E+00 0. -1.
         -1   -1    0    0    0  501 -0.00000000000E+00 -0.00000000000E+00 -0.61648274979E+01  0.61648274979E+01  0.00000000000E+00 0.  1.
         23    2    1    2    0    0 -0.10596262105E+02 -0.11848345095E+02  0.58241871463E+03  0.58977445030E+03  0.91485949897E+02 0.  0.
         11    1    3    3    0    0  0.32056997427E+02 -0.27830062261E+02  0.37606154471E+03  0.37845006125E+03  0.00000000000E+00 0. -1.
        -11    1    3    3    0    0 -0.42653259532E+02  0.15981717166E+02  0.20635716991E+03  0.21132438905E+03  0.00000000000E+00 0.  1.
         22    1    1    2    0    0  0.10596262105E+02  0.11848345095E+02  0.22911929601E+02  0.27885848923E+02  0.00000000000E+00 0.  1.
<mgrwt>
<rscale>  0 0.59727924E+02</rscale>
<asrwt>0</asrwt>
<pdfrwt beam="1">  1        1 0.94076179E-01 0.92856573E+02</pdfrwt>
<pdfrwt beam="2">  1       -1 0.94843548E-03 0.92856573E+02</pdfrwt>
<totfact> 0.61560606E+04</totfact>
</mgrwt>
</event>
<event>
 6    1  0.1535419E-002  0.1055591E+03  0.7546771E-02  0.1302901E+00
         -2   -1    0    0    0  501 -0.00000000000E+00  0.00000000000E+00  0.47325471737E+02  0.47325471737E+02  0.00000000000E+00 0.  1.
          2   -1    0    0  501    0  0.00000000000E+00 -0.00000000000E+00 -0.10520032272E+04  0.10520032272E+04  0.00000000000E+00 0. -1.
         23    2    1    2    0    0 -0.51124037508E+02  0.22184671381E+02 -0.10319142434E+04  0.10372992453E+04  0.89648712558E+02 0.  0.
         13    1    3    3    0    0 -0.65074904596E+02  0.52412180253E+01 -0.95731027163E+03  0.95953382939E+03  0.00000000000E+00 0. -1.
        -13    1    3    3    0    0  0.13950867088E+02  0.16943453356E+02 -0.74603971766E+02  0.77765415883E+02  0.00000000000E+00 0.  1.
         22    1    1    2    0    0  0.51124037508E+02 -0.22184671381E+02  0.27236487886E+02  0.62029453711E+02  0.00000000000E+00 0.  1.
<mgrwt>
<rscale>  0 0.89979555E+02</rscale>
<asrwt>0</asrwt>
<pdfrwt beam="1">  1        2 0.16184664E+00 0.10555908E+03</pdfrwt>
<pdfrwt beam="2">  1       -2 0.72808425E-02 0.10555908E+03</pdfrwt>
<totfact> 0.26292649E+03</totfact>
</mgrwt>
</event>
<event>
 6    1  0.1535419E-002  0.9229806E+02  0.7546771E-02  0.1428456E+00
          2   -1    0    0  501    0  0.00000000000E+00  0.00000000000E+00  0.55871526853E+03  0.55871526853E+03  0.00000000000E+00 0.  1.
         -2   -1    0    0    0  501 -0.00000000000E+00 -0.00000000000E+00 -0.71876468419E+01  0.71876468419E+01  0.00000000000E+00 0. -1.
         23    2    1    2    0    0 -0.98693223719E+01  0.27383579327E+01  0.54695228688E+03  0.55468525889E+03  0.91728022877E+02 0.  0.
         13    1    3    3    0    0 -0.13987706656E+02 -0.13632251128E+02  0.53131775247E+03  0.53167663885E+03  0.00000000000E+00 0.  1.
        -13    1    3    3    0    0  0.41183842836E+01  0.16370609060E+02  0.15634534413E+02  0.23008620046E+02  0.00000000000E+00 0. -1.
         22    1    1    2    0    0  0.98693223719E+01 -0.27383579327E+01  0.45753348051E+01  0.11217656477E+02  0.00000000000E+00 0. -1.
<mgrwt>
<rscale>  0 0.53271199E+02</rscale>
<asrwt>0</asrwt>
<pdfrwt beam="1">  1        2 0.85956161E-01 0.92298062E+02</pdfrwt>
<pdfrwt beam="2">  1       -2 0.11057923E-02 0.92298062E+02</pdfrwt>
<totfact> 0.88264299E+04</totfact>
</mgrwt>
</event>
<event>
 6    1  0.1535419E-002  0.9249756E+02  0.7546771E-02  0.1426702E+00
          2   -1    0    0  501    0  0.00000000000E+00  0.00000000000E+00  0.59124806350E+03  0.59124806350E+03  0.00000000000E+00 0. -1.
         -2   -1    0    0    0  501 -0.00000000000E+00 -0.00000000000E+00 -0.44816005049E+01  0.44816005049E+01  0.00000000000E+00 0.  1.
         23    2    1    2    0    0  0.28368424842E+01  0.10058910957E+02  0.52840463326E+03  0.53643942421E+03  0.91905223089E+02 0.  0.
         11    1    3    3    0    0 -0.20509818919E+02  0.34062833592E+02  0.44181859018E+03  0.44360409819E+03  0.00000000000E+00 0. -1.
        -11    1    3    3    0    0  0.23346661404E+02 -0.24003922634E+02  0.86586043080E+02  0.92835326017E+02  0.00000000000E+00 0.  1.
         22    1    1    2    0    0 -0.28368424842E+01 -0.10058910957E+02  0.58361829737E+02  0.59290239797E+02  0.00000000000E+00 0.  1.
<mgrwt>
<rscale>  0 0.53627821E+02</rscale>
<asrwt>0</asrwt>
<pdfrwt beam="1">  1        2 0.90961179E-01 0.92497564E+02</pdfrwt>
<pdfrwt beam="2">  1       -2 0.68947747E-03 0.92497564E+02</pdfrwt>
<totfact> 0.16164388E+05</totfact>
</mgrwt>
</event>
<event>
 6    1  0.1535419E-002  0.9209258E+02  0.7546771E-02  0.1406796E+00
          2   -1    0    0  501    0  0.00000000000E+00  0.00000000000E+00  0.13825725419E+03  0.13825725419E+03  0.00000000000E+00 0. -1.
         -2   -1    0    0    0  501 -0.00000000000E+00 -0.00000000000E+00 -0.21037139124E+02  0.21037139124E+02  0.00000000000E+00 0.  1.
         23    2    1    2    0    0  0.11300893650E+02  0.89314528823E+01  0.10905228682E+03  0.14273557493E+03  0.90959122924E+02 0.  0.
         13    1    3    3    0    0  0.21744439100E+02  0.19939167129E+02  0.12028916059E+03  0.12385424165E+03  0.00000000000E+00 0. -1.
        -13    1    3    3    0    0 -0.10443545450E+02 -0.11007714246E+02 -0.11236873774E+02  0.18881333287E+02  0.00000000000E+00 0.  1.
         22    1    1    2    0    0 -0.11300893650E+02 -0.89314528823E+01  0.81678282465E+01  0.16558818380E+02  0.00000000000E+00 0.  1.
<mgrwt>
<rscale>  0 0.57914963E+02</rscale>
<asrwt>0</asrwt>
<pdfrwt beam="1">  1        2 0.21270346E-01 0.92092579E+02</pdfrwt>
<pdfrwt beam="2">  1       -2 0.32364830E-02 0.92092579E+02</pdfrwt>
<totfact> 0.83681395E+04</totfact>
</mgrwt>
</event>
<event>
 6    1  0.1535419E-002  0.9353213E+02  0.7546771E-02  0.1392020E+00
          1   -1    0    0  501    0  0.00000000000E+00  0.00000000000E+00  0.23780888900E+03  0.23780888900E+03  0.00000000000E+00 0. -1.
         -1   -1    0    0    0  501 -0.00000000000E+00 -0.00000000000E+00 -0.15332389298E+02  0.15332389298E+02  0.00000000000E+00 0.  1.
         23    2    1    2    0    0 -0.88936702044E+01  0.14929211241E+02  0.21453031606E+03  0.23403315038E+03  0.91903646563E+02 0.  0.
         11    1    3    3    0    0 -0.48759205970E+02 -0.36589299403E+01  0.12660651435E+03  0.13572051212E+03  0.00000000000E+00 0.  1.
        -11    1    3    3    0    0  0.39865535766E+02  0.18588141181E+02  0.87923801709E+02  0.98312638259E+02  0.00000000000E+00 0. -1.
         22    1    1    2    0    0  0.88936702044E+01 -0.14929211241E+02  0.79461836452E+01  0.19108127917E+02  0.00000000000E+00 0. -1.
<mgrwt>
<rscale>  0 0.61406968E+02</rscale>
<asrwt>0</asrwt>
<pdfrwt beam="1">  1        1 0.36585980E-01 0.93532128E+02</pdfrwt>
<pdfrwt beam="2">  1       -1 0.23588293E-02 0.93532128E+02</pdfrwt>
<totfact> 0.55194296E+04</totfact>
</mgrwt>
</event>
<event>
 6    1  0.1535419E-002  0.1023611E+03  0.7546771E-02  0.1320730E+00
          2   -1    0    0  501    0  0.00000000000E+00  0.00000000000E+00  0.52512591690E+02  0.52512591690E+02  0.00000000000E+00 0. -1.
         -2   -1    0    0    0  501 -0.00000000000E+00 -0.00000000000E+00 -0.10235097649E+03  0.10235097649E+03  0.00000000000E+00 0.  1.
         23    2    1    2    0    0 -0.33832208403E+02  0.28541538876E+02 -0.34605575061E+02  0.10805249834E+03  0.92296038948E+02 0.  0.
         11    1    3    3    0    0 -0.25803747698E+01  0.45201874827E+02  0.14470952687E+02  0.47531845046E+02  0.00000000000E+00 0. -1.
        -11    1    3    3    0    0 -0.31251833633E+02 -0.16660335950E+02 -0.49076527748E+02  0.60520653294E+02  0.00000000000E+00 0.  1.
         22    1    1    2    0    0  0.33832208403E+02 -0.28541538876E+02 -0.15232809735E+02  0.46811069837E+02  0.00000000000E+00 0. -1.
<mgrwt>
<rscale>  0 0.83006505E+02</rscale>
<asrwt>0</asrwt>
<pdfrwt beam="1">  1        2 0.80788602E-02 0.10236111E+03</pdfrwt>
<pdfrwt beam="2">  1       -2 0.15746304E-01 0.10236111E+03</pdfrwt>
<totfact> 0.23654062E+04</totfact>
</mgrwt>
</event>
<event>
 6    1  0.1535419E-002  0.9366266E+02  0.7546771E-02  0.1408518E+00
         -2   -1    0    0    0  501 -0.00000000000E+00  0.00000000000E+00  0.81850579399E+01  0.81850579399E+01  0.00000000000E+00 0.  1.
          2   -1    0    0  501    0  0.00000000000E+00 -0.00000000000E+00 -0.40874603618E+03  0.40874603618E+03  0.00000000000E+00 0. -1.
         23    2    1    2    0    0 -0.91155159387E+00 -0.13296480399E+02 -0.38595926003E+03  0.39716148380E+03  0.92709581478E+02 0.  0.
         13    1    3    3    0    0  0.14110248054E+01  0.16210724516E+02 -0.81579071446E+01  0.18202473165E+02  0.00000000000E+00 0.  1.
        -13    1    3    3    0    0 -0.23225763993E+01 -0.29507204916E+02 -0.37780135288E+03  0.37895901064E+03  0.00000000000E+00 0. -1.
         22    1    1    2    0    0  0.91155159387E+00  0.13296480399E+02 -0.14601718210E+02  0.19769610315E+02  0.00000000000E+00 0.  1.
<mgrwt>
<rscale>  0 0.57525921E+02</rscale>
<asrwt>0</asrwt>
<pdfrwt beam="1">  1        2 0.62883985E-01 0.93662660E+02</pdfrwt>
<pdfrwt beam="2">  1       -2 0.12592401E-02 0.93662660E+02</pdfrwt>
<totfact> 0.10293888E+05</totfact>
</mgrwt>
</event>
<event>
 6    1  0.1535419E-002  0.8966413E+02  0.7546771E-02  0.1421632E+00
         -1   -1    0    0    0  501 -0.00000000000E+00  0.00000000000E+00  0.20939163963E+03  0.20939163963E+03  0.00000000000E+00 0.  1.
          1   -1    0    0  501    0  0.00000000000E+00 -0.00000000000E+00 -0.13046205045E+02  0.13046205045E+02  0.00000000000E+00 0. -1.
         23    2    1    2    0    0  0.87117568096E+01  0.88218656103E+01  0.15283444788E+03  0.17719487855E+03  0.88802795601E+02 0.  0.
         11    1    3    3    0    0 -0.97130508124E+01  0.20475680899E+02  0.15371445515E+03  0.15537609400E+03  0.00000000000E+00 0.  1.
        -11    1    3    3    0    0  0.18424807622E+02 -0.11653815289E+02 -0.88000726643E+00  0.21818784556E+02  0.00000000000E+00 0. -1.
         22    1    1    2    0    0 -0.87117568096E+01 -0.88218656103E+01  0.43510986705E+02  0.45242966123E+02  0.00000000000E+00 0.  1.
<mgrwt>
<rscale>  0 0.54677086E+02</rscale>
<asrwt>0</asrwt>
<pdfrwt beam="1">  1        1 0.20071086E-02 0.89664132E+02</pdfrwt>
<pdfrwt beam="2">  1       -1 0.32214096E-01 0.89664132E+02</pdfrwt>
<totfact> 0.46853938E+04</totfact>
</mgrwt>
</event>
<event>
 6    1  0.1535419E-002  0.9180354E+02  0.7546771E-02  0.1419675E+00
         -2   -1    0    0    0  501 -0.00000000000E+00  0.00000000000E+00  0.40495654493E+01  0.40495654493E+01  0.00000000000E+00 0.  1.
          2   -1    0    0  501    0  0.00000000000E+00 -0.00000000000E+00 -0.66705871927E+03  0.66705871927E+03  0.00000000000E+00 0. -1.
         23    2    1    2    0    0 -0.15779054150E+01 -0.11799322949E+02 -0.60030678215E+03  0.60728586530E+03  0.91028433408E+02 0.  0.
         11    1    3    3    0    0  0.39813680445E+02 -0.25001396797E+02 -0.36338617096E+03  0.36641466706E+03  0.00000000000E+00 0. -1.
        -11    1    3    3    0    0 -0.41391585860E+02  0.13202073847E+02 -0.23692061119E+03  0.24087119824E+03  0.00000000000E+00 0.  1.
         22    1    1    2    0    0  0.15779054150E+01  0.11799322949E+02 -0.62702371671E+02  0.63822419421E+02  0.00000000000E+00 0. -1.
<mgrwt>
<rscale>  0 0.55089786E+02</rscale>
<asrwt>0</asrwt>
<pdfrwt beam="1">  1        2 0.10262440E+00 0.91803537E+02</pdfrwt>
<pdfrwt beam="2">  1       -2 0.62301017E-03 0.91803537E+02</pdfrwt>
<totfact> 0.16242497E+05</totfact>
</mgrwt>
</event>
<event>
 6    1  0.1535419E-002  0.9234111E+02  0.7546771E-02  0.1388424E+00
         -2   -1    0    0    0  501 -0.00000000000E+00  0.00000000000E+00  0.21131581205E+02  0.21131581205E+02  0.00000000000E+00 0.  1.
          2   -1    0    0  501    0  0.00000000000E+00 -0.00000000000E+00 -0.25582179131E+03  0.25582179131E+03  0.00000000000E+00 0. -1.
         23    2    1    2    0    0 -0.15400875682E+02  0.11352577894E+02 -0.23995487763E+03  0.25710936282E+03  0.90337219117E+02 0.  0.
         11    1    3    3    0    0  0.29816903459E+02  0.30965955847E+02 -0.11661596935E+03  0.12428685555E+03  0.00000000000E+00 0. -1.
        -11    1    3    3    0    0 -0.45217779141E+02 -0.19613377952E+02 -0.12333890827E+03  0.13282250728E+03  0.00000000000E+00 0.  1.
         22    1    1    2    0    0  0.15400875682E+02 -0.11352577894E+02  0.52646675208E+01  0.19844009694E+02  0.00000000000E+00 0.  1.
<mgrwt>
<rscale>  0 0.62300502E+02</rscale>
<asrwt>0</asrwt>
<pdfrwt beam="1">  1        2 0.39357196E-01 0.92341113E+02</pdfrwt>
<pdfrwt beam="2">  1       -2 0.32510127E-02 0.92341113E+02</pdfrwt>
<totfact> 0.42897944E+04</totfact>
</mgrwt>
</event>
<event>
 6    1  0.1535419E-002  0.9439796E+02  0.7546771E-02  0.1418542E+00
          2   -1    0    0  501    0  0.00000000000E+00  0.00000000000E+00  0.66329350710E+03  0.66329350710E+03  0.00000000000E+00 0. -1.
         -2   -1    0    0    0  501 -0.00000000000E+00 -0.00000000000E+00 -0.53250909556E+01  0.53250909556E+01  0.00000000000E+00 0.  1.
         23    2    1    2    0    0 -0.33775554813E+01  0.10618067340E+02  0.64334665035E+03  0.65023525587E+03  0.93738061753E+02 0.  0.
         13    1    3    3    0    0 -0.37452837977E+02 -0.11651277649E+02  0.49033820158E+03  0.49190448186E+03  0.00000000000E+00 0. -1.
        -13    1    3    3    0    0  0.34075282495E+02  0.22269344989E+02  0.15300844877E+03  0.15833077401E+03  0.00000000000E+00 0.  1.
         22    1    1    2    0    0  0.33775554813E+01 -0.10618067340E+02  0.14621765793E+02  0.18383342187E+02  0.00000000000E+00 0.  1.
<mgrwt>
<rscale>  0 0.55330660E+02</rscale>
<asrwt>0</asrwt>
<pdfrwt beam="1">  1        2 0.10204509E+00 0.94397963E+02</pdfrwt>
<pdfrwt beam="2">  1       -2 0.81924529E-03 0.94397963E+02</pdfrwt>
<totfact> 0.11160621E+05</totfact>
</mgrwt>
</event>
<event>
 6    1  0.1535419E-002  0.9518824E+02  0.7546771E-02  0.1415701E+00
          2   -1    0    0  501    0  0.00000000000E+00  0.00000000000E+00  0.54215620654E+01  0.54215620654E+01  0.00000000000E+00 0. -1.
         -2   -1    0    0    0  501 -0.00000000000E+00 -0.00000000000E+00 -0.52363953807E+03  0.52363953807E+03  0.00000000000E+00 0.  1.
         23    2    1    2    0    0 -0.39584501355E+01  0.10642135857E+02 -0.46613450098E+03  0.47575432051E+03  0.94508603312E+02 0.  0.
         13    1    3    3    0    0 -0.14212004517E+02 -0.40554324330E+02 -0.20869057901E+03  0.21306898428E+03  0.00000000000E+00 0. -1.
        -13    1    3    3    0    0  0.10253554381E+02  0.51196460186E+02 -0.25744392197E+03  0.26268533623E+03  0.00000000000E+00 0.  1.
         22    1    1    2    0    0  0.39584501355E+01 -0.10642135857E+02 -0.52083475027E+02  0.53306779625E+02  0.00000000000E+00 0. -1.
<mgrwt>
<rscale>  0 0.55940887E+02</rscale>
<asrwt>0</asrwt>
<pdfrwt beam="1">  1        2 0.83408630E-03 0.95188237E+02</pdfrwt>
<pdfrwt beam="2">  1       -2 0.80559945E-01 0.95188237E+02</pdfrwt>
<totfact> 0.22947113E+04</totfact>
</mgrwt>
</event>
<event>
 6    1  0.1535419E-002  0.9495750E+02  0.7546771E-02  0.1359966E+00
         -2   -1    0    0    0  501 -0.00000000000E+00  0.00000000000E+00  0.38997230464E+02  0.38997230464E+02  0.00000000000E+00 0.  1.
          2   -1    0    0  501    0  0.00000000000E+00 -0.00000000000E+00 -0.13882928609E+03  0.13882928609E+03  0.00000000000E+00 0. -1.
         23    2    1    2    0    0 -0.28052270772E+02  0.16643898141E+01 -0.11231529262E+03  0.14707702396E+03  0.90704056869E+02 0.  0.
         13    1    3    3    0    0 -0.12974836858E+02  0.24137834352E+02  0.39646794028E+01  0.27689350326E+02  0.00000000000E+00 0.  1.
        -13    1    3    3    0    0 -0.15077433914E+02 -0.22473444538E+02 -0.11627997202E+03  0.11938767363E+03  0.00000000000E+00 0. -1.
         22    1    1    2    0    0  0.28052270772E+02 -0.16643898141E+01  0.12483236992E+02  0.30749492593E+02  0.00000000000E+00 0. -1.
<mgrwt>
<rscale>  0 0.70037351E+02</rscale>
<asrwt>0</asrwt>
<pdfrwt beam="1">  1        2 0.21358352E-01 0.94957496E+02</pdfrwt>
<pdfrwt beam="2">  1       -2 0.59995738E-02 0.94957496E+02</pdfrwt>
<totfact> 0.33581106E+04</totfact>
</mgrwt>
</event>
<event>
 6    1  0.1535419E-002  0.9368839E+02  0.7546771E-02  0.1395638E+00
         -2   -1    0    0    0  501 -0.00000000000E+00  0.00000000000E+00  0.12017807352E+03  0.12017807352E+03  0.00000000000E+00 0.  1.
          2   -1    0    0  501    0  0.00000000000E+00 -0.00000000000E+00 -0.27662893638E+02  0.27662893638E+02  0.00000000000E+00 0. -1.
         23    2    1    2    0    0 -0.26908984483E+01  0.16096212926E+02  0.59424778419E+02  0.11094511815E+03  0.92256088938E+02 0.  0.
         13    1    3    3    0    0 -0.78808546747E+01  0.52474913023E+02  0.19119503207E+02  0.56402834770E+02  0.00000000000E+00 0. -1.
        -13    1    3    3    0    0  0.51899562264E+01 -0.36378700097E+02  0.40305275212E+02  0.54542283380E+02  0.00000000000E+00 0.  1.
         22    1    1    2    0    0  0.26908984483E+01 -0.16096212926E+02  0.33090401458E+02  0.36895849003E+02  0.00000000000E+00 0.  1.
<mgrwt>
<rscale>  0 0.60525955E+02</rscale>
<asrwt>0</asrwt>
<pdfrwt beam="1">  1        2 0.42558299E-02 0.93688393E+02</pdfrwt>
<pdfrwt beam="2">  1       -2 0.18488934E-01 0.93688393E+02</pdfrwt>
<totfact> 0.40695448E+04</totfact>
</mgrwt>
</event>
<event>
 6    1  0.1535419E-002  0.8701637E+02  0.7546771E-02  0.1424404E+00
         -1   -1    0    0    0  501 -0.00000000000E+00  0.00000000000E+00  0.14744887292E+03  0.14744887292E+03  0.00000000000E+00 0.  1.
          1   -1    0    0  501    0  0.00000000000E+00 -0.00000000000E+00 -0.19617494072E+02  0.19617494072E+02  0.00000000000E+00 0. -1.
         23    2    1    2    0    0 -0.97133794244E+01  0.86418094381E+01  0.82504657599E+02  0.11991191578E+03  0.86039632784E+02 0.  0.
         13    1    3    3    0    0  0.33784894967E+01  0.60357114247E+01 -0.17605591677E+02  0.18915624811E+02  0.00000000000E+00 0. -1.
        -13    1    3    3    0    0 -0.13091868921E+02  0.26060980134E+01  0.10011024928E+03  0.10099629097E+03  0.00000000000E+00 0.  1.
         22    1    1    2    0    0  0.97133794244E+01 -0.86418094381E+01  0.45326721251E+02  0.47154451217E+02  0.00000000000E+00 0. -1.
<mgrwt>
<rscale>  0 0.54099892E+02</rscale>
<asrwt>0</asrwt>
<pdfrwt beam="1">  1        1 0.30180761E-02 0.87016372E+02</pdfrwt>
<pdfrwt beam="2">  1       -1 0.22684441E-01 0.87016372E+02</pdfrwt>
<totfact> 0.47359993E+04</totfact>
</mgrwt>
</event>
<event>
 6    1  0.1535419E-002  0.9551858E+02  0.7546771E-02  0.1374854E+00
          1   -1    0    0  501    0  0.00000000000E+00  0.00000000000E+00  0.84094567046E+02  0.84094567046E+02  0.00000000000E+00 0. -1.
         -1   -1    0    0    0  501 -0.00000000000E+00 -0.00000000000E+00 -0.40781841396E+02  0.40781841396E+02  0.00000000000E+00 0.  1.
         23    2    1    2    0    0  0.18595866332E+02  0.10904517995E+02  0.36720374582E+02  0.10233369676E+03  0.93054203697E+02 0.  0.
         13    1    3    3    0    0 -0.24781212725E+02 -0.20765684572E+02 -0.69996212360E+01  0.33080460355E+02  0.00000000000E+00 0.  1.
        -13    1    3    3    0    0  0.43377079058E+02  0.31670202567E+02  0.43719995818E+02  0.69253236405E+02  0.00000000000E+00 0. -1.
         22    1    1    2    0    0 -0.18595866332E+02 -0.10904517995E+02  0.65923510686E+01  0.22542711682E+02  0.00000000000E+00 0.  1.
<mgrwt>
<rscale>  0 0.65836117E+02</rscale>
<asrwt>0</asrwt>
<pdfrwt beam="1">  1        1 0.12937626E-01 0.95518582E+02</pdfrwt>
<pdfrwt beam="2">  1       -1 0.62741295E-02 0.95518582E+02</pdfrwt>
<totfact> 0.49121561E+04</totfact>
</mgrwt>
</event>
<event>
 6    1  0.1535419E-002  0.9145264E+02  0.7546771E-02  0.1417973E+00
         -2   -1    0    0    0  501 -0.00000000000E+00  0.00000000000E+00  0.13072007060E+02  0.13072007060E+02  0.00000000000E+00 0.  1.
          2   -1    0    0  501    0  0.00000000000E+00 -0.00000000000E+00 -0.23202569836E+03  0.23202569836E+03  0.00000000000E+00 0. -1.
         23    2    1    2    0    0 -0.71682960892E+00  0.12340964317E+02 -0.21206982471E+03  0.23094846995E+03  0.90613310165E+02 0.  0.
         13    1    3    3    0    0 -0.39094688537E+02  0.12517086444E+02 -0.16593705957E+03  0.17093911157E+03  0.00000000000E+00 0. -1.
        -13    1    3    3    0    0  0.38377858928E+02 -0.17612212642E+00 -0.46132765131E+02  0.60009358383E+02  0.00000000000E+00 0.  1.
         22    1    1    2    0    0  0.71682960892E+00 -0.12340964317E+02 -0.68838665963E+01  0.14149235466E+02  0.00000000000E+00 0.  1.
<mgrwt>
<rscale>  0 0.55452012E+02</rscale>
<asrwt>0</asrwt>
<pdfrwt beam="1">  1        2 0.35696259E-01 0.91452639E+02</pdfrwt>
<pdfrwt beam="2">  1       -2 0.20110781E-02 0.91452639E+02</pdfrwt>
<totfact> 0.95148842E+04</totfact>
</mgrwt>
</event>
<event>
 6    1  0.1535419E-002  0.9004303E+02  0.7546771E-02  0.1361650E+00
         -2   -1    0    0    0  501 -0.00000000000E+00  0.00000000000E+00  0.15599190158E+02  0.15599190158E+02  0.00000000000E+00 0.  1.
          2   -1    0    0  501    0  0.00000000000E+00 -0.00000000000E+00 -0.27999617538E+03  0.27999617538E+03  0.00000000000E+00 0. -1.
         23    2    1    2    0    0  0.32004195297E+02 -0.15193117377E+01 -0.23668252594E+03  0.25323184257E+03  0.84149695081E+02 0.  0.
         11    1    3    3    0    0  0.13345397490E+02 -0.42723958669E+02 -0.11346656090E+03  0.12197580384E+03  0.00000000000E+00 0. -1.
        -11    1    3    3    0    0  0.18658797808E+02  0.41204646931E+02 -0.12321596503E+03  0.13125603873E+03  0.00000000000E+00 0.  1.
         22    1    1    2    0    0 -0.32004195297E+02  0.15193117377E+01 -0.27714459283E+02  0.42363522967E+02  0.00000000000E+00 0.  1.
<mgrwt>
<rscale>  0 0.69544297E+02</rscale>
<asrwt>0</asrwt>
<pdfrwt beam="1">  1        2 0.43076332E-01 0.90043034E+02</pdfrwt>
<pdfrwt beam="2">  1       -2 0.23998756E-02 0.90043034E+02</pdfrwt>
<totfact> 0.60421228E+04</totfact>
</mgrwt>
</event>
<event>
 6    1  0.1535419E-002  0.9075089E+02  0.7546771E-02  0.1419876E+00
          2   -1    0    0  501    0  0.00000000000E+00  0.00000000000E+00  0.79949169599E+03  0.79949169599E+03  0.00000000000E+00 0. -1.
         -2   -1    0    0    0  501 -0.00000000000E+00 -0.00000000000E+00 -0.37659651749E+01  0.37659651749E+01  0.00000000000E+00 0.  1.
         23    2    1    2    0    0  0.74557532558E+01 -0.97643119451E+01  0.76160194648E+03  0.76698973178E+03  0.89915481050E+02 0.  0.
         11    1    3    3    0    0 -0.23230041919E+02 -0.26591562868E+02  0.62430334772E+03  0.62530106032E+03  0.00000000000E+00 0. -1.
        -11    1    3    3    0    0  0.30685795175E+02  0.16827250923E+02  0.13729859876E+03  0.14168867147E+03  0.00000000000E+00 0.  1.
         22    1    1    2    0    0 -0.74557532558E+01  0.97643119451E+01  0.34123784333E+02  0.36267929381E+02  0.00000000000E+00 0.  1.
<mgrwt>
<rscale>  0 0.55047187E+02</rscale>
<asrwt>0</asrwt>
<pdfrwt beam="1">  1        2 0.12299859E+00 0.90750889E+02</pdfrwt>
<pdfrwt beam="2">  1       -2 0.57937989E-03 0.90750889E+02</pdfrwt>
<totfact> 0.14490889E+05</totfact>
</mgrwt>
</event>
<event>
 6    1  0.1535419E-002  0.9419781E+02  0.7546771E-02  0.1422696E+00
          2   -1    0    0  501    0  0.00000000000E+00  0.00000000000E+00  0.87939221599E+02  0.87939221599E+02  0.00000000000E+00 0. -1.
         -2   -1    0    0    0  501 -0.00000000000E+00 -0.00000000000E+00 -0.31975620864E+02  0.31975620864E+02  0.00000000000E+00 0.  1.
         23    2    1    2    0    0  0.10320181937E+02 -0.20406773138E+01  0.55612221894E+02  0.10938897023E+03  0.93608530943E+02 0.  0.
         11    1    3    3    0    0  0.33265273371E+02 -0.99963013807E+01  0.72103394197E+02  0.80033767301E+02  0.00000000000E+00 0. -1.
        -11    1    3    3    0    0 -0.22945091433E+02  0.79556240668E+01 -0.16491172303E+02  0.29355202931E+02  0.00000000000E+00 0.  1.
         22    1    1    2    0    0 -0.10320181937E+02  0.20406773138E+01  0.35137884081E+00  0.10525872230E+02  0.00000000000E+00 0.  1.
<mgrwt>
<rscale>  0 0.54454604E+02</rscale>
<asrwt>0</asrwt>
<pdfrwt beam="1">  1        2 0.13529111E-01 0.94197811E+02</pdfrwt>
<pdfrwt beam="2">  1       -2 0.49193263E-02 0.94197811E+02</pdfrwt>
<totfact> 0.75960456E+04</totfact>
</mgrwt>
</event>
<event>
 6    1  0.1535419E-002  0.9514713E+02  0.7546771E-02  0.1341493E+00
          2   -1    0    0  501    0  0.00000000000E+00  0.00000000000E+00  0.45880056832E+03  0.45880056832E+03  0.00000000000E+00 0.  1.
         -2   -1    0    0    0  501 -0.00000000000E+00 -0.00000000000E+00 -0.98843517984E+01  0.98843517984E+01  0.00000000000E+00 0. -1.
         23    2    1    2    0    0  0.38236421615E+02 -0.16354136362E+01  0.34740533591E+03  0.36019917267E+03  0.87110723001E+02 0.  0.
         13    1    3    3    0    0  0.15858786660E+02  0.24900571424E+02  0.29997252253E+03  0.30142172092E+03  0.00000000000E+00 0.  1.
        -13    1    3    3    0    0  0.22377634955E+02 -0.26535985060E+02  0.47432813379E+02  0.58777451751E+02  0.00000000000E+00 0. -1.
         22    1    1    2    0    0 -0.38236421615E+02  0.16354136362E+01  0.10151088061E+03  0.10848574744E+03  0.00000000000E+00 0. -1.
<mgrwt>
<rscale>  0 0.75773143E+02</rscale>
<asrwt>0</asrwt>
<pdfrwt beam="1">  1        2 0.70584686E-01 0.95147131E+02</pdfrwt>
<pdfrwt beam="2">  1       -2 0.15206699E-02 0.95147131E+02</pdfrwt>
<totfact> 0.69732064E+04</totfact>
</mgrwt>
</event>
<event>
 6    1  0.1535419E-002  0.1023834E+03  0.7546771E-02  0.1322546E+00
          2   -1    0    0  501    0  0.00000000000E+00  0.00000000000E+00  0.47260569741E+03  0.47260569741E+03  0.00000000000E+00 0. -1.
         -2   -1    0    0    0  501 -0.00000000000E+00 -0.00000000000E+00 -0.15991042077E+02  0.15991042077E+02  0.00000000000E+00 0.  1.
         23    2    1    2    0    0 -0.33127667608E+02 -0.27139718966E+02  0.41985631957E+03  0.43215932322E+03  0.92996477662E+02 0.  0.
         13    1    3    3    0    0 -0.58521251967E+02 -0.10981473498E+02  0.36277284425E+03  0.36762680291E+03  0.00000000000E+00 0. -1.
        -13    1    3    3    0    0  0.25393584359E+02 -0.16158245468E+02  0.57083475318E+02  0.64532520310E+02  0.00000000000E+00 0.  1.
         22    1    1    2    0    0  0.33127667608E+02  0.27139718966E+02  0.36758335765E+02  0.56437416267E+02  0.00000000000E+00 0.  1.
<mgrwt>
<rscale>  0 0.82337397E+02</rscale>
<asrwt>0</asrwt>
<pdfrwt beam="1">  1        2 0.72708558E-01 0.10238336E+03</pdfrwt>
<pdfrwt beam="2">  1       -2 0.24601607E-02 0.10238336E+03</pdfrwt>
<totfact> 0.34112820E+04</totfact>
</mgrwt>
</event>
<event>
 6    1  0.1535419E-002  0.9708736E+02  0.7546771E-02  0.1356608E+00
          4   -1    0    0  501    0  0.00000000000E+00  0.00000000000E+00  0.12800316070E+02  0.12800316070E+02  0.00000000000E+00 0. -1.
         -4   -1    0    0    0  501 -0.00000000000E+00 -0.00000000000E+00 -0.31085703714E+03  0.31085703714E+03  0.00000000000E+00 0.  1.
         23    2    1    2    0    0 -0.26747823140E+02  0.76604893427E+01 -0.24902453083E+03  0.26728107434E+03  0.93015195558E+02 0.  0.
         13    1    3    3    0    0 -0.27186686349E+02 -0.34040850256E+02 -0.62717060387E+02  0.76363113245E+02  0.00000000000E+00 0.  1.
        -13    1    3    3    0    0  0.43886320890E+00  0.41701339599E+02 -0.18630747044E+03  0.19091796109E+03  0.00000000000E+00 0. -1.
         22    1    1    2    0    0  0.26747823140E+02 -0.76604893427E+01 -0.49032190238E+02  0.56376278870E+02  0.00000000000E+00 0. -1.
<mgrwt>
<rscale>  0 0.71035215E+02</rscale>
<asrwt>0</asrwt>
<pdfrwt beam="1">  1        4 0.19692795E-02 0.97087361E+02</pdfrwt>
<pdfrwt beam="2">  1       -4 0.47824157E-01 0.97087361E+02</pdfrwt>
<totfact> 0.66049287E+03</totfact>
</mgrwt>
</event>
<event>
 6    1  0.1535419E-002  0.9099278E+02  0.7546771E-02  0.1428807E+00
          2   -1    0    0  501    0  0.00000000000E+00  0.00000000000E+00  0.24051818318E+03  0.24051818318E+03  0.00000000000E+00 0.  1.
         -2   -1    0    0    0  501 -0.00000000000E+00 -0.00000000000E+00 -0.12932174745E+02  0.12932174745E+02  0.00000000000E+00 0. -1.
         23    2    1    2    0    0  0.10625731015E+02 -0.37644314933E+00  0.22471270431E+03  0.24243655996E+03  0.90369454236E+02 0.  0.
         11    1    3    3    0    0  0.29906133949E+02  0.31970277792E+02  0.65160442782E+02  0.78500693076E+02  0.00000000000E+00 0. -1.
        -11    1    3    3    0    0 -0.19280402934E+02 -0.32346720941E+02  0.15955226153E+03  0.16393586689E+03  0.00000000000E+00 0.  1.
         22    1    1    2    0    0 -0.10625731015E+02  0.37644314933E+00  0.28733041288E+01  0.11013797967E+02  0.00000000000E+00 0.  1.
<mgrwt>
<rscale>  0 0.53200168E+02</rscale>
<asrwt>0</asrwt>
<pdfrwt beam="1">  1        2 0.37002794E-01 0.90992781E+02</pdfrwt>
<pdfrwt beam="2">  1       -2 0.19895655E-02 0.90992781E+02</pdfrwt>
<totfact> 0.92964801E+04</totfact>
</mgrwt>
</event>
<event>
 6    1  0.1535419E-002  0.1047114E+03  0.7546771E-02  0.1310143E+00
          1   -1    0    0  501    0  0.00000000000E+00  0.00000000000E+00  0.10799591011E+03  0.10799591011E+03  0.00000000000E+00 0. -1.
         -1   -1    0    0    0  501 -0.00000000000E+00 -0.00000000000E+00 -0.71161150330E+02  0.71161150330E+02  0.00000000000E+00 0.  1.
         23    2    1    2    0    0 -0.50004204881E+02  0.15056277863E+01  0.63506313536E+02  0.12246438719E+03  0.91987971226E+02 0.  0.
         11    1    3    3    0    0  0.80191707561E+01  0.32449025550E+02  0.37937118797E+01  0.33639836631E+02  0.00000000000E+00 0.  1.
        -11    1    3    3    0    0 -0.58023375637E+02 -0.30943397764E+02  0.59712601657E+02  0.88824550559E+02  0.00000000000E+00 0. -1.
         22    1    1    2    0    0  0.50004204881E+02 -0.15056277863E+01 -0.26671553753E+02  0.56692673251E+02  0.00000000000E+00 0.  1.
<mgrwt>
<rscale>  0 0.87055508E+02</rscale>
<asrwt>0</asrwt>
<pdfrwt beam="1">  1        1 0.16614756E-01 0.10471139E+03</pdfrwt>
<pdfrwt beam="2">  1       -1 0.10947869E-01 0.10471139E+03</pdfrwt>
<totfact> 0.15629230E+04</totfact>
</mgrwt>
</event>
<event>
 6    1  0.1535419E-002  0.9291730E+02  0.7546771E-02  0.1420058E+00
         -2   -1    0    0    0  501 -0.00000000000E+00  0.00000000000E+00  0.21527272543E+01  0.21527272543E+01  0.00000000000E+00 0.  1.
          2   -1    0    0  501    0  0.00000000000E+00 -0.00000000000E+00 -0.14075760492E+04  0.14075760492E+04  0.00000000000E+00 0. -1.
         23    2    1    2    0    0  0.48202243337E+01  0.10346178806E+02 -0.13469993334E+04  0.13502002924E+04  0.92213596549E+02 0.  0.
         13    1    3    3    0    0 -0.39690459021E+02 -0.20990622659E+01 -0.88572386618E+03  0.88661519597E+03  0.00000000000E+00 0. -1.
        -13    1    3    3    0    0  0.44510683355E+02  0.12445241072E+02 -0.46127546721E+03  0.46358509640E+03  0.00000000000E+00 0.  1.
         22    1    1    2    0    0 -0.48202243337E+01 -0.10346178806E+02 -0.58423988594E+02  0.59528484121E+02  0.00000000000E+00 0.  1.
<mgrwt>
<rscale>  0 0.55008693E+02</rscale>
<asrwt>0</asrwt>
<pdfrwt beam="1">  1        2 0.21655134E+00 0.92917304E+02</pdfrwt>
<pdfrwt beam="2">  1       -2 0.33118700E-03 0.92917304E+02</pdfrwt>
<totfact> 0.14299244E+05</totfact>
</mgrwt>
</event>
<event>
 6    1  0.1535419E-002  0.9679990E+02  0.7546771E-02  0.1384876E+00
          3   -1    0    0  501    0  0.00000000000E+00  0.00000000000E+00  0.79007808189E+02  0.79007808189E+02  0.00000000000E+00 0. -1.
         -3   -1    0    0    0  501 -0.00000000000E+00 -0.00000000000E+00 -0.43958428177E+02  0.43958428177E+02  0.00000000000E+00 0.  1.
         23    2    1    2    0    0  0.62218208929E+01  0.16451200430E+02  0.39931680546E+02  0.10471274603E+03  0.95188586604E+02 0.  0.
         13    1    3    3    0    0 -0.22983793059E+02 -0.58840458984E+01  0.58786054070E+02  0.63393035048E+02  0.00000000000E+00 0. -1.
        -13    1    3    3    0    0  0.29205613952E+02  0.22335246328E+02 -0.18854373524E+02  0.41319710985E+02  0.00000000000E+00 0.  1.
         22    1    1    2    0    0 -0.62218208929E+01 -0.16451200430E+02 -0.48823005339E+01  0.18253490332E+02  0.00000000000E+00 0.  1.
<mgrwt>
<rscale>  0 0.63199402E+02</rscale>
<asrwt>0</asrwt>
<pdfrwt beam="1">  1        3 0.12155047E-01 0.96799897E+02</pdfrwt>
<pdfrwt beam="2">  1       -3 0.67628351E-02 0.96799897E+02</pdfrwt>
<totfact> 0.15523034E+04</totfact>
</mgrwt>
</event>
<event>
 6    1  0.1535419E-002  0.1008870E+03  0.7546771E-02  0.1327342E+00
          2   -1    0    0  501    0  0.00000000000E+00  0.00000000000E+00  0.99232181575E+02  0.99232181575E+02  0.00000000000E+00 0. -1.
         -2   -1    0    0    0  501 -0.00000000000E+00 -0.00000000000E+00 -0.75832961807E+02  0.75832961807E+02  0.00000000000E+00 0.  1.
         23    2    1    2    0    0  0.20681255250E+02  0.35529452546E+02  0.62213017551E+02  0.11852695085E+03  0.92131005678E+02 0.  0.
         13    1    3    3    0    0 -0.72138751239E+01  0.21446055692E+02 -0.20235459174E+02  0.30355347256E+02  0.00000000000E+00 0.  1.
        -13    1    3    3    0    0  0.27895130374E+02  0.14083396854E+02  0.82448476724E+02  0.88171603590E+02  0.00000000000E+00 0. -1.
         22    1    1    2    0    0 -0.20681255250E+02 -0.35529452546E+02 -0.38813797782E+02  0.56538192536E+02  0.00000000000E+00 0.  1.
<mgrwt>
<rscale>  0 0.80605360E+02</rscale>
<asrwt>0</asrwt>
<pdfrwt beam="1">  1        2 0.15266490E-01 0.10088696E+03</pdfrwt>
<pdfrwt beam="2">  1       -2 0.11666609E-01 0.10088696E+03</pdfrwt>
<totfact> 0.17788627E+04</totfact>
</mgrwt>
</event>
<event>
 6    1  0.1535419E-002  0.8982316E+02  0.7546771E-02  0.1399021E+00
         -2   -1    0    0    0  501 -0.00000000000E+00  0.00000000000E+00  0.42294583664E+01  0.42294583664E+01  0.00000000000E+00 0.  1.
          2   -1    0    0  501    0  0.00000000000E+00 -0.00000000000E+00 -0.75007639779E+03  0.75007639779E+03  0.00000000000E+00 0. -1.
         23    2    1    2    0    0  0.42671259675E+00  0.17543353345E+02 -0.68848498574E+03  0.69431964890E+03  0.88092269431E+02 0.  0.
         11    1    3    3    0    0 -0.25552777387E+02 -0.67446628551E+01 -0.70155002185E+02  0.74967721326E+02  0.00000000000E+00 0.  1.
        -11    1    3    3    0    0  0.25979489984E+02  0.24288016200E+02 -0.61832998355E+03  0.61935192757E+03  0.00000000000E+00 0. -1.
         22    1    1    2    0    0 -0.42671259675E+00 -0.17543353345E+02 -0.57361953688E+02  0.59986207258E+02  0.00000000000E+00 0.  1.
<mgrwt>
<rscale>  0 0.59717483E+02</rscale>
<asrwt>0</asrwt>
<pdfrwt beam="1">  1        2 0.11539640E+00 0.89823155E+02</pdfrwt>
<pdfrwt beam="2">  1       -2 0.65068573E-03 0.89823155E+02</pdfrwt>
<totfact> 0.13275948E+05</totfact>
</mgrwt>
</event>
<event>
 6    1  0.1535419E-002  0.9120203E+02  0.7546771E-02  0.1366719E+00
          2   -1    0    0  501    0  0.00000000000E+00  0.00000000000E+00  0.13152814320E+04  0.13152814320E+04  0.00000000000E+00 0. -1.
         -2   -1    0    0    0  501 -0.00000000000E+00 -0.00000000000E+00 -0.31217935645E+01  0.31217935645E+01  0.00000000000E+00 0.  1.
         23    2    1    2    0    0 -0.22941788622E+02 -0.16623005382E+02  0.11634341176E+04  0.11670033229E+04  0.86690020967E+02 0.  0.
         13    1    3    3    0    0 -0.12841217778E+02  0.35677810031E+02  0.47291629084E+03  0.47443400083E+03  0.00000000000E+00 0.  1.
        -13    1    3    3    0    0 -0.10100570843E+02 -0.52300815413E+02  0.69051782677E+03  0.69256932210E+03  0.00000000000E+00 0. -1.
         22    1    1    2    0    0  0.22941788622E+02  0.16623005382E+02  0.14872552080E+03  0.15139990261E+03  0.00000000000E+00 0.  1.
<mgrwt>
<rscale>  0 0.68087775E+02</rscale>
<asrwt>0</asrwt>
<pdfrwt beam="1">  1        2 0.20235055E+00 0.91202027E+02</pdfrwt>
<pdfrwt beam="2">  1       -2 0.48027698E-03 0.91202027E+02</pdfrwt>
<totfact> 0.94825448E+04</totfact>
</mgrwt>
</event>
<event>
 6    1  0.1535419E-002  0.8730760E+02  0.7546771E-02  0.1417766E+00
          2   -1    0    0  501    0  0.00000000000E+00  0.00000000000E+00  0.74981874379E+02  0.74981874379E+02  0.00000000000E+00 0. -1.
         -2   -1    0    0    0  501 -0.00000000000E+00 -0.00000000000E+00 -0.35293429518E+02  0.35293429518E+02  0.00000000000E+00 0.  1.
         23    2    1    2    0    0  0.12809578683E+02  0.62498456743E+01  0.39964560070E+02  0.96019704416E+02  0.86136355260E+02 0.  0.
         11    1    3    3    0    0  0.10168770273E+02 -0.21560375185E+02  0.58041261437E+02  0.62745850031E+02  0.00000000000E+00 0. -1.
        -11    1    3    3    0    0  0.26408084102E+01  0.27810220859E+02 -0.18076701367E+02  0.33273854385E+02  0.00000000000E+00 0.  1.
         22    1    1    2    0    0 -0.12809578683E+02 -0.62498456743E+01 -0.27611520880E+00  0.14255599482E+02  0.00000000000E+00 0. -1.
<mgrwt>
<rscale>  0 0.55496431E+02</rscale>
<asrwt>0</asrwt>
<pdfrwt beam="1">  1        2 0.11535673E-01 0.87307603E+02</pdfrwt>
<pdfrwt beam="2">  1       -2 0.54297584E-02 0.87307603E+02</pdfrwt>
<totfact> 0.78276737E+04</totfact>
</mgrwt>
</event>
<event>
 6    1  0.1535419E-002  0.9322765E+02  0.7546771E-02  0.1384459E+00
          4   -1    0    0  501    0  0.00000000000E+00  0.00000000000E+00  0.16841572958E+02  0.16841572958E+02  0.00000000000E+00 0.  1.
         -4   -1    0    0    0  501 -0.00000000000E+00 -0.00000000000E+00 -0.20234343231E+03  0.20234343231E+03  0.00000000000E+00 0. -1.
         23    2    1    2    0    0  0.28635469867E+01 -0.19614210006E+02 -0.12792460582E+03  0.15829118572E+03  0.91095979962E+02 0.  0.
         11    1    3    3    0    0 -0.27549202366E+02 -0.38419609118E+02 -0.35290216001E+02  0.58995120656E+02  0.00000000000E+00 0.  1.
        -11    1    3    3    0    0  0.30412749353E+02  0.18805399112E+02 -0.92634389823E+02  0.99296065062E+02  0.00000000000E+00 0. -1.
         22    1    1    2    0    0 -0.28635469867E+01  0.19614210006E+02 -0.57577253529E+02  0.60893819551E+02  0.00000000000E+00 0. -1.
<mgrwt>
<rscale>  0 0.63306190E+02</rscale>
<asrwt>0</asrwt>
<pdfrwt beam="1">  1        4 0.25910112E-02 0.93227650E+02</pdfrwt>
<pdfrwt beam="2">  1       -4 0.31129759E-01 0.93227650E+02</pdfrwt>
<totfact> 0.98661232E+03</totfact>
</mgrwt>
</event>
<event>
 6    1  0.1535419E-002  0.1036770E+03  0.7546771E-02  0.1345228E+00
         -2   -1    0    0    0  501 -0.00000000000E+00  0.00000000000E+00  0.17106584698E+03  0.17106584698E+03  0.00000000000E+00 0.  1.
          2   -1    0    0  501    0  0.00000000000E+00 -0.00000000000E+00 -0.35876656587E+02  0.35876656587E+02  0.00000000000E+00 0. -1.
         23    2    1    2    0    0  0.18139540715E+02  0.20983452908E+02  0.45788810921E+02  0.11333814425E+03  0.99897805297E+02 0.  0.
         11    1    3    3    0    0  0.20275880370E+02  0.61062658480E+00 -0.29226474534E+02  0.35576270228E+02  0.00000000000E+00 0. -1.
        -11    1    3    3    0    0 -0.21363396549E+01  0.20372826323E+02  0.75015285455E+02  0.77761874022E+02  0.00000000000E+00 0.  1.
         22    1    1    2    0    0 -0.18139540715E+02 -0.20983452908E+02  0.89400379473E+02  0.93604359318E+02  0.00000000000E+00 0.  1.
<mgrwt>
<rscale>  0 0.74563653E+02</rscale>
<asrwt>0</asrwt>
<pdfrwt beam="1">  1        2 0.55194857E-02 0.10367700E+03</pdfrwt>
<pdfrwt beam="2">  1       -2 0.26317822E-01 0.10367700E+03</pdfrwt>
<totfact> 0.16128691E+04</totfact>
</mgrwt>
</event>
<event>
 6    1  0.1535419E-002  0.9267284E+02  0.7546771E-02  0.1392477E+00
         -2   -1    0    0    0  501 -0.00000000000E+00  0.00000000000E+00  0.14415198982E+02  0.14415198982E+02  0.00000000000E+00 0.  1.
          2   -1    0    0  501    0  0.00000000000E+00 -0.00000000000E+00 -0.25882053207E+03  0.25882053207E+03  0.00000000000E+00 0. -1.
         23    2    1    2    0    0  0.48518422620E+01 -0.17058801061E+02 -0.23613062807E+03  0.25366499243E+03  0.90959946157E+02 0.  0.
         11    1    3    3    0    0  0.18189517807E+02  0.17585428327E+01 -0.22870555095E+03  0.22943447881E+03  0.00000000000E+00 0. -1.
        -11    1    3    3    0    0 -0.13337675545E+02 -0.18817343894E+02 -0.74250771219E+01  0.24230513623E+02  0.00000000000E+00 0.  1.
         22    1    1    2    0    0 -0.48518422620E+01  0.17058801061E+02 -0.82747050143E+01  0.19570738618E+02  0.00000000000E+00 0.  1.
<mgrwt>
<rscale>  0 0.61294903E+02</rscale>
<asrwt>0</asrwt>
<pdfrwt beam="1">  1        2 0.39818541E-01 0.92672838E+02</pdfrwt>
<pdfrwt beam="2">  1       -2 0.22177230E-02 0.92672838E+02</pdfrwt>
<totfact> 0.73811347E+04</totfact>
</mgrwt>
</event>
<event>
 6    1  0.1535419E-002  0.9448859E+02  0.7546771E-02  0.1355448E+00
         -1   -1    0    0    0  501 -0.00000000000E+00  0.00000000000E+00  0.24185751669E+01  0.24185751669E+01  0.00000000000E+00 0.  1.
          1   -1    0    0  501    0  0.00000000000E+00 -0.00000000000E+00 -0.24183613365E+04  0.24183613365E+04  0.00000000000E+00 0. -1.
         23    2    1    2    0    0 -0.28914848411E+02  0.10553291289E+02 -0.22514606815E+04  0.22534425429E+04  0.89334501631E+02 0.  0.
         11    1    3    3    0    0  0.25869139981E+02 -0.17440089491E+02 -0.56575625887E+03  0.56661584304E+03  0.00000000000E+00 0.  1.
        -11    1    3    3    0    0 -0.54783988392E+02  0.27993380780E+02 -0.16857044226E+04  0.16868266998E+04  0.00000000000E+00 0. -1.
         22    1    1    2    0    0  0.28914848411E+02 -0.10553291289E+02 -0.16448207986E+03  0.16733736884E+03  0.00000000000E+00 0.  1.
<mgrwt>
<rscale>  0 0.71384433E+02</rscale>
<asrwt>0</asrwt>
<pdfrwt beam="1">  1        1 0.37205641E+00 0.94488590E+02</pdfrwt>
<pdfrwt beam="2">  1       -1 0.37208767E-03 0.94488590E+02</pdfrwt>
<totfact> 0.13452645E+04</totfact>
</mgrwt>
</event>
<event>
 6    1  0.1535419E-002  0.9465841E+02  0.7546771E-02  0.1413716E+00
         -1   -1    0    0    0  501 -0.00000000000E+00  0.00000000000E+00  0.89432775911E+02  0.89432775911E+02  0.00000000000E+00 0.  1.
          1   -1    0    0  501    0  0.00000000000E+00 -0.00000000000E+00 -0.69157701465E+02  0.69157701465E+02  0.00000000000E+00 0. -1.
         23    2    1    2    0    0 -0.37341302634E+01  0.11306385035E+02 -0.35847377134E+02  0.10121881501E+03  0.93906527958E+02 0.  0.
         13    1    3    3    0    0 -0.97300915169E+01 -0.32542791927E+02  0.12016726110E+02  0.36029289387E+02  0.00000000000E+00 0.  1.
        -13    1    3    3    0    0  0.59959612535E+01  0.43849176962E+02 -0.47864103243E+02  0.65189525622E+02  0.00000000000E+00 0. -1.
         22    1    1    2    0    0  0.37341302634E+01 -0.11306385035E+02  0.56122451580E+02  0.57371662367E+02  0.00000000000E+00 0.  1.
<mgrwt>
<rscale>  0 0.56372920E+02</rscale>
<asrwt>0</asrwt>
<pdfrwt beam="1">  1        1 0.10639646E-01 0.94658407E+02</pdfrwt>
<pdfrwt beam="2">  1       -1 0.13758889E-01 0.94658407E+02</pdfrwt>
<totfact> 0.19372739E+04</totfact>
</mgrwt>
</event>
<event>
 6    1  0.1535419E-002  0.9519905E+02  0.7546771E-02  0.1401092E+00
         -2   -1    0    0    0  501 -0.00000000000E+00  0.00000000000E+00  0.64279074780E+01  0.64279074780E+01  0.00000000000E+00 0.  1.
          2   -1    0    0  501    0  0.00000000000E+00 -0.00000000000E+00 -0.47476227915E+03  0.47476227915E+03  0.00000000000E+00 0. -1.
         23    2    1    2    0    0 -0.59070615580E+01  0.12984266716E+02 -0.42633267670E+03  0.43683224552E+03  0.94124252717E+02 0.  0.
         13    1    3    3    0    0  0.27748377421E+02  0.41762242306E+02 -0.25397526400E+03  0.25887736876E+03  0.00000000000E+00 0.  1.
        -13    1    3    3    0    0 -0.33655438979E+02 -0.28777975590E+02 -0.17235741270E+03  0.17795487676E+03  0.00000000000E+00 0. -1.
         22    1    1    2    0    0  0.59070615580E+01 -0.12984266716E+02 -0.42001694973E+02  0.44357941104E+02  0.00000000000E+00 0. -1.
<mgrwt>
<rscale>  0 0.59229886E+02</rscale>
<asrwt>0</asrwt>
<pdfrwt beam="1">  1        2 0.73040350E-01 0.95199052E+02</pdfrwt>
<pdfrwt beam="2">  1       -2 0.98890885E-03 0.95199052E+02</pdfrwt>
<totfact> 0.12399464E+05</totfact>
</mgrwt>
</event>
<event>
 6    1  0.1535419E-002  0.9655066E+02  0.7546771E-02  0.1376103E+00
         -2   -1    0    0    0  501 -0.00000000000E+00  0.00000000000E+00  0.53533923480E+01  0.53533923480E+01  0.00000000000E+00 0.  1.
          2   -1    0    0  501    0  0.00000000000E+00 -0.00000000000E+00 -0.79066425904E+03  0.79066425904E+03  0.00000000000E+00 0. -1.
         23    2    1    2    0    0  0.10080853287E+02  0.17791933380E+02 -0.74041910611E+03  0.74668767405E+03  0.94360231998E+02 0.  0.
         11    1    3    3    0    0  0.77856813333E+01  0.48223017658E+02 -0.63672892073E+03  0.63859987062E+03  0.00000000000E+00 0. -1.
        -11    1    3    3    0    0  0.22951719542E+01 -0.30431084278E+02 -0.10369018538E+03  0.10808780343E+03  0.00000000000E+00 0.  1.
         22    1    1    2    0    0 -0.10080853287E+02 -0.17791933380E+02 -0.44891760577E+02  0.49329977337E+02  0.00000000000E+00 0. -1.
<mgrwt>
<rscale>  0 0.65499259E+02</rscale>
<asrwt>0</asrwt>
<pdfrwt beam="1">  1        2 0.12164064E+00 0.96550660E+02</pdfrwt>
<pdfrwt beam="2">  1       -2 0.82359893E-03 0.96550660E+02</pdfrwt>
<totfact> 0.90265057E+04</totfact>
</mgrwt>
</event>
<event>
 6    1  0.1535419E-002  0.9055592E+02  0.7546771E-02  0.1414921E+00
          2   -1    0    0  501    0  0.00000000000E+00  0.00000000000E+00  0.12376033347E+03  0.12376033347E+03  0.00000000000E+00 0. -1.
         -2   -1    0    0    0  501 -0.00000000000E+00 -0.00000000000E+00 -0.21993568900E+02  0.21993568900E+02  0.00000000000E+00 0.  1.
         23    2    1    2    0    0  0.19985863468E+01 -0.13197516456E+02  0.83875788886E+02  0.12343225819E+03  0.89566766228E+02 0.  0.
         11    1    3    3    0    0  0.25489110369E+02 -0.28515729047E+02  0.36201872088E+01  0.38418059632E+02  0.00000000000E+00 0.  1.
        -11    1    3    3    0    0 -0.23490524022E+02  0.15318212591E+02  0.80255601677E+02  0.85014198558E+02  0.00000000000E+00 0. -1.
         22    1    1    2    0    0 -0.19985863468E+01  0.13197516456E+02  0.17890975688E+02  0.22321644184E+02  0.00000000000E+00 0.  1.
<mgrwt>
<rscale>  0 0.56110170E+02</rscale>
<asrwt>0</asrwt>
<pdfrwt beam="1">  1        2 0.19040051E-01 0.90555919E+02</pdfrwt>
<pdfrwt beam="2">  1       -2 0.33836261E-02 0.90555919E+02</pdfrwt>
<totfact> 0.88519760E+04</totfact>
</mgrwt>
</event>
<event>
 6    1  0.1535419E-002  0.9342289E+02  0.7546771E-02  0.1385075E+00
          2   -1    0    0  501    0  0.00000000000E+00  0.00000000000E+00  0.12473664316E+04  0.12473664316E+04  0.00000000000E+00 0. -1.
         -2   -1    0    0    0  501 -0.00000000000E+00 -0.00000000000E+00 -0.55971431393E+01  0.55971431393E+01  0.00000000000E+00 0.  1.
         23    2    1    2    0    0 -0.50575053892E+01 -0.18835229729E+02  0.12206389069E+04  0.12242087966E+04  0.91364612878E+02 0.  0.
         11    1    3    3    0    0 -0.85604451554E+01 -0.40698681991E+02  0.25923150120E+03  0.26254644380E+03  0.00000000000E+00 0.  1.
        -11    1    3    3    0    0  0.35029397662E+01  0.21863452262E+02  0.96140740567E+03  0.96166235281E+03  0.00000000000E+00 0. -1.
         22    1    1    2    0    0  0.50575053892E+01  0.18835229729E+02  0.21130381620E+02  0.28754778162E+02  0.00000000000E+00 0.  1.
<mgrwt>
<rscale>  0 0.63148361E+02</rscale>
<asrwt>0</asrwt>
<pdfrwt beam="1">  1        2 0.19190231E+00 0.93422892E+02</pdfrwt>
<pdfrwt beam="2">  1       -2 0.86109994E-03 0.93422892E+02</pdfrwt>
<totfact> 0.45447839E+04</totfact>
</mgrwt>
</event>
<event>
 6    1  0.1535419E-002  0.1010915E+03  0.7546771E-02  0.1320730E+00
          2   -1    0    0  501    0  0.00000000000E+00  0.00000000000E+00  0.69632511542E+03  0.69632511542E+03  0.00000000000E+00 0. -1.
         -2   -1    0    0    0  501 -0.00000000000E+00 -0.00000000000E+00 -0.22342170958E+02  0.22342170958E+02  0.00000000000E+00 0.  1.
         23    2    1    2    0    0  0.43041125920E+02  0.16093943047E+02  0.66399025015E+03  0.67164168205E+03  0.90044118330E+02 0.  0.
         11    1    3    3    0    0  0.93770669636E+00 -0.20341577889E+02  0.37415824402E+02  0.42598157244E+02  0.00000000000E+00 0.  1.
        -11    1    3    3    0    0  0.42103419224E+02  0.36435520936E+02  0.62657442575E+03  0.62904352480E+03  0.00000000000E+00 0. -1.
         22    1    1    2    0    0 -0.43041125920E+02 -0.16093943047E+02  0.99926943157E+01  0.47025604334E+02  0.00000000000E+00 0.  1.
<mgrwt>
<rscale>  0 0.83006352E+02</rscale>
<asrwt>0</asrwt>
<pdfrwt beam="1">  1        2 0.10712692E+00 0.10109153E+03</pdfrwt>
<pdfrwt beam="2">  1       -2 0.34372576E-02 0.10109153E+03</pdfrwt>
<totfact> 0.13576276E+04</totfact>
</mgrwt>
</event>
<event>
 6    1  0.1535419E-002  0.8857928E+02  0.7546771E-02  0.1432903E+00
          4   -1    0    0  501    0  0.00000000000E+00  0.00000000000E+00  0.77512985074E+01  0.77512985074E+01  0.00000000000E+00 0. -1.
         -4   -1    0    0    0  501 -0.00000000000E+00 -0.00000000000E+00 -0.33350194496E+03  0.33350194496E+03  0.00000000000E+00 0.  1.
         23    2    1    2    0    0 -0.35306344307E+01  0.10240726056E+02 -0.26148182274E+03  0.27607794484E+03  0.87914447928E+02 0.  0.
         11    1    3    3    0    0 -0.19647851886E+02  0.11411481288E+02 -0.11302525527E+02  0.25377294422E+02  0.00000000000E+00 0. -1.
        -11    1    3    3    0    0  0.16117217455E+02 -0.11707552317E+01 -0.25017929721E+03  0.25070065042E+03  0.00000000000E+00 0.  1.
         22    1    1    2    0    0  0.35306344307E+01 -0.10240726056E+02 -0.64268823710E+02  0.65175298624E+02  0.00000000000E+00 0. -1.
<mgrwt>
<rscale>  0 0.52381612E+02</rscale>
<asrwt>0</asrwt>
<pdfrwt beam="1">  1        4 0.11925076E-02 0.88579275E+02</pdfrwt>
<pdfrwt beam="2">  1       -4 0.51307987E-01 0.88579275E+02</pdfrwt>
<totfact> 0.11922571E+04</totfact>
</mgrwt>
</event>
<event>
 6    1  0.1535419E-002  0.9600152E+02  0.7546771E-02  0.1389203E+00
         -2   -1    0    0    0  501 -0.00000000000E+00  0.00000000000E+00  0.25979477895E+01  0.25979477895E+01  0.00000000000E+00 0.  1.
          2   -1    0    0  501    0  0.00000000000E+00 -0.00000000000E+00 -0.16078041983E+04  0.16078041983E+04  0.00000000000E+00 0. -1.
         23    2    1    2    0    0  0.27394212015E+01  0.16589682674E+02 -0.15423792807E+04  0.15453640793E+04  0.94517564333E+02 0.  0.
         13    1    3    3    0    0  0.10996975093E+02  0.38752709860E+02 -0.14278529621E+04  0.14284210819E+04  0.00000000000E+00 0. -1.
        -13    1    3    3    0    0 -0.82575538910E+01 -0.22163027186E+02 -0.11452631863E+03  0.11694299735E+03  0.00000000000E+00 0.  1.
         22    1    1    2    0    0 -0.27394212015E+01 -0.16589682674E+02 -0.62826969760E+02  0.65038066768E+02  0.00000000000E+00 0. -1.
<mgrwt>
<rscale>  0 0.62105282E+02</rscale>
<asrwt>0</asrwt>
<pdfrwt beam="1">  1        2 0.24735444E+00 0.96001521E+02</pdfrwt>
<pdfrwt beam="2">  1       -2 0.39968435E-03 0.96001521E+02</pdfrwt>
<totfact> 0.87180161E+04</totfact>
</mgrwt>
</event>
<event>
 6    1  0.1535419E-002  0.9097998E+02  0.7546771E-02  0.1365799E+00
         -2   -1    0    0    0  501 -0.00000000000E+00  0.00000000000E+00  0.72559006945E+02  0.72559006945E+02  0.00000000000E+00 0.  1.
          2   -1    0    0  501    0  0.00000000000E+00 -0.00000000000E+00 -0.13268032766E+03  0.13268032766E+03  0.00000000000E+00 0. -1.
         23    2    1    2    0    0  0.28471784648E+02  0.54006767608E+01 -0.11291951581E+03  0.14501094234E+03  0.86241211243E+02 0.  0.
         13    1    3    3    0    0  0.53065056090E+02 -0.72613124101E+01 -0.10212563501E+03  0.11531813458E+03  0.00000000000E+00 0. -1.
        -13    1    3    3    0    0 -0.24593271442E+02  0.12661989171E+02 -0.10793880794E+02  0.29692807759E+02  0.00000000000E+00 0.  1.
         22    1    1    2    0    0 -0.28471784648E+02 -0.54006767608E+01  0.52798195090E+02  0.60228392269E+02  0.00000000000E+00 0.  1.
<mgrwt>
<rscale>  0 0.68348972E+02</rscale>
<asrwt>0</asrwt>
<pdfrwt beam="1">  1        2 0.20412358E-01 0.90979978E+02</pdfrwt>
<pdfrwt beam="2">  1       -2 0.11162924E-01 0.90979978E+02</pdfrwt>
<totfact> 0.13566666E+04</totfact>
</mgrwt>
</event>
<event>
 6    1  0.1535419E-002  0.9453621E+02  0.7546771E-02  0.1371143E+00
         -2   -1    0    0    0  501 -0.00000000000E+00  0.00000000000E+00  0.63956166368E+01  0.63956166368E+01  0.00000000000E+00 0.  1.
          2   -1    0    0  501    0  0.00000000000E+00 -0.00000000000E+00 -0.14127679328E+04  0.14127679328E+04  0.00000000000E+00 0. -1.
         23    2    1    2    0    0 -0.21022339250E+02 -0.10809293321E+02 -0.13819326278E+04  0.13851624033E+04  0.91533142566E+02 0.  0.
         11    1    3    3    0    0  0.24751323072E+02 -0.11449994998E+02 -0.10175561630E+04  0.10179215467E+04  0.00000000000E+00 0. -1.
        -11    1    3    3    0    0 -0.45773662321E+02  0.64070167748E+00 -0.36437646487E+03  0.36724085667E+03  0.00000000000E+00 0.  1.
         22    1    1    2    0    0  0.21022339250E+02  0.10809293321E+02 -0.24439688299E+02  0.34001146066E+02  0.00000000000E+00 0.  1.
<mgrwt>
<rscale>  0 0.66850355E+02</rscale>
<asrwt>0</asrwt>
<pdfrwt beam="1">  1        2 0.21734896E+00 0.94536214E+02</pdfrwt>
<pdfrwt beam="2">  1       -2 0.98394082E-03 0.94536214E+02</pdfrwt>
<totfact> 0.30826918E+04</totfact>
</mgrwt>
</event>
<event>
 6    1  0.1535419E-002  0.9705564E+02  0.7546771E-02  0.1343025E+00
         -3   -1    0    0    0  501 -0.00000000000E+00  0.00000000000E+00  0.37099102027E+03  0.37099102027E+03  0.00000000000E+00 0.  1.
          3   -1    0    0  501    0  0.00000000000E+00 -0.00000000000E+00 -0.12976945663E+02  0.12976945663E+02  0.00000000000E+00 0. -1.
         23    2    1    2    0    0  0.25754642955E+02  0.23872364194E+02  0.30745132345E+03  0.32240675078E+03  0.90479861049E+02 0.  0.
         13    1    3    3    0    0 -0.13911486312E+02  0.55295218929E+01  0.35579555528E+01  0.15387141109E+02  0.00000000000E+00 0. -1.
        -13    1    3    3    0    0  0.39666129267E+02  0.18342842301E+02  0.30389336789E+03  0.30701960967E+03  0.00000000000E+00 0.  1.
         22    1    1    2    0    0 -0.25754642955E+02 -0.23872364194E+02  0.50562751158E+02  0.61561215149E+02  0.00000000000E+00 0.  1.
<mgrwt>
<rscale>  0 0.75273894E+02</rscale>
<asrwt>0</asrwt>
<pdfrwt beam="1">  1        3 0.19964535E-02 0.97055637E+02</pdfrwt>
<pdfrwt beam="2">  1       -3 0.57075534E-01 0.97055637E+02</pdfrwt>
<totfact> 0.61797249E+03</totfact>
</mgrwt>
</event>
<event>
 6    1  0.1535419E-002  0.9198141E+02  0.7546771E-02  0.1403591E+00
          2   -1    0    0  501    0  0.00000000000E+00  0.00000000000E+00  0.52977514988E+03  0.52977514988E+03  0.00000000000E+00 0.  1.
         -2   -1    0    0    0  501 -0.00000000000E+00 -0.00000000000E+00 -0.54920142896E+01  0.54920142896E+01  0.00000000000E+00 0. -1.
         23    2    1    2    0    0  0.12088476710E+02  0.92198697363E+01  0.46881971605E+03  0.47775778951E+03  0.90716272018E+02 0.  0.
         13    1    3    3    0    0 -0.67152382824E+01 -0.99580390596E+01  0.43208356195E+03  0.43225046151E+03  0.00000000000E+00 0.  1.
        -13    1    3    3    0    0  0.18803714993E+02  0.19177908796E+02  0.36736154097E+02  0.45507327994E+02  0.00000000000E+00 0. -1.
         22    1    1    2    0    0 -0.12088476710E+02 -0.92198697363E+01  0.55463419541E+02  0.57509374664E+02  0.00000000000E+00 0.  1.
<mgrwt>
<rscale>  0 0.58648753E+02</rscale>
<asrwt>0</asrwt>
<pdfrwt beam="1">  1        2 0.81503829E-01 0.91981407E+02</pdfrwt>
<pdfrwt beam="2">  1       -2 0.84492569E-03 0.91981407E+02</pdfrwt>
<totfact> 0.13686108E+05</totfact>
</mgrwt>
</event>
<event>
 6    1  0.1535419E-002  0.9391762E+02  0.7546771E-02  0.1390674E+00
          4   -1    0    0  501    0  0.00000000000E+00  0.00000000000E+00  0.61059981147E+02  0.61059981147E+02  0.00000000000E+00 0. -1.
         -4   -1    0    0    0  501 -0.00000000000E+00 -0.00000000000E+00 -0.86053912026E+02  0.86053912026E+02  0.00000000000E+00 0.  1.
         23    2    1    2    0    0 -0.17355369990E+02 -0.25316311555E+01  0.22422884466E+02  0.96557267483E+02  0.92265389677E+02 0.  0.
         13    1    3    3    0    0 -0.21827670436E+02  0.14985140303E+02 -0.30642702897E+02  0.40496627852E+02  0.00000000000E+00 0.  1.
        -13    1    3    3    0    0  0.44723004459E+01 -0.17516771459E+02  0.53065587363E+02  0.56060639630E+02  0.00000000000E+00 0. -1.
         22    1    1    2    0    0  0.17355369990E+02  0.25316311555E+01 -0.47416815344E+02  0.50556625690E+02  0.00000000000E+00 0.  1.
<mgrwt>
<rscale>  0 0.61739313E+02</rscale>
<asrwt>0</asrwt>
<pdfrwt beam="1">  1        4 0.93938433E-02 0.93917624E+02</pdfrwt>
<pdfrwt beam="2">  1       -4 0.13239063E-01 0.93917624E+02</pdfrwt>
<totfact> 0.58451955E+03</totfact>
</mgrwt>
</event>
<event>
 6    1  0.1535419E-002  0.8887879E+02  0.7546771E-02  0.1402547E+00
          2   -1    0    0  501    0  0.00000000000E+00  0.00000000000E+00  0.29508429943E+03  0.29508429943E+03  0.00000000000E+00 0. -1.
         -2   -1    0    0    0  501 -0.00000000000E+00 -0.00000000000E+00 -0.12686205743E+02  0.12686205743E+02  0.00000000000E+00 0.  1.
         23    2    1    2    0    0  0.94288699051E+01 -0.14302998369E+02  0.27518618574E+03  0.28918311789E+03  0.87212152228E+02 0.  0.
         13    1    3    3    0    0  0.39714895100E+02  0.30008409233E+00  0.63888334587E+02  0.75226871791E+02  0.00000000000E+00 0.  1.
        -13    1    3    3    0    0 -0.30286025195E+02 -0.14603082462E+02  0.21129785116E+03  0.21395624610E+03  0.00000000000E+00 0. -1.
         22    1    1    2    0    0 -0.94288699051E+01  0.14302998369E+02  0.72119079468E+01  0.18587387290E+02  0.00000000000E+00 0.  1.
<mgrwt>
<rscale>  0 0.58890574E+02</rscale>
<asrwt>0</asrwt>
<pdfrwt beam="1">  1        2 0.45397579E-01 0.88878787E+02</pdfrwt>
<pdfrwt beam="2">  1       -2 0.19517242E-02 0.88878787E+02</pdfrwt>
<totfact> 0.76867217E+04</totfact>
</mgrwt>
</event>
<event>
 6    1  0.1535419E-002  0.9065510E+02  0.7546771E-02  0.1409848E+00
         -1   -1    0    0    0  501 -0.00000000000E+00  0.00000000000E+00  0.46502580147E+01  0.46502580147E+01  0.00000000000E+00 0.  1.
          1   -1    0    0  501    0  0.00000000000E+00 -0.00000000000E+00 -0.61375066501E+03  0.61375066501E+03  0.00000000000E+00 0. -1.
         23    2    1    2    0    0 -0.96693238629E+01 -0.10665700587E+02 -0.55780254057E+03  0.56512124498E+03  0.89504716446E+02 0.  0.
         13    1    3    3    0    0  0.84310542231E+01  0.98768657752E-01 -0.53084975214E+03  0.53091670889E+03  0.00000000000E+00 0. -1.
        -13    1    3    3    0    0 -0.18100378086E+02 -0.10764469244E+02 -0.26952788435E+02  0.34204536094E+02  0.00000000000E+00 0.  1.
         22    1    1    2    0    0  0.96693238629E+01  0.10665700587E+02 -0.51297866419E+02  0.53279678041E+02  0.00000000000E+00 0.  1.
<mgrwt>
<rscale>  0 0.57227765E+02</rscale>
<asrwt>0</asrwt>
<pdfrwt beam="1">  1        1 0.94423149E-01 0.90655101E+02</pdfrwt>
<pdfrwt beam="2">  1       -1 0.71542454E-03 0.90655101E+02</pdfrwt>
<totfact> 0.90796009E+04</totfact>
</mgrwt>
</event>
<event>
 6    1  0.1535419E-002  0.9079013E+02  0.7546771E-02  0.1431976E+00
          2   -1    0    0  501    0  0.00000000000E+00  0.00000000000E+00  0.29562033233E+03  0.29562033233E+03  0.00000000000E+00 0. -1.
         -2   -1    0    0    0  501 -0.00000000000E+00 -0.00000000000E+00 -0.94275298531E+01  0.94275298531E+01  0.00000000000E+00 0.  1.
         23    2    1    2    0    0 -0.66352099436E+01  0.77495122408E+01  0.27631099914E+03  0.29084465874E+03  0.90215111364E+02 0.  0.
         13    1    3    3    0    0 -0.45058793338E+02  0.45139207919E+01  0.91972106038E+02  0.10251604083E+03  0.00000000000E+00 0.  1.
        -13    1    3    3    0    0  0.38423583394E+02  0.32355914490E+01  0.18433889311E+03  0.18832861791E+03  0.00000000000E+00 0. -1.
         22    1    1    2    0    0  0.66352099436E+01 -0.77495122408E+01  0.98818033343E+01  0.14203203445E+02  0.00000000000E+00 0.  1.
<mgrwt>
<rscale>  0 0.52565449E+02</rscale>
<asrwt>0</asrwt>
<pdfrwt beam="1">  1        2 0.45480044E-01 0.90790128E+02</pdfrwt>
<pdfrwt beam="2">  1       -2 0.14503894E-02 0.90790128E+02</pdfrwt>
<totfact> 0.11766947E+05</totfact>
</mgrwt>
</event>
<event>
 6    1  0.1535419E-002  0.9882104E+02  0.7546771E-02  0.1347707E+00
         -2   -1    0    0    0  501 -0.00000000000E+00  0.00000000000E+00  0.30766852647E+01  0.30766852647E+01  0.00000000000E+00 0.  1.
          2   -1    0    0  501    0  0.00000000000E+00 -0.00000000000E+00 -0.15940586514E+04  0.15940586514E+04  0.00000000000E+00 0. -1.
         23    2    1    2    0    0 -0.28526873152E+02 -0.11335285369E+02 -0.14188894075E+04  0.14223265271E+04  0.93932569463E+02 0.  0.
         13    1    3    3    0    0  0.52188234592E+01  0.35694847546E+02 -0.34567680258E+03  0.34755403911E+03  0.00000000000E+00 0. -1.
        -13    1    3    3    0    0 -0.33745696611E+02 -0.47030132915E+02 -0.10732126050E+04  0.10747724880E+04  0.00000000000E+00 0.  1.
         22    1    1    2    0    0  0.28526873152E+02  0.11335285369E+02 -0.17209255859E+03  0.17480880959E+03  0.00000000000E+00 0. -1.
<mgrwt>
<rscale>  0 0.73774975E+02</rscale>
<asrwt>0</asrwt>
<pdfrwt beam="1">  1        2 0.24524000E+00 0.98821044E+02</pdfrwt>
<pdfrwt beam="2">  1       -2 0.47333579E-03 0.98821044E+02</pdfrwt>
<totfact> 0.70107836E+04</totfact>
</mgrwt>
</event>
<event>
 6    1  0.1535419E-002  0.1356131E+03  0.7546771E-02  0.1233863E+00
          2   -1    0    0  501    0  0.00000000000E+00  0.00000000000E+00  0.41999685098E+03  0.41999685098E+03  0.00000000000E+00 0. -1.
         -2   -1    0    0    0  501 -0.00000000000E+00 -0.00000000000E+00 -0.40453604643E+02  0.40453604643E+02  0.00000000000E+00 0.  1.
         23    2    1    2    0    0  0.69727463521E+02 -0.72152104920E+02  0.31000868940E+03  0.33837302109E+03  0.91230852714E+02 0.  0.
         13    1    3    3    0    0  0.30331077141E+02 -0.37159346205E+02  0.37688675806E+02  0.61001865012E+02  0.00000000000E+00 0.  1.
        -13    1    3    3    0    0  0.39396386380E+02 -0.34992758715E+02  0.27232001359E+03  0.27737115608E+03  0.00000000000E+00 0. -1.
         22    1    1    2    0    0 -0.69727463521E+02  0.72152104920E+02  0.69534556944E+02  0.12207743454E+03  0.00000000000E+00 0.  1.
<mgrwt>
<rscale>  0 0.12577471E+03</rscale>
<asrwt>0</asrwt>
<pdfrwt beam="1">  1        2 0.64614897E-01 0.13561310E+03</pdfrwt>
<pdfrwt beam="2">  1       -2 0.62236318E-02 0.13561310E+03</pdfrwt>
<totfact> 0.10049436E+04</totfact>
</mgrwt>
</event>
<event>
 6    1  0.1535419E-002  0.8813104E+02  0.7546771E-02  0.1430127E+00
         -2   -1    0    0    0  501 -0.00000000000E+00  0.00000000000E+00  0.41861011800E+01  0.41861011800E+01  0.00000000000E+00 0.  1.
          2   -1    0    0  501    0  0.00000000000E+00 -0.00000000000E+00 -0.70757506890E+03  0.70757506890E+03  0.00000000000E+00 0. -1.
         23    2    1    2    0    0  0.16319418627E+01 -0.11353438925E+02 -0.68025068827E+03  0.68593591528E+03  0.87381446356E+02 0.  0.
         11    1    3    3    0    0 -0.29810241139E+02  0.91214594799E+01 -0.10674316142E+03  0.11120231117E+03  0.00000000000E+00 0.  1.
        -11    1    3    3    0    0  0.31442183001E+02 -0.20474898405E+02 -0.57350752686E+03  0.57473360411E+03  0.00000000000E+00 0. -1.
         22    1    1    2    0    0 -0.16319418627E+01  0.11353438925E+02 -0.23138279450E+02  0.25825254802E+02  0.00000000000E+00 0.  1.
<mgrwt>
<rscale>  0 0.52934491E+02</rscale>
<asrwt>0</asrwt>
<pdfrwt beam="1">  1        2 0.10885773E+00 0.88131044E+02</pdfrwt>
<pdfrwt beam="2">  1       -2 0.64401539E-03 0.88131044E+02</pdfrwt>
<totfact> 0.14389235E+05</totfact>
</mgrwt>
</event>
<event>
 6    1  0.1535419E-002  0.8637560E+02  0.7546771E-02  0.1405880E+00
          2   -1    0    0  501    0  0.00000000000E+00  0.00000000000E+00  0.25866759620E+04  0.25866759620E+04  0.00000000000E+00 0. -1.
         -2   -1    0    0    0  501 -0.00000000000E+00 -0.00000000000E+00 -0.16976446685E+01  0.16976446685E+01  0.00000000000E+00 0.  1.
         23    2    1    2    0    0  0.89709151964E+01 -0.15270415196E+02  0.25036374409E+04  0.25051269787E+04  0.84540408820E+02 0.  0.
         13    1    3    3    0    0  0.33426941630E+02 -0.36588113906E+02  0.18730532137E+04  0.18737087266E+04  0.00000000000E+00 0. -1.
        -13    1    3    3    0    0 -0.24456026434E+02  0.21317698710E+02  0.63058422719E+03  0.63141825210E+03  0.00000000000E+00 0.  1.
         22    1    1    2    0    0 -0.89709151964E+01  0.15270415196E+02  0.81340876403E+02  0.83246628002E+02  0.00000000000E+00 0.  1.
<mgrwt>
<rscale>  0 0.58123424E+02</rscale>
<asrwt>0</asrwt>
<pdfrwt beam="1">  1        2 0.39794700E+00 0.86375596E+02</pdfrwt>
<pdfrwt beam="2">  1       -2 0.26117817E-03 0.86375596E+02</pdfrwt>
<totfact> 0.49561123E+04</totfact>
</mgrwt>
</event>
<event>
 6    1  0.1535419E-002  0.9031527E+02  0.7546771E-02  0.1399801E+00
          2   -1    0    0  501    0  0.00000000000E+00  0.00000000000E+00  0.13898092101E+02  0.13898092101E+02  0.00000000000E+00 0. -1.
         -2   -1    0    0    0  501 -0.00000000000E+00 -0.00000000000E+00 -0.22795114990E+03  0.22795114990E+03  0.00000000000E+00 0.  1.
         23    2    1    2    0    0 -0.12017582619E+02  0.12096266988E+02 -0.14586657923E+03  0.17156312796E+03  0.88691070424E+02 0.  0.
         11    1    3    3    0    0 -0.12666594779E+02 -0.26863465848E+02 -0.11815772490E+02  0.31964056378E+02  0.00000000000E+00 0. -1.
        -11    1    3    3    0    0  0.64901215977E+00  0.38959732836E+02 -0.13405080674E+03  0.13959907158E+03  0.00000000000E+00 0.  1.
         22    1    1    2    0    0  0.12017582619E+02 -0.12096266988E+02 -0.68186478574E+02  0.70286114043E+02  0.00000000000E+00 0. -1.
<mgrwt>
<rscale>  0 0.59533217E+02</rscale>
<asrwt>0</asrwt>
<pdfrwt beam="1">  1        2 0.21381683E-02 0.90315270E+02</pdfrwt>
<pdfrwt beam="2">  1       -2 0.35069403E-01 0.90315270E+02</pdfrwt>
<totfact> 0.33152102E+04</totfact>
</mgrwt>
</event>
<event>
 6    1  0.1535419E-002  0.8811404E+02  0.7546771E-02  0.1417131E+00
          2   -1    0    0  501    0  0.00000000000E+00  0.00000000000E+00  0.87622126503E+03  0.87622126503E+03  0.00000000000E+00 0. -1.
         -2   -1    0    0    0  501 -0.00000000000E+00 -0.00000000000E+00 -0.46838271264E+01  0.46838271264E+01  0.00000000000E+00 0.  1.
         23    2    1    2    0    0 -0.13920204450E+02  0.15075190654E+01  0.85366838690E+03  0.85820382150E+03  0.86994481078E+02 0.  0.
         13    1    3    3    0    0 -0.14293249155E+01 -0.16331807995E+02  0.80156134608E+03  0.80172898317E+03  0.00000000000E+00 0. -1.
        -13    1    3    3    0    0 -0.12490879535E+02  0.17839327060E+02  0.52107040819E+02  0.56474838331E+02  0.00000000000E+00 0.  1.
         22    1    1    2    0    0  0.13920204450E+02 -0.15075190654E+01  0.17869051003E+02  0.22701270656E+02  0.00000000000E+00 0. -1.
<mgrwt>
<rscale>  0 0.55632456E+02</rscale>
<asrwt>0</asrwt>
<pdfrwt beam="1">  1        2 0.13480314E+00 0.88114042E+02</pdfrwt>
<pdfrwt beam="2">  1       -2 0.72058948E-03 0.88114042E+02</pdfrwt>
<totfact> 0.94778450E+04</totfact>
</mgrwt>
</event>
<event>
 6    1  0.1535419E-002  0.9123783E+02  0.7546771E-02  0.1426773E+00
         -2   -1    0    0    0  501 -0.00000000000E+00  0.00000000000E+00  0.22797097001E+01  0.22797097001E+01  0.00000000000E+00 0.  1.
          2   -1    0    0  501    0  0.00000000000E+00 -0.00000000000E+00 -0.21665063489E+04  0.21665063489E+04  0.00000000000E+00 0. -1.
         23    2    1    2    0    0 -0.71521023935E+01 -0.81966771255E+01 -0.21429349913E+04  0.21448763879E+04  0.90586997930E+02 0.  0.
         11    1    3    3    0    0  0.10895263784E+02 -0.44906734572E+02 -0.81276829472E+03  0.81408084518E+03  0.00000000000E+00 0. -1.
        -11    1    3    3    0    0 -0.18047366177E+02  0.36710057447E+02 -0.13301666966E+04  0.13307955427E+04  0.00000000000E+00 0.  1.
         22    1    1    2    0    0  0.71521023935E+01  0.81966771255E+01 -0.21291647924E+02  0.23909670761E+02  0.00000000000E+00 0.  1.
<mgrwt>
<rscale>  0 0.53613207E+02</rscale>
<asrwt>0</asrwt>
<pdfrwt beam="1">  1        2 0.33330698E+00 0.91237834E+02</pdfrwt>
<pdfrwt beam="2">  1       -2 0.35072634E-03 0.91237834E+02</pdfrwt>
<totfact> 0.54471145E+04</totfact>
</mgrwt>
</event>
<event>
 6    1  0.1535419E-002  0.9617138E+02  0.7546771E-02  0.1350971E+00
         -2   -1    0    0    0  501 -0.00000000000E+00  0.00000000000E+00  0.36633854748E+02  0.36633854748E+02  0.00000000000E+00 0.  1.
          2   -1    0    0  501    0  0.00000000000E+00 -0.00000000000E+00 -0.15299864255E+03  0.15299864255E+03  0.00000000000E+00 0. -1.
         23    2    1    2    0    0  0.22076308388E+02 -0.22467287582E+02 -0.12428988921E+03  0.15715250907E+03  0.90866892454E+02 0.  0.
         13    1    3    3    0    0 -0.28716021058E+01 -0.55004402934E+02 -0.67847284282E+02  0.87389841659E+02  0.00000000000E+00 0. -1.
        -13    1    3    3    0    0  0.24947910493E+02  0.32537115352E+02 -0.56442604926E+02  0.69762667411E+02  0.00000000000E+00 0.  1.
         22    1    1    2    0    0 -0.22076308388E+02  0.22467287582E+02  0.79251014028E+01  0.32479988232E+02  0.00000000000E+00 0.  1.
<mgrwt>
<rscale>  0 0.72753877E+02</rscale>
<asrwt>0</asrwt>
<pdfrwt beam="1">  1        2 0.23538253E-01 0.96171381E+02</pdfrwt>
<pdfrwt beam="2">  1       -2 0.56359776E-02 0.96171381E+02</pdfrwt>
<totfact> 0.33180469E+04</totfact>
</mgrwt>
</event>
<event>
 6    1  0.1535419E-002  0.9331498E+02  0.7546771E-02  0.1391327E+00
         -2   -1    0    0    0  501 -0.00000000000E+00  0.00000000000E+00  0.33097249373E+01  0.33097249373E+01  0.00000000000E+00 0.  1.
          2   -1    0    0  501    0  0.00000000000E+00 -0.00000000000E+00 -0.10833642736E+04  0.10833642736E+04  0.00000000000E+00 0. -1.
         23    2    1    2    0    0 -0.17668559308E+02  0.96429955427E+00 -0.10141923750E+04  0.10184762435E+04  0.91621926248E+02 0.  0.
         11    1    3    3    0    0  0.31338521096E+02  0.83888863085E+01 -0.18646654471E+03  0.18926766394E+03  0.00000000000E+00 0.  1.
        -11    1    3    3    0    0 -0.49007080403E+02 -0.74245867542E+01 -0.82772583025E+03  0.82920857960E+03  0.00000000000E+00 0. -1.
         22    1    1    2    0    0  0.17668559308E+02 -0.96429955427E+00 -0.65862173705E+02  0.68197754998E+02  0.00000000000E+00 0.  1.
<mgrwt>
<rscale>  0 0.61577956E+02</rscale>
<asrwt>0</asrwt>
<pdfrwt beam="1">  1        2 0.16667163E+00 0.93314979E+02</pdfrwt>
<pdfrwt beam="2">  1       -2 0.50918783E-03 0.93314979E+02</pdfrwt>
<totfact> 0.11718452E+05</totfact>
</mgrwt>
</event>
<event>
 6    1  0.1535419E-002  0.1222652E+03  0.7546771E-02  0.1261670E+00
          2   -1    0    0  501    0  0.00000000000E+00  0.00000000000E+00  0.84030528894E+03  0.84030528894E+03  0.00000000000E+00 0. -1.
         -2   -1    0    0    0  501 -0.00000000000E+00 -0.00000000000E+00 -0.16950525642E+02  0.16950525642E+02  0.00000000000E+00 0.  1.
         23    2    1    2    0    0  0.77352914442E+02 -0.12740264646E+02  0.70345840737E+03  0.71400455323E+03  0.93824215475E+02 0.  0.
         11    1    3    3    0    0 -0.86217009200E+01  0.10280149025E+02  0.16325615624E+02  0.21131514764E+02  0.00000000000E+00 0.  1.
        -11    1    3    3    0    0  0.85974615362E+02 -0.23020413671E+02  0.68713279175E+03  0.69287303846E+03  0.00000000000E+00 0. -1.
         22    1    1    2    0    0 -0.77352914442E+02  0.12740264646E+02  0.11989635593E+03  0.14325126136E+03  0.00000000000E+00 0.  1.
<mgrwt>
<rscale>  0 0.10940804E+03</rscale>
<asrwt>0</asrwt>
<pdfrwt beam="1">  1        2 0.12927770E+00 0.12226517E+03</pdfrwt>
<pdfrwt beam="2">  1       -2 0.26077738E-02 0.12226517E+03</pdfrwt>
<totfact> 0.16422916E+04</totfact>
</mgrwt>
</event>
<event>
 6    1  0.1535419E-002  0.9411774E+02  0.7546771E-02  0.1385599E+00
          2   -1    0    0  501    0  0.00000000000E+00  0.00000000000E+00  0.24994850974E+03  0.24994850974E+03  0.00000000000E+00 0. -1.
         -2   -1    0    0    0  501 -0.00000000000E+00 -0.00000000000E+00 -0.13117645964E+02  0.13117645964E+02  0.00000000000E+00 0.  1.
         23    2    1    2    0    0  0.12830128844E+01 -0.18868965083E+02  0.21111711698E+03  0.23114624437E+03  0.92197967650E+02 0.  0.
         11    1    3    3    0    0  0.85754772810E+01 -0.43478892043E+02  0.19685644176E+03  0.20178308038E+03  0.00000000000E+00 0. -1.
        -11    1    3    3    0    0 -0.72924643966E+01  0.24609926960E+02  0.14260675221E+02  0.29363163993E+02  0.00000000000E+00 0.  1.
         22    1    1    2    0    0 -0.12830128844E+01  0.18868965083E+02  0.25713746796E+02  0.31919911335E+02  0.00000000000E+00 0.  1.
<mgrwt>
<rscale>  0 0.63014581E+02</rscale>
<asrwt>0</asrwt>
<pdfrwt beam="1">  1        2 0.38453613E-01 0.94117741E+02</pdfrwt>
<pdfrwt beam="2">  1       -2 0.20180996E-02 0.94117741E+02</pdfrwt>
<totfact> 0.87898538E+04</totfact>
</mgrwt>
</event>
<event>
 6    1  0.1535419E-002  0.1145976E+03  0.7546771E-02  0.1273006E+00
         -2   -1    0    0    0  501 -0.00000000000E+00  0.00000000000E+00  0.87276247611E+01  0.87276247611E+01  0.00000000000E+00 0.  1.
          2   -1    0    0  501    0  0.00000000000E+00 -0.00000000000E+00 -0.11717056011E+04  0.11717056011E+04  0.00000000000E+00 0. -1.
         23    2    1    2    0    0  0.40198267277E+02  0.64961112038E+02 -0.87590139602E+03  0.88336621366E+03  0.85421104649E+02 0.  0.
         13    1    3    3    0    0 -0.12674901173E+02 -0.13465513180E+02 -0.20462560791E+03  0.20545951567E+03  0.00000000000E+00 0.  1.
        -13    1    3    3    0    0  0.52873168450E+02  0.78426625218E+02 -0.67127578811E+03  0.67790669799E+03  0.00000000000E+00 0. -1.
         22    1    1    2    0    0 -0.40198267277E+02 -0.64961112038E+02 -0.28707658030E+03  0.29706701218E+03  0.00000000000E+00 0.  1.
<mgrwt>
<rscale>  0 0.10354870E+03</rscale>
<asrwt>0</asrwt>
<pdfrwt beam="1">  1        2 0.18026224E+00 0.11459761E+03</pdfrwt>
<pdfrwt beam="2">  1       -2 0.13427127E-02 0.11459761E+03</pdfrwt>
<totfact> 0.27061423E+04</totfact>
</mgrwt>
</event>
<event>
 6    1  0.1535419E-002  0.9590205E+02  0.7546771E-02  0.1377688E+00
          2   -1    0    0  501    0  0.00000000000E+00  0.00000000000E+00  0.16052015820E+03  0.16052015820E+03  0.00000000000E+00 0. -1.
         -2   -1    0    0    0  501 -0.00000000000E+00 -0.00000000000E+00 -0.25171925775E+02  0.25171925775E+02  0.00000000000E+00 0.  1.
         23    2    1    2    0    0  0.40128583406E+01  0.19932379185E+02  0.13469670031E+03  0.16534933917E+03  0.93721929761E+02 0.  0.
         13    1    3    3    0    0  0.80828725689E+01 -0.30292298370E+02  0.98330304647E+02  0.10320758200E+03  0.00000000000E+00 0. -1.
        -13    1    3    3    0    0 -0.40700142283E+01  0.50224677556E+02  0.36366395664E+02  0.62141757176E+02  0.00000000000E+00 0.  1.
         22    1    1    2    0    0 -0.40128583406E+01 -0.19932379185E+02  0.65153211459E+00  0.20342744803E+02  0.00000000000E+00 0.  1.
<mgrwt>
<rscale>  0 0.65075511E+02</rscale>
<asrwt>0</asrwt>
<pdfrwt beam="1">  1        2 0.24695408E-01 0.95902048E+02</pdfrwt>
<pdfrwt beam="2">  1       -2 0.38726041E-02 0.95902048E+02</pdfrwt>
<totfact> 0.54904908E+04</totfact>
</mgrwt>
</event>
<event>
 6    1  0.1535419E-002  0.9201968E+02  0.7546771E-02  0.1420673E+00
         -2   -1    0    0    0  501 -0.00000000000E+00  0.00000000000E+00  0.63019411727E+02  0.63019411727E+02  0.00000000000E+00 0.  1.
          2   -1    0    0  501    0  0.00000000000E+00 -0.00000000000E+00 -0.49432193059E+02  0.49432193059E+02  0.00000000000E+00 0. -1.
         23    2    1    2    0    0 -0.11793463735E+01 -0.11580717104E+02 -0.31392600568E+01  0.92073210417E+02  0.91280431946E+02 0.  0.
         13    1    3    3    0    0 -0.43385157971E+02 -0.74945833865E+01  0.14201290928E+02  0.46261402662E+02  0.00000000000E+00 0.  1.
        -13    1    3    3    0    0  0.42205811597E+02 -0.40861337174E+01 -0.17340550985E+02  0.45811807755E+02  0.00000000000E+00 0. -1.
         22    1    1    2    0    0  0.11793463735E+01  0.11580717104E+02  0.16726478725E+02  0.20378394369E+02  0.00000000000E+00 0. -1.
<mgrwt>
<rscale>  0 0.54878786E+02</rscale>
<asrwt>0</asrwt>
<pdfrwt beam="1">  1        2 0.76049528E-02 0.92019678E+02</pdfrwt>
<pdfrwt beam="2">  1       -2 0.96952941E-02 0.92019678E+02</pdfrwt>
<totfact> 0.54366798E+04</totfact>
</mgrwt>
</event>
<event>
 6    1  0.1535419E-002  0.9160807E+02  0.7546771E-02  0.1416810E+00
         -2   -1    0    0    0  501 -0.00000000000E+00  0.00000000000E+00  0.51603007927E+01  0.51603007927E+01  0.00000000000E+00 0.  1.
          2   -1    0    0  501    0  0.00000000000E+00 -0.00000000000E+00 -0.65596707965E+03  0.65596707965E+03  0.00000000000E+00 0. -1.
         23    2    1    2    0    0  0.10088953447E+02 -0.74169823646E+01 -0.63153635459E+03  0.63814591268E+03  0.90748223631E+02 0.  0.
         13    1    3    3    0    0  0.48959829396E+02  0.73994378924E+01 -0.37585514565E+03  0.37910276586E+03  0.00000000000E+00 0. -1.
        -13    1    3    3    0    0 -0.38870875949E+02 -0.14816420257E+02 -0.25568120895E+03  0.25904314682E+03  0.00000000000E+00 0.  1.
         22    1    1    2    0    0 -0.10088953447E+02  0.74169823646E+01 -0.19270424262E+02  0.22981467758E+02  0.00000000000E+00 0.  1.
<mgrwt>
<rscale>  0 0.55701653E+02</rscale>
<asrwt>0</asrwt>
<pdfrwt beam="1">  1        2 0.10091798E+00 0.91608071E+02</pdfrwt>
<pdfrwt beam="2">  1       -2 0.79389269E-03 0.91608071E+02</pdfrwt>
<totfact> 0.11766628E+05</totfact>
</mgrwt>
</event>
<event>
 6    1  0.1535419E-002  0.9388194E+02  0.7546771E-02  0.1421304E+00
         -2   -1    0    0    0  501 -0.00000000000E+00  0.00000000000E+00  0.91284610134E+01  0.91284610134E+01  0.00000000000E+00 0.  1.
          2   -1    0    0  501    0  0.00000000000E+00 -0.00000000000E+00 -0.49207891163E+03  0.49207891163E+03  0.00000000000E+00 0. -1.
         23    2    1    2    0    0  0.95955313435E+01  0.50767573303E+01 -0.48112520918E+03  0.49019923052E+03  0.93252190372E+02 0.  0.
         11    1    3    3    0    0  0.12844479392E+02  0.39882693880E+02 -0.11475603582E+03  0.12216610692E+03  0.00000000000E+00 0.  1.
        -11    1    3    3    0    0 -0.32489480486E+01 -0.34805936550E+02 -0.36636917336E+03  0.36803312360E+03  0.00000000000E+00 0. -1.
         22    1    1    2    0    0 -0.95955313435E+01 -0.50767573303E+01 -0.18252414415E+01  0.11008142126E+02  0.00000000000E+00 0.  1.
<mgrwt>
<rscale>  0 0.54745909E+02</rscale>
<asrwt>0</asrwt>
<pdfrwt beam="1">  1        2 0.75704467E-01 0.93881940E+02</pdfrwt>
<pdfrwt beam="2">  1       -2 0.14043783E-02 0.93881940E+02</pdfrwt>
<totfact> 0.72327176E+04</totfact>
</mgrwt>
</event>
<event>
 6    1  0.1535419E-002  0.9581235E+02  0.7546771E-02  0.1369105E+00
         -2   -1    0    0    0  501 -0.00000000000E+00  0.00000000000E+00  0.20878934610E+02  0.20878934610E+02  0.00000000000E+00 0.  1.
          2   -1    0    0  501    0  0.00000000000E+00 -0.00000000000E+00 -0.18027813361E+03  0.18027813361E+03  0.00000000000E+00 0. -1.
         23    2    1    2    0    0 -0.10250356872E+01  0.23463333349E+02 -0.14438212521E+03  0.17328071238E+03  0.92889334649E+02 0.  0.
         11    1    3    3    0    0 -0.64143053107E+01  0.37811653511E+01 -0.15148903873E+03  0.15167191362E+03  0.00000000000E+00 0. -1.
        -11    1    3    3    0    0  0.53892696235E+01  0.19682167997E+02  0.71069135196E+01  0.21608798762E+02  0.00000000000E+00 0.  1.
         22    1    1    2    0    0  0.10250356872E+01 -0.23463333349E+02 -0.15017073790E+02  0.27876355845E+02  0.00000000000E+00 0.  1.
<mgrwt>
<rscale>  0 0.67416635E+02</rscale>
<asrwt>0</asrwt>
<pdfrwt beam="1">  1        2 0.27735096E-01 0.95812354E+02</pdfrwt>
<pdfrwt beam="2">  1       -2 0.32121439E-02 0.95812354E+02</pdfrwt>
<totfact> 0.63646271E+04</totfact>
</mgrwt>
</event>
<event>
 6    1  0.1535419E-002  0.9321387E+02  0.7546771E-02  0.1401727E+00
         -2   -1    0    0    0  501 -0.00000000000E+00  0.00000000000E+00  0.99390627669E+01  0.99390627669E+01  0.00000000000E+00 0.  1.
          2   -1    0    0  501    0  0.00000000000E+00 -0.00000000000E+00 -0.29983723801E+03  0.29983723801E+03  0.00000000000E+00 0. -1.
         23    2    1    2    0    0  0.12136865640E+02  0.88894735272E+01 -0.23382331059E+03  0.25171842713E+03  0.91991846007E+02 0.  0.
         11    1    3    3    0    0 -0.15625614695E+02 -0.28178142202E+02 -0.35000195804E+02  0.47572904461E+02  0.00000000000E+00 0.  1.
        -11    1    3    3    0    0  0.27762480336E+02  0.37067615729E+02 -0.19882311479E+03  0.20414552267E+03  0.00000000000E+00 0. -1.
         22    1    1    2    0    0 -0.12136865640E+02 -0.88894735272E+01 -0.56074864652E+02  0.58057873651E+02  0.00000000000E+00 0.  1.
<mgrwt>
<rscale>  0 0.59081604E+02</rscale>
<asrwt>0</asrwt>
<pdfrwt beam="1">  1        2 0.46128805E-01 0.93213872E+02</pdfrwt>
<pdfrwt beam="2">  1       -2 0.15290866E-02 0.93213872E+02</pdfrwt>
<totfact> 0.10795086E+05</totfact>
</mgrwt>
</event>
<event>
 6    1  0.1535419E-002  0.9895587E+02  0.7546771E-02  0.1331915E+00
         -2   -1    0    0    0  501 -0.00000000000E+00  0.00000000000E+00  0.38472778062E+01  0.38472778062E+01  0.00000000000E+00 0. -1.
          2   -1    0    0  501    0  0.00000000000E+00 -0.00000000000E+00 -0.15199676987E+04  0.15199676987E+04  0.00000000000E+00 0.  1.
         23    2    1    2    0    0 -0.19420692598E+02 -0.35192259406E+02 -0.13149517286E+04  0.13186699030E+04  0.90424588035E+02 0.  0.
         13    1    3    3    0    0  0.12280312157E+02  0.85439685240E+00 -0.25407817648E+02  0.28232840068E+02  0.00000000000E+00 0. -1.
        -13    1    3    3    0    0 -0.31701004756E+02 -0.36046656259E+02 -0.12895439109E+04  0.12904370629E+04  0.00000000000E+00 0.  1.
         22    1    1    2    0    0  0.19420692598E+02  0.35192259406E+02 -0.20116869238E+03  0.20514507359E+03  0.00000000000E+00 0.  1.
<mgrwt>
<rscale>  0 0.78999596E+02</rscale>
<asrwt>0</asrwt>
<pdfrwt beam="1">  1        2 0.23384128E+00 0.98955872E+02</pdfrwt>
<pdfrwt beam="2">  1       -2 0.59188864E-03 0.98955872E+02</pdfrwt>
<totfact> 0.55869569E+04</totfact>
</mgrwt>
</event>
<event>
 6    1  0.1535419E-002  0.9020107E+02  0.7546771E-02  0.1413064E+00
         -2   -1    0    0    0  501 -0.00000000000E+00  0.00000000000E+00  0.10742438834E+02  0.10742438834E+02  0.00000000000E+00 0.  1.
          2   -1    0    0  501    0  0.00000000000E+00 -0.00000000000E+00 -0.33131219680E+03  0.33131219680E+03  0.00000000000E+00 0. -1.
         23    2    1    2    0    0  0.93441651504E+01  0.10291708504E+02 -0.31396343937E+03  0.32666385490E+03  0.89123510635E+02 0.  0.
         11    1    3    3    0    0 -0.12174147542E+02 -0.14987806327E+00 -0.29721666402E+03  0.29746592696E+03  0.00000000000E+00 0. -1.
        -11    1    3    3    0    0  0.21518312692E+02  0.10441586567E+02 -0.16746775355E+02  0.29197927939E+02  0.00000000000E+00 0.  1.
         22    1    1    2    0    0 -0.93441651504E+01 -0.10291708504E+02 -0.66063185917E+01  0.15390780735E+02  0.00000000000E+00 0.  1.
<mgrwt>
<rscale>  0 0.56515664E+02</rscale>
<asrwt>0</asrwt>
<pdfrwt beam="1">  1        2 0.50971109E-01 0.90201069E+02</pdfrwt>
<pdfrwt beam="2">  1       -2 0.16526828E-02 0.90201069E+02</pdfrwt>
<totfact> 0.86611892E+04</totfact>
</mgrwt>
</event>
<event>
 6    1  0.1535419E-002  0.1497691E+03  0.7546771E-02  0.1213562E+00
          2   -1    0    0  501    0  0.00000000000E+00  0.00000000000E+00  0.14474289369E+04  0.14474289369E+04  0.00000000000E+00 0. -1.
         -2   -1    0    0    0  501 -0.00000000000E+00 -0.00000000000E+00 -0.13676827690E+02  0.13676827690E+02  0.00000000000E+00 0.  1.
         23    2    1    2    0    0  0.11378206578E+03 -0.12457169167E+01  0.10566082839E+04  0.10671700144E+04  0.97379996591E+02 0.  0.
         13    1    3    3    0    0  0.40390279673E+02 -0.14028869551E+02  0.11622177632E+03  0.12383733348E+03  0.00000000000E+00 0.  1.
        -13    1    3    3    0    0  0.73391786106E+02  0.12783152634E+02  0.94038650761E+03  0.94333268096E+03  0.00000000000E+00 0. -1.
         22    1    1    2    0    0 -0.11378206578E+03  0.12457169167E+01  0.37714382527E+03  0.39393575014E+03  0.00000000000E+00 0.  1.
<mgrwt>
<rscale>  0 0.13982717E+03</rscale>
<asrwt>0</asrwt>
<pdfrwt beam="1">  1        2 0.22268125E+00 0.14976907E+03</pdfrwt>
<pdfrwt beam="2">  1       -2 0.21041285E-02 0.14976907E+03</pdfrwt>
<totfact> 0.10216291E+04</totfact>
</mgrwt>
</event>
<event>
 6    1  0.1535419E-002  0.9065825E+02  0.7546771E-02  0.1420661E+00
         -2   -1    0    0    0  501 -0.00000000000E+00  0.00000000000E+00  0.80381170560E+01  0.80381170560E+01  0.00000000000E+00 0.  1.
          2   -1    0    0  501    0  0.00000000000E+00 -0.00000000000E+00 -0.87227133673E+03  0.87227133673E+03  0.00000000000E+00 0. -1.
         23    2    1    2    0    0  0.12140052192E+02 -0.92511116487E+00 -0.86335581218E+03  0.86810263021E+03  0.89836971499E+02 0.  0.
         13    1    3    3    0    0  0.47566143443E+02  0.52811686430E+01 -0.64793962575E+03  0.64970469243E+03  0.00000000000E+00 0. -1.
        -13    1    3    3    0    0 -0.35426091250E+02 -0.62062798079E+01 -0.21541618644E+03  0.21839793778E+03  0.00000000000E+00 0.  1.
         22    1    1    2    0    0 -0.12140052192E+02  0.92511116487E+00 -0.87740748971E+00  0.12206823575E+02  0.00000000000E+00 0.  1.
<mgrwt>
<rscale>  0 0.54881372E+02</rscale>
<asrwt>0</asrwt>
<pdfrwt beam="1">  1        2 0.13419548E+00 0.90658249E+02</pdfrwt>
<pdfrwt beam="2">  1       -2 0.12366344E-02 0.90658249E+02</pdfrwt>
<totfact> 0.44580695E+04</totfact>
</mgrwt>
</event>
<event>
 6    1  0.1535419E-002  0.9372139E+02  0.7546771E-02  0.1416782E+00
          2   -1    0    0  501    0  0.00000000000E+00  0.00000000000E+00  0.61642744620E+03  0.61642744620E+03  0.00000000000E+00 0.  1.
         -2   -1    0    0    0  501 -0.00000000000E+00 -0.00000000000E+00 -0.65229154710E+01  0.65229154710E+01  0.00000000000E+00 0. -1.
         23    2    1    2    0    0 -0.65070686831E+01 -0.97221483877E+01  0.60095950550E+03  0.60822366522E+03  0.92988373297E+02 0.  0.
         11    1    3    3    0    0 -0.64364325237E+01  0.10965126354E+02  0.57448194773E+03  0.57462263263E+03  0.00000000000E+00 0.  1.
        -11    1    3    3    0    0 -0.70636159385E-01 -0.20687274741E+02  0.26477557768E+02  0.33601032589E+02  0.00000000000E+00 0. -1.
         22    1    1    2    0    0  0.65070686831E+01  0.97221483877E+01  0.89450252335E+01  0.14726696457E+02  0.00000000000E+00 0. -1.
<mgrwt>
<rscale>  0 0.55707601E+02</rscale>
<asrwt>0</asrwt>
<pdfrwt beam="1">  1        2 0.94834946E-01 0.93721394E+02</pdfrwt>
<pdfrwt beam="2">  1       -2 0.10035259E-02 0.93721394E+02</pdfrwt>
<totfact> 0.90961728E+04</totfact>
</mgrwt>
</event>
<event>
 6    1  0.1535419E-002  0.9257388E+02  0.7546771E-02  0.1406222E+00
         -1   -1    0    0    0  501 -0.00000000000E+00  0.00000000000E+00  0.19576813477E+02  0.19576813477E+02  0.00000000000E+00 0.  1.
          1   -1    0    0  501    0  0.00000000000E+00 -0.00000000000E+00 -0.18462434175E+03  0.18462434175E+03  0.00000000000E+00 0. -1.
         23    2    1    2    0    0  0.13919881300E+02  0.33140299238E+01 -0.16577716735E+03  0.18987362010E+03  0.91461338848E+02 0.  0.
         13    1    3    3    0    0  0.25816500367E+01 -0.43651405121E+02 -0.68658770325E+02  0.81401086163E+02  0.00000000000E+00 0.  1.
        -13    1    3    3    0    0  0.11338231264E+02  0.46965435045E+02 -0.97118397026E+02  0.10847253393E+03  0.00000000000E+00 0. -1.
         22    1    1    2    0    0 -0.13919881300E+02 -0.33140299238E+01  0.72963907701E+00  0.14327535131E+02  0.00000000000E+00 0.  1.
<mgrwt>
<rscale>  0 0.58045457E+02</rscale>
<asrwt>0</asrwt>
<pdfrwt beam="1">  1        1 0.28403746E-01 0.92573875E+02</pdfrwt>
<pdfrwt beam="2">  1       -1 0.30118173E-02 0.92573875E+02</pdfrwt>
<totfact> 0.52917768E+04</totfact>
</mgrwt>
</event>
<event>
 6    1  0.1535419E-002  0.9161476E+02  0.7546771E-02  0.1402035E+00
          2   -1    0    0  501    0  0.00000000000E+00  0.00000000000E+00  0.93441925842E+01  0.93441925842E+01  0.00000000000E+00 0. -1.
         -2   -1    0    0    0  501 -0.00000000000E+00 -0.00000000000E+00 -0.31614194839E+03  0.31614194839E+03  0.00000000000E+00 0.  1.
         23    2    1    2    0    0  0.15753349583E+02 -0.69589622082E+00 -0.24102096417E+03  0.25784563083E+03  0.90247503424E+02 0.  0.
         13    1    3    3    0    0  0.17066875403E+01  0.27215732095E+02 -0.18063677852E+02  0.32709407108E+02  0.00000000000E+00 0. -1.
        -13    1    3    3    0    0  0.14046662042E+02 -0.27911628315E+02 -0.22295728632E+03  0.22513622372E+03  0.00000000000E+00 0.  1.
         22    1    1    2    0    0 -0.15753349583E+02  0.69589622082E+00 -0.65776791636E+02  0.67640510145E+02  0.00000000000E+00 0. -1.
<mgrwt>
<rscale>  0 0.59009664E+02</rscale>
<asrwt>0</asrwt>
<pdfrwt beam="1">  1        2 0.14375683E-02 0.91614760E+02</pdfrwt>
<pdfrwt beam="2">  1       -2 0.48637215E-01 0.91614760E+02</pdfrwt>
<totfact> 0.30649504E+04</totfact>
</mgrwt>
</event>
<event>
 6    1  0.1535419E-002  0.9207325E+02  0.7546771E-02  0.1383689E+00
         -2   -1    0    0    0  501 -0.00000000000E+00  0.00000000000E+00  0.37929673956E+02  0.37929673956E+02  0.00000000000E+00 0. -1.
          2   -1    0    0  501    0  0.00000000000E+00 -0.00000000000E+00 -0.91702294701E+02  0.91702294701E+02  0.00000000000E+00 0.  1.
         23    2    1    2    0    0  0.17363883943E+02  0.11515593678E+02 -0.27483688484E+02  0.96087649872E+02  0.89684836856E+02 0.  0.
         13    1    3    3    0    0  0.30813039663E+02 -0.25518444089E+02 -0.38136638255E+02  0.55272394370E+02  0.00000000000E+00 0.  1.
        -13    1    3    3    0    0 -0.13449155720E+02  0.37034037767E+02  0.10652949771E+02  0.40815255502E+02  0.00000000000E+00 0. -1.
         22    1    1    2    0    0 -0.17363883943E+02 -0.11515593678E+02 -0.26288932261E+02  0.33544318786E+02  0.00000000000E+00 0. -1.
<mgrwt>
<rscale>  0 0.63503915E+02</rscale>
<asrwt>0</asrwt>
<pdfrwt beam="1">  1        2 0.14108045E-01 0.92073250E+02</pdfrwt>
<pdfrwt beam="2">  1       -2 0.58353344E-02 0.92073250E+02</pdfrwt>
<totfact> 0.55881777E+04</totfact>
</mgrwt>
</event>
<event>
 6    1  0.1535419E-002  0.9362703E+02  0.7546771E-02  0.1374702E+00
         -2   -1    0    0    0  501 -0.00000000000E+00  0.00000000000E+00  0.11479378384E+02  0.11479378384E+02  0.00000000000E+00 0. -1.
          2   -1    0    0  501    0  0.00000000000E+00 -0.00000000000E+00 -0.29948465550E+03  0.29948465550E+03  0.00000000000E+00 0.  1.
         23    2    1    2    0    0 -0.16950504725E+02 -0.15468493118E+02 -0.24374694077E+03  0.26111030557E+03  0.90771287613E+02 0.  0.
         11    1    3    3    0    0 -0.42863012686E+02 -0.49151386051E+01 -0.22065300168E+03  0.22483136702E+03  0.00000000000E+00 0.  1.
        -11    1    3    3    0    0  0.25912507961E+02 -0.10553354513E+02 -0.23093939082E+02  0.36278938555E+02  0.00000000000E+00 0. -1.
         22    1    1    2    0    0  0.16950504725E+02  0.15468493118E+02 -0.44258336347E+02  0.49853728306E+02  0.00000000000E+00 0.  1.
<mgrwt>
<rscale>  0 0.65877242E+02</rscale>
<asrwt>0</asrwt>
<pdfrwt beam="1">  1        2 0.46074562E-01 0.93627029E+02</pdfrwt>
<pdfrwt beam="2">  1       -2 0.17660582E-02 0.93627029E+02</pdfrwt>
<totfact> 0.88009319E+04</totfact>
</mgrwt>
</event>
<event>
 6    1  0.1535419E-002  0.9151121E+02  0.7546771E-02  0.1429778E+00
          2   -1    0    0  501    0  0.00000000000E+00  0.00000000000E+00  0.16507737466E+02  0.16507737466E+02  0.00000000000E+00 0. -1.
         -2   -1    0    0    0  501 -0.00000000000E+00 -0.00000000000E+00 -0.16355820899E+03  0.16355820899E+03  0.00000000000E+00 0.  1.
         23    2    1    2    0    0  0.51025898641E+01 -0.89471216265E+01 -0.11854822012E+03  0.14975974670E+03  0.90929719170E+02 0.  0.
         11    1    3    3    0    0  0.27721772077E+02  0.12583368707E+01  0.89629169368E+00  0.27764787007E+02  0.00000000000E+00 0. -1.
        -11    1    3    3    0    0 -0.22619182213E+02 -0.10205458497E+02 -0.11944451181E+03  0.12199495969E+03  0.00000000000E+00 0.  1.
         22    1    1    2    0    0 -0.51025898641E+01  0.89471216265E+01 -0.28502251405E+02  0.30306199760E+02  0.00000000000E+00 0. -1.
<mgrwt>
<rscale>  0 0.53004617E+02</rscale>
<asrwt>0</asrwt>
<pdfrwt beam="1">  1        2 0.25396520E-02 0.91511208E+02</pdfrwt>
<pdfrwt beam="2">  1       -2 0.25162800E-01 0.91511208E+02</pdfrwt>
<totfact> 0.47610785E+04</totfact>
</mgrwt>
</event>
<event>
 6    1  0.1535419E-002  0.1529405E+03  0.7546771E-02  0.1206933E+00
          4   -1    0    0  501    0  0.00000000000E+00  0.00000000000E+00  0.42469290868E+03  0.42469290868E+03  0.00000000000E+00 0. -1.
         -4   -1    0    0    0  501 -0.00000000000E+00 -0.00000000000E+00 -0.54364887259E+02  0.54364887259E+02  0.00000000000E+00 0.  1.
         23    2    1    2    0    0 -0.11827029796E+03 -0.34132932351E+02  0.30138244084E+03  0.33796770581E+03  0.90762735067E+02 0.  0.
         11    1    3    3    0    0 -0.12301650095E+03 -0.34560700902E+02  0.30582917069E+03  0.33144982003E+03  0.00000000000E+00 0. -1.
        -11    1    3    3    0    0  0.47462029888E+01  0.42776855054E+00 -0.44467298508E+01  0.65178857853E+01  0.00000000000E+00 0.  1.
         22    1    1    2    0    0  0.11827029796E+03  0.34132932351E+02  0.68945580588E+02  0.14109009013E+03  0.00000000000E+00 0. -1.
<mgrwt>
<rscale>  0 0.14486181E+03</rscale>
<asrwt>0</asrwt>
<pdfrwt beam="1">  1        4 0.65337368E-01 0.15294049E+03</pdfrwt>
<pdfrwt beam="2">  1       -4 0.83638291E-02 0.15294049E+03</pdfrwt>
<totfact> 0.38565454E+02</totfact>
</mgrwt>
</event>
<event>
 6    1  0.1535419E-002  0.9884698E+02  0.7546771E-02  0.1339127E+00
         -2   -1    0    0    0  501 -0.00000000000E+00  0.00000000000E+00  0.59104913373E+01  0.59104913373E+01  0.00000000000E+00 0.  1.
          2   -1    0    0  501    0  0.00000000000E+00 -0.00000000000E+00 -0.95024793123E+03  0.95024793123E+03  0.00000000000E+00 0. -1.
         23    2    1    2    0    0  0.33668135553E+02 -0.11445797626E+02 -0.84274416044E+03  0.84852132828E+03  0.92228926965E+02 0.  0.
         13    1    3    3    0    0  0.47119150771E+01 -0.40395040172E+02 -0.18104753023E+03  0.18555907312E+03  0.00000000000E+00 0.  1.
        -13    1    3    3    0    0  0.28956220476E+02  0.28949242546E+02 -0.66169663021E+03  0.66296225517E+03  0.00000000000E+00 0. -1.
         22    1    1    2    0    0 -0.33668135553E+02  0.11445797626E+02 -0.10159327946E+03  0.10763709428E+03  0.00000000000E+00 0.  1.
<mgrwt>
<rscale>  0 0.76553407E+02</rscale>
<asrwt>0</asrwt>
<pdfrwt beam="1">  1        2 0.14619190E+00 0.98846976E+02</pdfrwt>
<pdfrwt beam="2">  1       -2 0.90930691E-03 0.98846976E+02</pdfrwt>
<totfact> 0.62335133E+04</totfact>
</mgrwt>
</event>
<event>
 6    1  0.1535419E-002  0.8469518E+02  0.7546771E-02  0.1391789E+00
          2   -1    0    0  501    0  0.00000000000E+00  0.00000000000E+00  0.36302096830E+03  0.36302096830E+03  0.00000000000E+00 0. -1.
         -2   -1    0    0    0  501 -0.00000000000E+00 -0.00000000000E+00 -0.95104412866E+01  0.95104412866E+01  0.00000000000E+00 0.  1.
         23    2    1    2    0    0  0.23301066106E+02 -0.29834073371E+01  0.32359346186E+03  0.33449364955E+03  0.81372185856E+02 0.  0.
         11    1    3    3    0    0  0.33301048808E+02 -0.27880822488E+02  0.27968086729E+03  0.28303301511E+03  0.00000000000E+00 0. -1.
        -11    1    3    3    0    0 -0.99999827021E+01  0.24897415151E+02  0.43912594568E+02  0.51460634440E+02  0.00000000000E+00 0.  1.
         22    1    1    2    0    0 -0.23301066106E+02  0.29834073371E+01  0.29917065151E+02  0.38037760033E+02  0.00000000000E+00 0.  1.
<mgrwt>
<rscale>  0 0.61463983E+02</rscale>
<asrwt>0</asrwt>
<pdfrwt beam="1">  1        2 0.55849369E-01 0.84695177E+02</pdfrwt>
<pdfrwt beam="2">  1       -2 0.14631451E-02 0.84695177E+02</pdfrwt>
<totfact> 0.92781727E+04</totfact>
</mgrwt>
</event>
<event>
 6    1  0.1535419E-002  0.9419021E+02  0.7546771E-02  0.1404230E+00
          2   -1    0    0  501    0  0.00000000000E+00  0.00000000000E+00  0.41247033933E+03  0.41247033933E+03  0.00000000000E+00 0. -1.
         -2   -1    0    0    0  501 -0.00000000000E+00 -0.00000000000E+00 -0.76039256058E+01  0.76039256058E+01  0.00000000000E+00 0.  1.
         23    2    1    2    0    0  0.12511686255E+02  0.63189749285E+01  0.38029730778E+03  0.39178800141E+03  0.93141419415E+02 0.  0.
         13    1    3    3    0    0  0.28861802419E+02 -0.74856418982E+00  0.37017759756E+03  0.37130178794E+03  0.00000000000E+00 0. -1.
        -13    1    3    3    0    0 -0.16350116164E+02  0.70675391183E+01  0.10119710216E+02  0.20486213477E+02  0.00000000000E+00 0.  1.
         22    1    1    2    0    0 -0.12511686255E+02 -0.63189749285E+01  0.24569105944E+02  0.28286263521E+02  0.00000000000E+00 0. -1.
<mgrwt>
<rscale>  0 0.58501478E+02</rscale>
<asrwt>0</asrwt>
<pdfrwt beam="1">  1        2 0.63456958E-01 0.94190210E+02</pdfrwt>
<pdfrwt beam="2">  1       -2 0.11698350E-02 0.94190210E+02</pdfrwt>
<totfact> 0.11330408E+05</totfact>
</mgrwt>
</event>
<event>
 6    1  0.1535419E-002  0.9140523E+02  0.7546771E-02  0.1414275E+00
         -4   -1    0    0    0  501 -0.00000000000E+00  0.00000000000E+00  0.12699816010E+02  0.12699816010E+02  0.00000000000E+00 0. -1.
          4   -1    0    0  501    0  0.00000000000E+00 -0.00000000000E+00 -0.25639610438E+03  0.25639610438E+03  0.00000000000E+00 0.  1.
         23    2    1    2    0    0 -0.12854519140E+02 -0.25755388355E+01 -0.23772100042E+03  0.25468841787E+03  0.90460179627E+02 0.  0.
         13    1    3    3    0    0 -0.15052580040E+02 -0.27706588597E+02 -0.24370583570E+02  0.39851732222E+02  0.00000000000E+00 0. -1.
        -13    1    3    3    0    0  0.21980608997E+01  0.25131049762E+02 -0.21335041685E+03  0.21483668565E+03  0.00000000000E+00 0.  1.
         22    1    1    2    0    0  0.12854519140E+02  0.25755388355E+01 -0.59752879558E+01  0.14407502517E+02  0.00000000000E+00 0.  1.
<mgrwt>
<rscale>  0 0.56250832E+02</rscale>
<asrwt>0</asrwt>
<pdfrwt beam="1">  1        4 0.39445552E-01 0.91405230E+02</pdfrwt>
<pdfrwt beam="2">  1       -4 0.19538180E-02 0.91405230E+02</pdfrwt>
<totfact> 0.96147287E+03</totfact>
</mgrwt>
</event>
<event>
 6    1  0.1535419E-002  0.1441737E+03  0.7546771E-02  0.1219702E+00
         -1   -1    0    0    0  501 -0.00000000000E+00  0.00000000000E+00  0.37261411617E+02  0.37261411617E+02  0.00000000000E+00 0.  1.
          1   -1    0    0  501    0  0.00000000000E+00 -0.00000000000E+00 -0.44611189133E+03  0.44611189133E+03  0.00000000000E+00 0. -1.
         23    2    1    2    0    0 -0.71641552422E+02 -0.86151614864E+02 -0.25671491536E+03  0.29442928288E+03  0.90727295079E+02 0.  0.
         13    1    3    3    0    0 -0.82089903203E+02 -0.47938241138E+02 -0.22297132056E+03  0.24239025757E+03  0.00000000000E+00 0. -1.
        -13    1    3    3    0    0  0.10448350780E+02 -0.38213373726E+02 -0.33743594799E+02  0.52039025313E+02  0.00000000000E+00 0.  1.
         22    1    1    2    0    0  0.71641552422E+02  0.86151614864E+02 -0.15213556435E+03  0.18894402007E+03  0.00000000000E+00 0.  1.
<mgrwt>
<rscale>  0 0.13536767E+03</rscale>
<asrwt>0</asrwt>
<pdfrwt beam="1">  1        1 0.68632597E-01 0.14417370E+03</pdfrwt>
<pdfrwt beam="2">  1       -1 0.57325250E-02 0.14417370E+03</pdfrwt>
<totfact> 0.72205566E+03</totfact>
</mgrwt>
</event>
<event>
 6    1  0.1535419E-002  0.9500615E+02  0.7546771E-02  0.1399070E+00
          2   -1    0    0  501    0  0.00000000000E+00  0.00000000000E+00  0.32461299910E+02  0.32461299910E+02  0.00000000000E+00 0. -1.
         -2   -1    0    0    0  501 -0.00000000000E+00 -0.00000000000E+00 -0.10790703239E+03  0.10790703239E+03  0.00000000000E+00 0.  1.
         23    2    1    2    0    0  0.14803570526E+02  0.67054550182E+00 -0.42174873569E+02  0.10394656155E+03  0.93843339490E+02 0.  0.
         13    1    3    3    0    0  0.22166633398E+02 -0.32515924033E+02  0.10975958392E+02  0.40854823639E+02  0.00000000000E+00 0. -1.
        -13    1    3    3    0    0 -0.73630628719E+01  0.33186469535E+02 -0.53150831961E+02  0.63091737915E+02  0.00000000000E+00 0.  1.
         22    1    1    2    0    0 -0.14803570526E+02 -0.67054550182E+00 -0.33270858912E+02  0.36421770747E+02  0.00000000000E+00 0.  1.
<mgrwt>
<rscale>  0 0.59705819E+02</rscale>
<asrwt>0</asrwt>
<pdfrwt beam="1">  1        2 0.49940461E-02 0.95006146E+02</pdfrwt>
<pdfrwt beam="2">  1       -2 0.16601082E-01 0.95006146E+02</pdfrwt>
<totfact> 0.39565013E+04</totfact>
</mgrwt>
</event>
<event>
 6    1  0.1535419E-002  0.1464883E+03  0.7546771E-02  0.1216462E+00
         -2   -1    0    0    0  501 -0.00000000000E+00  0.00000000000E+00  0.17917074461E+02  0.17917074461E+02  0.00000000000E+00 0.  1.
          2   -1    0    0  501    0  0.00000000000E+00 -0.00000000000E+00 -0.97711117062E+03  0.97711117062E+03  0.00000000000E+00 0. -1.
         23    2    1    2    0    0  0.73345926652E+02  0.87746842764E+02 -0.45386521507E+03  0.47691975120E+03  0.91540604436E+02 0.  0.
         13    1    3    3    0    0  0.15940881545E+02  0.86029825656E+02 -0.23900326367E+03  0.25451483778E+03  0.00000000000E+00 0.  1.
        -13    1    3    3    0    0  0.57405045108E+02  0.17170171077E+01 -0.21486195140E+03  0.22240491342E+03  0.00000000000E+00 0. -1.
         22    1    1    2    0    0 -0.73345926652E+02 -0.87746842764E+02 -0.50532888108E+03  0.51810849388E+03  0.00000000000E+00 0. -1.
<mgrwt>
<rscale>  0 0.13769702E+03</rscale>
<asrwt>0</asrwt>
<pdfrwt beam="1">  1        2 0.15032480E+00 0.14648828E+03</pdfrwt>
<pdfrwt beam="2">  1       -2 0.27564728E-02 0.14648828E+03</pdfrwt>
<totfact> 0.12577991E+04</totfact>
</mgrwt>
</event>
<event>
 6    1  0.1535419E-002  0.9218169E+02  0.7546771E-02  0.1415967E+00
         -1   -1    0    0    0  501 -0.00000000000E+00  0.00000000000E+00  0.12572969877E+03  0.12572969877E+03  0.00000000000E+00 0. -1.
          1   -1    0    0  501    0  0.00000000000E+00 -0.00000000000E+00 -0.21948117852E+02  0.21948117852E+02  0.00000000000E+00 0.  1.
         23    2    1    2    0    0 -0.32291389037E+01  0.12024682818E+02  0.95455366570E+02  0.13269962646E+03  0.91336977846E+02 0.  0.
         13    1    3    3    0    0 -0.12290753933E+02  0.15624269741E+02 -0.13035217173E+02  0.23771775784E+02  0.00000000000E+00 0.  1.
        -13    1    3    3    0    0  0.90616150297E+01 -0.35995869227E+01  0.10849058374E+03  0.10892785068E+03  0.00000000000E+00 0. -1.
         22    1    1    2    0    0  0.32291389037E+01 -0.12024682818E+02  0.83262143441E+01  0.14978190153E+02  0.00000000000E+00 0.  1.
<mgrwt>
<rscale>  0 0.55883305E+02</rscale>
<asrwt>0</asrwt>
<pdfrwt beam="1">  1        1 0.33766336E-02 0.92181689E+02</pdfrwt>
<pdfrwt beam="2">  1       -1 0.19343030E-01 0.92181689E+02</pdfrwt>
<totfact> 0.52828632E+04</totfact>
</mgrwt>
</event>
<event>
 6    1  0.1535419E-002  0.1041976E+03  0.7546771E-02  0.1377784E+00
         -2   -1    0    0    0  501 -0.00000000000E+00  0.00000000000E+00  0.32086091185E+02  0.32086091185E+02  0.00000000000E+00 0.  1.
          2   -1    0    0  501    0  0.00000000000E+00 -0.00000000000E+00 -0.12130089238E+03  0.12130089238E+03  0.00000000000E+00 0. -1.
         23    2    1    2    0    0  0.12108727201E+02 -0.10192560221E+02 -0.89791830385E+02  0.13754897482E+03  0.10298853388E+03 0.  0.
         11    1    3    3    0    0  0.49775837191E+02 -0.46610178351E+01 -0.12719223491E+02  0.51586216197E+02  0.00000000000E+00 0.  1.
        -11    1    3    3    0    0 -0.37667109991E+02 -0.55315423860E+01 -0.77072606894E+02  0.85962758621E+02  0.00000000000E+00 0. -1.
         22    1    1    2    0    0 -0.12108727201E+02  0.10192560221E+02  0.57702919196E+00  0.15838008744E+02  0.00000000000E+00 0.  1.
<mgrwt>
<rscale>  0 0.65049871E+02</rscale>
<asrwt>0</asrwt>
<pdfrwt beam="1">  1        2 0.18661676E-01 0.10419764E+03</pdfrwt>
<pdfrwt beam="2">  1       -2 0.49363216E-02 0.10419764E+03</pdfrwt>
<totfact> 0.52919827E+04</totfact>
</mgrwt>
</event>
<event>
 6    1  0.1535419E-002  0.9087360E+02  0.7546771E-02  0.1431845E+00
         -2   -1    0    0    0  501 -0.00000000000E+00  0.00000000000E+00  0.26381583157E+03  0.26381583157E+03  0.00000000000E+00 0.  1.
          2   -1    0    0  501    0  0.00000000000E+00 -0.00000000000E+00 -0.97350989634E+01  0.97350989634E+01  0.00000000000E+00 0. -1.
         23    2    1    2    0    0 -0.59886684960E+01  0.82494685096E+01  0.22163276328E+03  0.23953933554E+03  0.90300020086E+02 0.  0.
         11    1    3    3    0    0 -0.10188482420E+02  0.23938021576E+02  0.10941807975E+02  0.28223345173E+02  0.00000000000E+00 0. -1.
        -11    1    3    3    0    0  0.41998139236E+01 -0.15688553067E+02  0.21069095531E+03  0.21131599036E+03  0.00000000000E+00 0.  1.
         22    1    1    2    0    0  0.59886684960E+01 -0.82494685096E+01  0.32447969326E+02  0.34011595000E+02  0.00000000000E+00 0. -1.
<mgrwt>
<rscale>  0 0.52591383E+02</rscale>
<asrwt>0</asrwt>
<pdfrwt beam="1">  1        2 0.14977077E-02 0.90873602E+02</pdfrwt>
<pdfrwt beam="2">  1       -2 0.40587046E-01 0.90873602E+02</pdfrwt>
<totfact> 0.40949889E+04</totfact>
</mgrwt>
</event>
<event>
 6    1  0.1535419E-002  0.9629510E+02  0.7546771E-02  0.1359067E+00
          4   -1    0    0  501    0  0.00000000000E+00  0.00000000000E+00  0.96975541115E+02  0.96975541115E+02  0.00000000000E+00 0. -1.
         -4   -1    0    0    0  501 -0.00000000000E+00 -0.00000000000E+00 -0.43111689909E+02  0.43111689909E+02  0.00000000000E+00 0.  1.
         23    2    1    2    0    0  0.25794288014E+02  0.91145484948E+01  0.58008672879E+02  0.11241775623E+03  0.92327273864E+02 0.  0.
         11    1    3    3    0    0  0.47235784567E+02  0.85965245624E+01  0.72195588230E+02  0.86702494416E+02  0.00000000000E+00 0. -1.
        -11    1    3    3    0    0 -0.21441496553E+02  0.51802393240E+00 -0.14186915350E+02  0.25715261818E+02  0.00000000000E+00 0.  1.
         22    1    1    2    0    0 -0.25794288014E+02 -0.91145484948E+01 -0.41448216738E+01  0.27669474789E+02  0.00000000000E+00 0. -1.
<mgrwt>
<rscale>  0 0.70302590E+02</rscale>
<asrwt>0</asrwt>
<pdfrwt beam="1">  1        4 0.14919314E-01 0.96295097E+02</pdfrwt>
<pdfrwt beam="2">  1       -4 0.66325677E-02 0.96295097E+02</pdfrwt>
<totfact> 0.84882881E+03</totfact>
</mgrwt>
</event>
<event>
 6    1  0.1535419E-002  0.1119423E+03  0.7546771E-02  0.1390594E+00
         -2   -1    0    0    0  501 -0.00000000000E+00  0.00000000000E+00  0.20107587970E+02  0.20107587970E+02  0.00000000000E+00 0. -1.
          2   -1    0    0  501    0  0.00000000000E+00 -0.00000000000E+00 -0.37217946473E+03  0.37217946473E+03  0.00000000000E+00 0.  1.
         23    2    1    2    0    0  0.28286662744E+01 -0.99778251773E+01 -0.36139895607E+03  0.37833883573E+03  0.11146080397E+03 0.  0.
         11    1    3    3    0    0 -0.60743106393E+01  0.18404978466E+02 -0.34260498756E+03  0.34315276188E+03  0.00000000000E+00 0.  1.
        -11    1    3    3    0    0  0.89029769137E+01 -0.28382803644E+02 -0.18793968511E+02  0.35186073850E+02  0.00000000000E+00 0. -1.
         22    1    1    2    0    0 -0.28286662744E+01  0.99778251773E+01  0.93270793136E+01  0.13948216972E+02  0.00000000000E+00 0. -1.
<mgrwt>
<rscale>  0 0.61759115E+02</rscale>
<asrwt>0</asrwt>
<pdfrwt beam="1">  1        2 0.57258374E-01 0.11194226E+03</pdfrwt>
<pdfrwt beam="2">  1       -2 0.30934753E-02 0.11194226E+03</pdfrwt>
<totfact> 0.31823716E+04</totfact>
</mgrwt>
</event>
<event>
 6    1  0.1535419E-002  0.9264133E+02  0.7546771E-02  0.1405482E+00
          1   -1    0    0  501    0  0.00000000000E+00  0.00000000000E+00  0.28478403992E+02  0.28478403992E+02  0.00000000000E+00 0. -1.
         -1   -1    0    0    0  501 -0.00000000000E+00 -0.00000000000E+00 -0.12693948002E+03  0.12693948002E+03  0.00000000000E+00 0.  1.
         23    2    1    2    0    0 -0.11523168526E+02 -0.87098438883E+01 -0.50882623100E+02  0.10569511280E+03  0.91508309698E+02 0.  0.
         11    1    3    3    0    0 -0.45545987106E+02 -0.26885927660E+02 -0.21021645156E+02  0.56913966762E+02  0.00000000000E+00 0. -1.
        -11    1    3    3    0    0  0.34022818580E+02  0.18176083772E+02 -0.29860977944E+02  0.48781146042E+02  0.00000000000E+00 0.  1.
         22    1    1    2    0    0  0.11523168526E+02  0.87098438883E+01 -0.47578452924E+02  0.49722771203E+02  0.00000000000E+00 0. -1.
<mgrwt>
<rscale>  0 0.58214279E+02</rscale>
<asrwt>0</asrwt>
<pdfrwt beam="1">  1        1 0.43812928E-02 0.92641327E+02</pdfrwt>
<pdfrwt beam="2">  1       -1 0.19529151E-01 0.92641327E+02</pdfrwt>
<totfact> 0.36520481E+04</totfact>
</mgrwt>
</event>
<event>
 6    1  0.1535419E-002  0.1007698E+03  0.7546771E-02  0.1311451E+00
          2   -1    0    0  501    0  0.00000000000E+00  0.00000000000E+00  0.43228852572E+02  0.43228852572E+02  0.00000000000E+00 0. -1.
         -2   -1    0    0    0  501 -0.00000000000E+00 -0.00000000000E+00 -0.18354139095E+03  0.18354139095E+03  0.00000000000E+00 0.  1.
         23    2    1    2    0    0 -0.44711146322E+02 -0.31710093691E+02 -0.32598956836E+02  0.10591151485E+03  0.84557319871E+02 0.  0.
         11    1    3    3    0    0 -0.89140173749E+00 -0.26074785730E+02  0.23080027671E+02  0.34833557459E+02  0.00000000000E+00 0. -1.
        -11    1    3    3    0    0 -0.43819744584E+02 -0.56353079610E+01 -0.55678984507E+02  0.71077957392E+02  0.00000000000E+00 0.  1.
         22    1    1    2    0    0  0.44711146322E+02  0.31710093691E+02 -0.10771358154E+03  0.12085872867E+03  0.00000000000E+00 0.  1.
<mgrwt>
<rscale>  0 0.86540919E+02</rscale>
<asrwt>0</asrwt>
<pdfrwt beam="1">  1        2 0.66505927E-02 0.10076982E+03</pdfrwt>
<pdfrwt beam="2">  1       -2 0.28237137E-01 0.10076982E+03</pdfrwt>
<totfact> 0.11200636E+04</totfact>
</mgrwt>
</event>
<event>
 6    1  0.1535419E-002  0.9872510E+02  0.7546771E-02  0.1339432E+00
         -2   -1    0    0    0  501 -0.00000000000E+00  0.00000000000E+00  0.34073891080E+01  0.34073891080E+01  0.00000000000E+00 0.  1.
          2   -1    0    0  501    0  0.00000000000E+00 -0.00000000000E+00 -0.17676114560E+04  0.17676114560E+04  0.00000000000E+00 0. -1.
         23    2    1    2    0    0  0.15115790024E+02 -0.32125580436E+02 -0.15988975230E+04  0.16019425503E+04  0.92120058889E+02 0.  0.
         13    1    3    3    0    0  0.53645453499E+02 -0.15620416264E+02 -0.10203102017E+04  0.10218389011E+04  0.00000000000E+00 0. -1.
        -13    1    3    3    0    0 -0.38529663476E+02 -0.16505164172E+02 -0.57858732136E+03  0.58010364923E+03  0.00000000000E+00 0.  1.
         22    1    1    2    0    0 -0.15115790024E+02  0.32125580436E+02 -0.16530654391E+03  0.16907629487E+03  0.00000000000E+00 0.  1.
<mgrwt>
<rscale>  0 0.76452249E+02</rscale>
<asrwt>0</asrwt>
<pdfrwt beam="1">  1        2 0.27194043E+00 0.98725100E+02</pdfrwt>
<pdfrwt beam="2">  1       -2 0.52421332E-03 0.98725100E+02</pdfrwt>
<totfact> 0.49629013E+04</totfact>
</mgrwt>
</event>
<event>
 6    1  0.1535419E-002  0.9274497E+02  0.7546771E-02  0.1381091E+00
          2   -1    0    0  501    0  0.00000000000E+00  0.00000000000E+00  0.86233224060E+03  0.86233224060E+03  0.00000000000E+00 0. -1.
         -2   -1    0    0    0  501 -0.00000000000E+00 -0.00000000000E+00 -0.42078412091E+01  0.42078412091E+01  0.00000000000E+00 0.  1.
         23    2    1    2    0    0 -0.21247454529E+02  0.86568522626E+00  0.78268624485E+03  0.78816203070E+03  0.90274165894E+02 0.  0.
         13    1    3    3    0    0 -0.30320480510E+02 -0.28065344692E+02  0.17864906553E+03  0.18336434693E+03  0.00000000000E+00 0.  1.
        -13    1    3    3    0    0  0.90730259812E+01  0.28931029918E+02  0.60403717932E+03  0.60479768377E+03  0.00000000000E+00 0. -1.
         22    1    1    2    0    0  0.21247454529E+02 -0.86568522626E+00  0.75438154550E+02  0.78378051116E+02  0.00000000000E+00 0.  1.
<mgrwt>
<rscale>  0 0.64177756E+02</rscale>
<asrwt>0</asrwt>
<pdfrwt beam="1">  1        2 0.13266636E+00 0.92744966E+02</pdfrwt>
<pdfrwt beam="2">  1       -2 0.64736087E-03 0.92744966E+02</pdfrwt>
<totfact> 0.11322731E+05</totfact>
</mgrwt>
</event>
<event>
 6    1  0.1535419E-002  0.9141629E+02  0.7546771E-02  0.1428057E+00
          2   -1    0    0  501    0  0.00000000000E+00  0.00000000000E+00  0.58691192197E+02  0.58691192197E+02  0.00000000000E+00 0. -1.
         -2   -1    0    0    0  501 -0.00000000000E+00 -0.00000000000E+00 -0.44804635664E+02  0.44804635664E+02  0.00000000000E+00 0.  1.
         23    2    1    2    0    0  0.10433845975E+02  0.19007805456E+01  0.15645299008E+02  0.92745419329E+02  0.90799005044E+02 0.  0.
         11    1    3    3    0    0 -0.15485576704E+02  0.37759806149E+02  0.24529987074E+02  0.47616450016E+02  0.00000000000E+00 0. -1.
        -11    1    3    3    0    0  0.25919422679E+02 -0.35859025603E+02 -0.88846880659E+01  0.45128969313E+02  0.00000000000E+00 0.  1.
         22    1    1    2    0    0 -0.10433845975E+02 -0.19007805456E+01 -0.17587424745E+01  0.10750408532E+02  0.00000000000E+00 0.  1.
<mgrwt>
<rscale>  0 0.53352059E+02</rscale>
<asrwt>0</asrwt>
<pdfrwt beam="1">  1        2 0.90294142E-02 0.91416286E+02</pdfrwt>
<pdfrwt beam="2">  1       -2 0.68930209E-02 0.91416286E+02</pdfrwt>
<totfact> 0.74073437E+04</totfact>
</mgrwt>
</event>
<event>
 6    1  0.1535419E-002  0.1072218E+03  0.7546771E-02  0.1299949E+00
         -1   -1    0    0    0  501 -0.00000000000E+00  0.00000000000E+00  0.22470580859E+02  0.22470580859E+02  0.00000000000E+00 0.  1.
          1   -1    0    0  501    0  0.00000000000E+00 -0.00000000000E+00 -0.30997137081E+03  0.30997137081E+03  0.00000000000E+00 0. -1.
         23    2    1    2    0    0  0.32663907168E+01 -0.56049405365E+02 -0.15434164506E+03  0.18793048840E+03  0.91347249099E+02 0.  0.
         13    1    3    3    0    0  0.10152776743E+02 -0.75969644911E+02 -0.80550921317E+02  0.11118865387E+03  0.00000000000E+00 0.  1.
        -13    1    3    3    0    0 -0.68863860259E+01  0.19920239546E+02 -0.73790723746E+02  0.76741834530E+02  0.00000000000E+00 0. -1.
         22    1    1    2    0    0 -0.32663907168E+01  0.56049405365E+02 -0.13315914489E+03  0.14451146328E+03  0.00000000000E+00 0. -1.
<mgrwt>
<rscale>  0 0.91209333E+02</rscale>
<asrwt>0</asrwt>
<pdfrwt beam="1">  1        1 0.47687900E-01 0.10722185E+03</pdfrwt>
<pdfrwt beam="2">  1       -1 0.34570127E-02 0.10722185E+03</pdfrwt>
<totfact> 0.23370320E+04</totfact>
</mgrwt>
</event>
<event>
 6    1  0.1535419E-002  0.9260635E+02  0.7546771E-02  0.1401183E+00
          4   -1    0    0  501    0  0.00000000000E+00  0.00000000000E+00  0.94304513201E+02  0.94304513201E+02  0.00000000000E+00 0. -1.
         -4   -1    0    0    0  501 -0.00000000000E+00 -0.00000000000E+00 -0.64743839320E+02  0.64743839320E+02  0.00000000000E+00 0.  1.
         23    2    1    2    0    0 -0.86407599909E+01 -0.12837378545E+02  0.69780920604E+02  0.11595392982E+03  0.91304304060E+02 0.  0.
         13    1    3    3    0    0  0.35266083158E+02  0.74506517519E+01  0.70264580855E+01  0.36723016571E+02  0.00000000000E+00 0.  1.
        -13    1    3    3    0    0 -0.43906843149E+02 -0.20288030297E+02  0.62754462519E+02  0.79230913252E+02  0.00000000000E+00 0. -1.
         22    1    1    2    0    0  0.86407599909E+01  0.12837378545E+02 -0.40220246724E+02  0.43094422698E+02  0.00000000000E+00 0.  1.
<mgrwt>
<rscale>  0 0.59208621E+02</rscale>
<asrwt>0</asrwt>
<pdfrwt beam="1">  1        4 0.14508387E-01 0.92606355E+02</pdfrwt>
<pdfrwt beam="2">  1       -4 0.99605906E-02 0.92606355E+02</pdfrwt>
<totfact> 0.45119014E+03</totfact>
</mgrwt>
</event>
<event>
 6    1  0.1535419E-002  0.9317173E+02  0.7546771E-02  0.1398053E+00
          1   -1    0    0  501    0  0.00000000000E+00  0.00000000000E+00  0.46611561151E+03  0.46611561151E+03  0.00000000000E+00 0. -1.
         -1   -1    0    0    0  501 -0.00000000000E+00 -0.00000000000E+00 -0.68983564450E+01  0.68983564450E+01  0.00000000000E+00 0.  1.
         23    2    1    2    0    0  0.10685878072E+02  0.11864085100E+02  0.42712570994E+03  0.43716969681E+03  0.91793394161E+02 0.  0.
         11    1    3    3    0    0  0.38105863022E+02  0.36473099337E+02  0.18948701097E+03  0.19669181757E+03  0.00000000000E+00 0. -1.
        -11    1    3    3    0    0 -0.27419984950E+02 -0.24609014237E+02  0.23763869897E+03  0.24047787924E+03  0.00000000000E+00 0.  1.
         22    1    1    2    0    0 -0.10685878072E+02 -0.11864085100E+02  0.32091545125E+02  0.35844271145E+02  0.00000000000E+00 0. -1.
<mgrwt>
<rscale>  0 0.59947191E+02</rscale>
<asrwt>0</asrwt>
<pdfrwt beam="1">  1        1 0.71710070E-01 0.93171732E+02</pdfrwt>
<pdfrwt beam="2">  1       -1 0.10612860E-02 0.93171732E+02</pdfrwt>
<totfact> 0.74895899E+04</totfact>
</mgrwt>
</event>
<event>
 6    1  0.1535419E-002  0.9561075E+02  0.7546771E-02  0.1373223E+00
          2   -1    0    0  501    0  0.00000000000E+00  0.00000000000E+00  0.34601213322E+03  0.34601213322E+03  0.00000000000E+00 0. -1.
         -2   -1    0    0    0  501 -0.00000000000E+00 -0.00000000000E+00 -0.12045092430E+02  0.12045092430E+02  0.00000000000E+00 0.  1.
         23    2    1    2    0    0  0.17060907547E+02 -0.14015202520E+02  0.31418984702E+03  0.32841539944E+03  0.93026416388E+02 0.  0.
         11    1    3    3    0    0  0.24123883159E+02  0.85296808324E+01  0.29950945829E+03  0.30060045375E+03  0.00000000000E+00 0. -1.
        -11    1    3    3    0    0 -0.70629756117E+01 -0.22544883353E+02  0.14680388738E+02  0.27814945684E+02  0.00000000000E+00 0.  1.
         22    1    1    2    0    0 -0.17060907547E+02  0.14015202520E+02  0.19777193764E+02  0.29641826212E+02  0.00000000000E+00 0. -1.
<mgrwt>
<rscale>  0 0.66279147E+02</rscale>
<asrwt>0</asrwt>
<pdfrwt beam="1">  1        2 0.53232628E-01 0.95610745E+02</pdfrwt>
<pdfrwt beam="2">  1       -2 0.18530914E-02 0.95610745E+02</pdfrwt>
<totfact> 0.70824602E+04</totfact>
</mgrwt>
</event>
<event>
 6    1  0.1535419E-002  0.1603666E+03  0.7546771E-02  0.1196574E+00
          2   -1    0    0  501    0  0.00000000000E+00  0.00000000000E+00  0.10539432890E+04  0.10539432890E+04  0.00000000000E+00 0. -1.
         -2   -1    0    0    0  501 -0.00000000000E+00 -0.00000000000E+00 -0.11220701829E+03  0.11220701829E+03  0.00000000000E+00 0.  1.
         23    2    1    2    0    0  0.94087456788E+02  0.94888035083E+02  0.10054163690E+04  0.10181254997E+04  0.88663800026E+02 0.  0.
         13    1    3    3    0    0  0.73738828883E+02  0.10707567814E+03  0.93064164773E+03  0.93967893039E+03  0.00000000000E+00 0. -1.
        -13    1    3    3    0    0  0.20348627904E+02 -0.12187643059E+02  0.74774721276E+02  0.78446569350E+02  0.00000000000E+00 0.  1.
         22    1    1    2    0    0 -0.94087456788E+02 -0.94888035083E+02 -0.63680098311E+02  0.14802480754E+03  0.00000000000E+00 0.  1.
<mgrwt>
<rscale>  0 0.15321776E+03</rscale>
<asrwt>0</asrwt>
<pdfrwt beam="1">  1        2 0.16214511E+00 0.16036664E+03</pdfrwt>
<pdfrwt beam="2">  1       -2 0.17262619E-01 0.16036664E+03</pdfrwt>
<totfact> 0.66654401E+02</totfact>
</mgrwt>
</event>
<event>
 6    1  0.1535419E-002  0.1007743E+03  0.7546771E-02  0.1327623E+00
         -1   -1    0    0    0  501 -0.00000000000E+00  0.00000000000E+00  0.15279131670E+02  0.15279131670E+02  0.00000000000E+00 0.  1.
          1   -1    0    0  501    0  0.00000000000E+00 -0.00000000000E+00 -0.72082517644E+03  0.72082517644E+03  0.00000000000E+00 0. -1.
         23    2    1    2    0    0  0.38991416224E+02 -0.12818731429E+02 -0.68071326606E+03  0.68813226091E+03  0.92036989811E+02 0.  0.
         11    1    3    3    0    0  0.32857977278E+02  0.31227054121E+01 -0.66189790381E+03  0.66272032791E+03  0.00000000000E+00 0. -1.
        -11    1    3    3    0    0  0.61334389464E+01 -0.15941436841E+02 -0.18815362253E+02  0.25411932996E+02  0.00000000000E+00 0.  1.
         22    1    1    2    0    0 -0.38991416224E+02  0.12818731429E+02 -0.24832778710E+02  0.47972047205E+02  0.00000000000E+00 0.  1.
<mgrwt>
<rscale>  0 0.80505591E+02</rscale>
<asrwt>0</asrwt>
<pdfrwt beam="1">  1        1 0.11089616E+00 0.10077429E+03</pdfrwt>
<pdfrwt beam="2">  1       -1 0.23506361E-02 0.10077429E+03</pdfrwt>
<totfact> 0.13596709E+04</totfact>
</mgrwt>
</event>
<event>
 6    1  0.1535419E-002  0.1221205E+03  0.7546771E-02  0.1266387E+00
          2   -1    0    0  501    0  0.00000000000E+00  0.00000000000E+00  0.19593816958E+04  0.19593816958E+04  0.00000000000E+00 0. -1.
         -2   -1    0    0    0  501 -0.00000000000E+00 -0.00000000000E+00 -0.24195522660E+02  0.24195522660E+02  0.00000000000E+00 0.  1.
         23    2    1    2    0    0 -0.63148373994E+02  0.34066876536E+02  0.18995356164E+04  0.19034571123E+04  0.98818779599E+02 0.  0.
         11    1    3    3    0    0 -0.74655442968E+02  0.51488884611E+02  0.17633227700E+04  0.17656533441E+04  0.00000000000E+00 0. -1.
        -11    1    3    3    0    0  0.11507068974E+02 -0.17422008074E+02  0.13621284638E+03  0.13780376816E+03  0.00000000000E+00 0.  1.
         22    1    1    2    0    0  0.63148373994E+02 -0.34066876536E+02  0.35650556748E+02  0.80120106162E+02  0.00000000000E+00 0.  1.
<mgrwt>
<rscale>  0 0.10691758E+03</rscale>
<asrwt>0</asrwt>
<pdfrwt beam="1">  1        2 0.30144321E+00 0.12212052E+03</pdfrwt>
<pdfrwt beam="2">  1       -2 0.37223897E-02 0.12212052E+03</pdfrwt>
<totfact> 0.24046244E+03</totfact>
</mgrwt>
</event>
<event>
 6    1  0.1535419E-002  0.9410548E+02  0.7546771E-02  0.1373057E+00
         -2   -1    0    0    0  501 -0.00000000000E+00  0.00000000000E+00  0.15863417269E+02  0.15863417269E+02  0.00000000000E+00 0.  1.
          2   -1    0    0  501    0  0.00000000000E+00 -0.00000000000E+00 -0.24754394355E+03  0.24754394355E+03  0.00000000000E+00 0. -1.
         23    2    1    2    0    0 -0.21599585671E+02 -0.85207961973E+01 -0.21536882716E+03  0.23503100451E+03  0.91195917130E+02 0.  0.
         13    1    3    3    0    0 -0.34144672834E+02  0.13934638874E+01 -0.21221337555E+02  0.40226180432E+02  0.00000000000E+00 0.  1.
        -13    1    3    3    0    0  0.12545087164E+02 -0.99142600847E+01 -0.19414748961E+03  0.19480482408E+03  0.00000000000E+00 0. -1.
         22    1    1    2    0    0  0.21599585671E+02  0.85207961973E+01 -0.16311699121E+02  0.28376356306E+02  0.00000000000E+00 0.  1.
<mgrwt>
<rscale>  0 0.66324577E+02</rscale>
<asrwt>0</asrwt>
<pdfrwt beam="1">  1        2 0.38083681E-01 0.94105480E+02</pdfrwt>
<pdfrwt beam="2">  1       -2 0.24405259E-02 0.94105480E+02</pdfrwt>
<totfact> 0.67512135E+04</totfact>
</mgrwt>
</event>
<event>
 6    1  0.1535419E-002  0.9398134E+02  0.7546771E-02  0.1396577E+00
         -2   -1    0    0    0  501 -0.00000000000E+00  0.00000000000E+00  0.65372869942E+02  0.65372869942E+02  0.00000000000E+00 0.  1.
          2   -1    0    0  501    0  0.00000000000E+00 -0.00000000000E+00 -0.47673143610E+02  0.47673143610E+02  0.00000000000E+00 0. -1.
         23    2    1    2    0    0  0.12678689179E+02 -0.96400237411E+01  0.22053855668E+02  0.96534270479E+02  0.92621885157E+02 0.  0.
         11    1    3    3    0    0 -0.14880013124E+02  0.10824359500E+02 -0.29398806113E+02  0.34682435757E+02  0.00000000000E+00 0. -1.
        -11    1    3    3    0    0  0.27558702303E+02 -0.20464383241E+02  0.51452661782E+02  0.61851834722E+02  0.00000000000E+00 0.  1.
         22    1    1    2    0    0 -0.12678689179E+02  0.96400237411E+01 -0.43541293361E+01  0.16511743073E+02  0.00000000000E+00 0.  1.
<mgrwt>
<rscale>  0 0.60299935E+02</rscale>
<asrwt>0</asrwt>
<pdfrwt beam="1">  1        2 0.73343298E-02 0.93981343E+02</pdfrwt>
<pdfrwt beam="2">  1       -2 0.10057365E-01 0.93981343E+02</pdfrwt>
<totfact> 0.53891612E+04</totfact>
</mgrwt>
</event>
<event>
 6    1  0.1535419E-002  0.9359147E+02  0.7546771E-02  0.1411732E+00
         -1   -1    0    0    0  501 -0.00000000000E+00  0.00000000000E+00  0.15331087703E+02  0.15331087703E+02  0.00000000000E+00 0.  1.
          1   -1    0    0  501    0  0.00000000000E+00 -0.00000000000E+00 -0.18827424198E+03  0.18827424198E+03  0.00000000000E+00 0. -1.
         23    2    1    2    0    0 -0.12641858177E+01  0.12641633008E+02 -0.14106521752E+03  0.16928897931E+03  0.92725152314E+02 0.  0.
         11    1    3    3    0    0  0.36503658556E+02  0.95107220810E+01 -0.20552262535E+02  0.42957728266E+02  0.00000000000E+00 0.  1.
        -11    1    3    3    0    0 -0.37767844374E+02  0.31309109267E+01 -0.12051295498E+03  0.12633125104E+03  0.00000000000E+00 0. -1.
         22    1    1    2    0    0  0.12641858177E+01 -0.12641633008E+02 -0.31877936757E+02  0.34316350370E+02  0.00000000000E+00 0.  1.
<mgrwt>
<rscale>  0 0.56809136E+02</rscale>
<asrwt>0</asrwt>
<pdfrwt beam="1">  1        1 0.28965268E-01 0.93591468E+02</pdfrwt>
<pdfrwt beam="2">  1       -1 0.23586289E-02 0.93591468E+02</pdfrwt>
<totfact> 0.73512496E+04</totfact>
</mgrwt>
</event>
<event>
 6    1  0.1535419E-002  0.9196719E+02  0.7546771E-02  0.1411571E+00
         -2   -1    0    0    0  501 -0.00000000000E+00  0.00000000000E+00  0.32857924123E+03  0.32857924123E+03  0.00000000000E+00 0.  1.
          2   -1    0    0  501    0  0.00000000000E+00 -0.00000000000E+00 -0.85590101583E+01  0.85590101583E+01  0.00000000000E+00 0. -1.
         23    2    1    2    0    0  0.12675913268E+02 -0.44171571328E+01  0.26502383038E+03  0.28052735011E+03  0.90982269905E+02 0.  0.
         13    1    3    3    0    0  0.10019939122E+02 -0.34631387617E+02  0.23534966619E+03  0.23809493393E+03  0.00000000000E+00 0.  1.
        -13    1    3    3    0    0  0.26559741455E+01  0.30214230484E+02  0.29674164186E+02  0.42432416176E+02  0.00000000000E+00 0. -1.
         22    1    1    2    0    0 -0.12675913268E+02  0.44171571328E+01  0.54996400697E+02  0.56610901281E+02  0.00000000000E+00 0. -1.
<mgrwt>
<rscale>  0 0.56844838E+02</rscale>
<asrwt>0</asrwt>
<pdfrwt beam="1">  1        2 0.13167710E-02 0.91967187E+02</pdfrwt>
<pdfrwt beam="2">  1       -2 0.50550643E-01 0.91967187E+02</pdfrwt>
<totfact> 0.32044109E+04</totfact>
</mgrwt>
</event>
<event>
 6    1  0.1535419E-002  0.9095720E+02  0.7546771E-02  0.1427018E+00
         -1   -1    0    0    0  501 -0.00000000000E+00  0.00000000000E+00  0.20504095440E+02  0.20504095440E+02  0.00000000000E+00 0. -1.
          1   -1    0    0  501    0  0.00000000000E+00 -0.00000000000E+00 -0.35187404370E+03  0.35187404370E+03  0.00000000000E+00 0.  1.
         23    2    1    2    0    0 -0.32746757957E+01 -0.10436767193E+02 -0.34391167257E+03  0.35573649079E+03  0.90297080428E+02 0.  0.
         11    1    3    3    0    0 -0.32068747934E+01  0.34358893428E+02 -0.24154495908E+03  0.24399750995E+03  0.00000000000E+00 0.  1.
        -11    1    3    3    0    0 -0.67801002280E-01 -0.44795660621E+02 -0.10236671349E+03  0.11173898083E+03  0.00000000000E+00 0. -1.
         22    1    1    2    0    0  0.32746757957E+01  0.10436767193E+02  0.12541724316E+02  0.16641648350E+02  0.00000000000E+00 0. -1.
<mgrwt>
<rscale>  0 0.53563226E+02</rscale>
<asrwt>0</asrwt>
<pdfrwt beam="1">  1        1 0.54134468E-01 0.90957201E+02</pdfrwt>
<pdfrwt beam="2">  1       -1 0.31544762E-02 0.90957201E+02</pdfrwt>
<totfact> 0.22434513E+04</totfact>
</mgrwt>
</event>
<event>
 6    1  0.1535419E-002  0.9628831E+02  0.7546771E-02  0.1363100E+00
          1   -1    0    0  501    0  0.00000000000E+00  0.00000000000E+00  0.45081392688E+03  0.45081392688E+03  0.00000000000E+00 0. -1.
         -1   -1    0    0    0  501 -0.00000000000E+00 -0.00000000000E+00 -0.84123839754E+01  0.84123839754E+01  0.00000000000E+00 0.  1.
         23    2    1    2    0    0 -0.85343225993E+01 -0.24106611387E+02  0.37414499132E+03  0.38633652962E+03  0.92830362552E+02 0.  0.
         11    1    3    3    0    0 -0.18242038454E+02  0.14443340709E+02  0.30999915438E+03  0.31087112727E+03  0.00000000000E+00 0. -1.
        -11    1    3    3    0    0  0.97077158548E+01 -0.38549952096E+02  0.64145836944E+02  0.75465402344E+02  0.00000000000E+00 0.  1.
         22    1    1    2    0    0  0.85343225993E+01  0.24106611387E+02  0.68256551582E+02  0.72889781236E+02  0.00000000000E+00 0. -1.
<mgrwt>
<rscale>  0 0.69123285E+02</rscale>
<asrwt>0</asrwt>
<pdfrwt beam="1">  1        1 0.69355970E-01 0.96288315E+02</pdfrwt>
<pdfrwt beam="2">  1       -1 0.12942133E-02 0.96288315E+02</pdfrwt>
<totfact> 0.59261924E+04</totfact>
</mgrwt>
</event>
<event>
 6    1  0.1535419E-002  0.9556006E+02  0.7546771E-02  0.1359474E+00
         -2   -1    0    0    0  501 -0.00000000000E+00  0.00000000000E+00  0.38263221920E+01  0.38263221920E+01  0.00000000000E+00 0.  1.
          2   -1    0    0  501    0  0.00000000000E+00 -0.00000000000E+00 -0.13083231127E+04  0.13083231127E+04  0.00000000000E+00 0. -1.
         23    2    1    2    0    0  0.51531968920E+01  0.27320908221E+02 -0.12066876777E+04  0.12104655620E+04  0.91426132699E+02 0.  0.
         13    1    3    3    0    0 -0.30086615675E+02 -0.60346310995E+01 -0.17736977876E+03  0.18000461003E+03  0.00000000000E+00 0.  1.
        -13    1    3    3    0    0  0.35239812567E+02  0.33355539320E+02 -0.10293178989E+04  0.10304609519E+04  0.00000000000E+00 0. -1.
         22    1    1    2    0    0 -0.51531968920E+01 -0.27320908221E+02 -0.97809112840E+02  0.10168387295E+03  0.00000000000E+00 0.  1.
<mgrwt>
<rscale>  0 0.70182506E+02</rscale>
<asrwt>0</asrwt>
<pdfrwt beam="1">  1        2 0.20128083E+00 0.95560061E+02</pdfrwt>
<pdfrwt beam="2">  1       -2 0.58866391E-03 0.95560061E+02</pdfrwt>
<totfact> 0.72260284E+04</totfact>
</mgrwt>
</event>
<event>
 6    1  0.1535419E-002  0.9068455E+02  0.7546771E-02  0.1425893E+00
          2   -1    0    0  501    0  0.00000000000E+00  0.00000000000E+00  0.64826814910E+03  0.64826814910E+03  0.00000000000E+00 0. -1.
         -2   -1    0    0    0  501 -0.00000000000E+00 -0.00000000000E+00 -0.49218798593E+01  0.49218798593E+01  0.00000000000E+00 0.  1.
         23    2    1    2    0    0 -0.10855995952E+02 -0.28671246865E+01  0.62595017091E+03  0.63248502258E+03  0.89986744981E+02 0.  0.
         11    1    3    3    0    0  0.18938816541E+02  0.11289222098E+02  0.40553017884E+02  0.46159208908E+02  0.00000000000E+00 0.  1.
        -11    1    3    3    0    0 -0.29794812493E+02 -0.14156346784E+02  0.58539715302E+03  0.58632581367E+03  0.00000000000E+00 0. -1.
         22    1    1    2    0    0  0.10855995952E+02  0.28671246865E+01  0.17396098330E+02  0.20705006380E+02  0.00000000000E+00 0.  1.
<mgrwt>
<rscale>  0 0.53793246E+02</rscale>
<asrwt>0</asrwt>
<pdfrwt beam="1">  1        2 0.99733494E-01 0.90684548E+02</pdfrwt>
<pdfrwt beam="2">  1       -2 0.75721280E-03 0.90684548E+02</pdfrwt>
<totfact> 0.12730317E+05</totfact>
</mgrwt>
</event>
<event>
 6    1  0.1535419E-002  0.9183645E+02  0.7546771E-02  0.1419837E+00
         -2   -1    0    0    0  501 -0.00000000000E+00  0.00000000000E+00  0.11970294710E+02  0.11970294710E+02  0.00000000000E+00 0.  1.
          2   -1    0    0  501    0  0.00000000000E+00 -0.00000000000E+00 -0.42873556472E+03  0.42873556472E+03  0.00000000000E+00 0. -1.
         23    2    1    2    0    0 -0.92148391607E+01  0.74692495976E+01 -0.41872986625E+03  0.42868244109E+03  0.91067181015E+02 0.  0.
         11    1    3    3    0    0 -0.34072284900E+02  0.38809834081E+02 -0.22215814425E+03  0.22808192580E+03  0.00000000000E+00 0.  1.
        -11    1    3    3    0    0  0.24857445739E+02 -0.31340584484E+02 -0.19657172200E+03  0.20060051529E+03  0.00000000000E+00 0. -1.
         22    1    1    2    0    0  0.92148391607E+01 -0.74692495976E+01  0.19645962369E+01  0.12023418344E+02  0.00000000000E+00 0.  1.
<mgrwt>
<rscale>  0 0.55055313E+02</rscale>
<asrwt>0</asrwt>
<pdfrwt beam="1">  1        2 0.65959316E-01 0.91836455E+02</pdfrwt>
<pdfrwt beam="2">  1       -2 0.18415838E-02 0.91836455E+02</pdfrwt>
<totfact> 0.56721857E+04</totfact>
</mgrwt>
</event>
<event>
 6    1  0.1535419E-002  0.9145348E+02  0.7546771E-02  0.1420249E+00
         -1   -1    0    0    0  501 -0.00000000000E+00  0.00000000000E+00  0.52117874978E+01  0.52117874978E+01  0.00000000000E+00 0.  1.
          1   -1    0    0  501    0  0.00000000000E+00 -0.00000000000E+00 -0.54858454059E+03  0.54858454059E+03  0.00000000000E+00 0. -1.
         23    2    1    2    0    0 -0.97138679376E+01 -0.69355067608E+01 -0.51431611139E+03  0.52238376832E+03  0.90671266020E+02 0.  0.
         13    1    3    3    0    0 -0.11843092676E+02 -0.57977567875E+01 -0.67526346210E+01  0.14814550355E+02  0.00000000000E+00 0.  1.
        -13    1    3    3    0    0  0.21292247382E+01 -0.11377499733E+01 -0.50756347677E+03  0.50756921797E+03  0.00000000000E+00 0. -1.
         22    1    1    2    0    0  0.97138679376E+01  0.69355067608E+01 -0.29056641704E+02  0.31412559772E+02  0.00000000000E+00 0.  1.
<mgrwt>
<rscale>  0 0.54968259E+02</rscale>
<asrwt>0</asrwt>
<pdfrwt beam="1">  1        1 0.84397556E-01 0.91453480E+02</pdfrwt>
<pdfrwt beam="2">  1       -1 0.80181409E-03 0.91453480E+02</pdfrwt>
<totfact> 0.89904877E+04</totfact>
</mgrwt>
</event>
<event>
 6    1  0.1535419E-002  0.9417497E+02  0.7546771E-02  0.1397016E+00
         -2   -1    0    0    0  501 -0.00000000000E+00  0.00000000000E+00  0.67793632040E+02  0.67793632040E+02  0.00000000000E+00 0.  1.
          2   -1    0    0  501    0  0.00000000000E+00 -0.00000000000E+00 -0.83701105097E+02  0.83701105097E+02  0.00000000000E+00 0. -1.
         23    2    1    2    0    0 -0.13848770333E+02  0.74365312275E+01 -0.55209995622E+02  0.10916532991E+03  0.92853837836E+02 0.  0.
         13    1    3    3    0    0  0.54323572003E+00 -0.27757764161E+02 -0.64328606121E+02  0.70063957509E+02  0.00000000000E+00 0. -1.
        -13    1    3    3    0    0 -0.14392006053E+02  0.35194295388E+02  0.91186104992E+01  0.39101372399E+02  0.00000000000E+00 0.  1.
         22    1    1    2    0    0  0.13848770333E+02 -0.74365312275E+01  0.39302522565E+02  0.42329407229E+02  0.00000000000E+00 0.  1.
<mgrwt>
<rscale>  0 0.60194751E+02</rscale>
<asrwt>0</asrwt>
<pdfrwt beam="1">  1        2 0.12877093E-01 0.94174974E+02</pdfrwt>
<pdfrwt beam="2">  1       -2 0.10429790E-01 0.94174974E+02</pdfrwt>
<totfact> 0.25682884E+04</totfact>
</mgrwt>
</event>
<event>
 6    1  0.1535419E-002  0.8952501E+02  0.7546771E-02  0.1402286E+00
          2   -1    0    0  501    0  0.00000000000E+00  0.00000000000E+00  0.18333852033E+03  0.18333852033E+03  0.00000000000E+00 0. -1.
         -2   -1    0    0    0  501 -0.00000000000E+00 -0.00000000000E+00 -0.15522965837E+02  0.15522965837E+02  0.00000000000E+00 0.  1.
         23    2    1    2    0    0  0.12117831585E+02 -0.11682413687E+02  0.13510654508E+03  0.16207562029E+03  0.87928422798E+02 0.  0.
         13    1    3    3    0    0  0.30174214079E+01  0.34136035325E+02  0.24847877864E+02  0.42329549655E+02  0.00000000000E+00 0.  1.
        -13    1    3    3    0    0  0.91004101774E+01 -0.45818449012E+02  0.11025866722E+03  0.11974607064E+03  0.00000000000E+00 0. -1.
         22    1    1    2    0    0 -0.12117831585E+02  0.11682413687E+02  0.32709009411E+02  0.36785865879E+02  0.00000000000E+00 0.  1.
<mgrwt>
<rscale>  0 0.58951258E+02</rscale>
<asrwt>0</asrwt>
<pdfrwt beam="1">  1        2 0.28205925E-01 0.89525014E+02</pdfrwt>
<pdfrwt beam="2">  1       -2 0.23881487E-02 0.89525014E+02</pdfrwt>
<totfact> 0.95153067E+04</totfact>
</mgrwt>
</event>
<event>
 6    1  0.1535419E-002  0.9233866E+02  0.7546771E-02  0.1377150E+00
         -2   -1    0    0    0  501 -0.00000000000E+00  0.00000000000E+00  0.86337443505E+01  0.86337443505E+01  0.00000000000E+00 0.  1.
          2   -1    0    0  501    0  0.00000000000E+00 -0.00000000000E+00 -0.41806433306E+03  0.41806433306E+03  0.00000000000E+00 0. -1.
         23    2    1    2    0    0  0.14838395863E+02  0.17546884618E+02 -0.36706806431E+03  0.37850415015E+03  0.89433532250E+02 0.  0.
         13    1    3    3    0    0 -0.11911916240E+02  0.46997900787E+00 -0.32779114859E+03  0.32800785314E+03  0.00000000000E+00 0. -1.
        -13    1    3    3    0    0  0.26750312103E+02  0.17076905610E+02 -0.39276915722E+02  0.50496297008E+02  0.00000000000E+00 0.  1.
         22    1    1    2    0    0 -0.14838395863E+02 -0.17546884618E+02 -0.42362524400E+02  0.48193927264E+02  0.00000000000E+00 0.  1.
<mgrwt>
<rscale>  0 0.65219014E+02</rscale>
<asrwt>0</asrwt>
<pdfrwt beam="1">  1        2 0.64317608E-01 0.92338658E+02</pdfrwt>
<pdfrwt beam="2">  1       -2 0.13282680E-02 0.92338658E+02</pdfrwt>
<totfact> 0.92974609E+04</totfact>
</mgrwt>
</event>
<event>
 6    1  0.1535419E-002  0.9277701E+02  0.7546771E-02  0.1423906E+00
         -4   -1    0    0    0  501 -0.00000000000E+00  0.00000000000E+00  0.37770466784E+03  0.37770466784E+03  0.00000000000E+00 0.  1.
          4   -1    0    0  501    0  0.00000000000E+00 -0.00000000000E+00 -0.72011652379E+01  0.72011652379E+01  0.00000000000E+00 0. -1.
         23    2    1    2    0    0  0.55949048219E+01  0.92480209401E+01  0.31586822678E+03  0.32921164832E+03  0.92145232387E+02 0.  0.
         13    1    3    3    0    0  0.38179436185E+02  0.25489235794E+02  0.24781984964E+03  0.25203580771E+03  0.00000000000E+00 0.  1.
        -13    1    3    3    0    0 -0.32584531363E+02 -0.16241214854E+02  0.68048377130E+02  0.77175840612E+02  0.00000000000E+00 0. -1.
         22    1    1    2    0    0 -0.55949048219E+01 -0.92480209401E+01  0.54635275829E+02  0.55694184761E+02  0.00000000000E+00 0.  1.
<mgrwt>
<rscale>  0 0.54203088E+02</rscale>
<asrwt>0</asrwt>
<pdfrwt beam="1">  1        4 0.11078719E-02 0.92777005E+02</pdfrwt>
<pdfrwt beam="2">  1       -4 0.58108395E-01 0.92777005E+02</pdfrwt>
<totfact> 0.10463150E+04</totfact>
</mgrwt>
</event>
<event>
 6    1  0.1535419E-002  0.1358588E+03  0.7546771E-02  0.1235390E+00
         -1   -1    0    0    0  501 -0.00000000000E+00  0.00000000000E+00  0.66625647330E+02  0.66625647330E+02  0.00000000000E+00 0.  1.
          1   -1    0    0  501    0  0.00000000000E+00 -0.00000000000E+00 -0.21234523699E+03  0.21234523699E+03  0.00000000000E+00 0. -1.
         23    2    1    2    0    0 -0.79009230508E+02  0.55791769369E+02 -0.11347778048E+03  0.17701641265E+03  0.95406622668E+02 0.  0.
         13    1    3    3    0    0 -0.10575152495E+02  0.55154494997E+02 -0.16896494055E+02  0.58645917846E+02  0.00000000000E+00 0. -1.
        -13    1    3    3    0    0 -0.68434078013E+02  0.63727437217E+00 -0.96581286422E+02  0.11837049480E+03  0.00000000000E+00 0.  1.
         22    1    1    2    0    0  0.79009230508E+02 -0.55791769369E+02 -0.32241809181E+02  0.10195447167E+03  0.00000000000E+00 0.  1.
<mgrwt>
<rscale>  0 0.12479502E+03</rscale>
<asrwt>0</asrwt>
<pdfrwt beam="1">  1        1 0.32668498E-01 0.13585876E+03</pdfrwt>
<pdfrwt beam="2">  1       -1 0.10250100E-01 0.13585876E+03</pdfrwt>
<totfact> 0.75594087E+03</totfact>
</mgrwt>
</event>
<event>
 6    1  0.1535419E-002  0.9199156E+02  0.7546771E-02  0.1411956E+00
          2   -1    0    0  501    0  0.00000000000E+00  0.00000000000E+00  0.81385896225E+03  0.81385896225E+03  0.00000000000E+00 0. -1.
         -2   -1    0    0    0  501 -0.00000000000E+00 -0.00000000000E+00 -0.40411522426E+01  0.40411522426E+01  0.00000000000E+00 0.  1.
         23    2    1    2    0    0  0.67861271474E+01 -0.11476450554E+02  0.77774498101E+03  0.78316645936E+03  0.91020256763E+02 0.  0.
         13    1    3    3    0    0 -0.98865591642E+01 -0.20290413591E+02  0.74527697362E+03  0.74561867758E+03  0.00000000000E+00 0. -1.
        -13    1    3    3    0    0  0.16672686312E+02  0.88139630369E+01  0.32468007383E+02  0.37547781781E+02  0.00000000000E+00 0.  1.
         22    1    1    2    0    0 -0.67861271474E+01  0.11476450554E+02  0.32072828995E+02  0.34733655131E+02  0.00000000000E+00 0.  1.
<mgrwt>
<rscale>  0 0.56759739E+02</rscale>
<asrwt>0</asrwt>
<pdfrwt beam="1">  1        2 0.12520894E+00 0.91991563E+02</pdfrwt>
<pdfrwt beam="2">  1       -2 0.62171637E-03 0.91991563E+02</pdfrwt>
<totfact> 0.12865610E+05</totfact>
</mgrwt>
</event>
<event>
 6    1  0.1535419E-002  0.9355459E+02  0.7546771E-02  0.1420592E+00
         -1   -1    0    0    0  501 -0.00000000000E+00  0.00000000000E+00  0.35523244039E+02  0.35523244039E+02  0.00000000000E+00 0.  1.
          1   -1    0    0  501    0  0.00000000000E+00 -0.00000000000E+00 -0.14851832554E+03  0.14851832554E+03  0.00000000000E+00 0. -1.
         23    2    1    2    0    0 -0.49915967893E+01  0.99041220160E+01 -0.13214622263E+03  0.16191073412E+03  0.92894854523E+02 0.  0.
         11    1    3    3    0    0  0.12572478649E+02 -0.34688042752E+02 -0.25097184787E+02  0.44622821667E+02  0.00000000000E+00 0. -1.
        -11    1    3    3    0    0 -0.17564075438E+02  0.44592164768E+02 -0.10704903784E+03  0.11728791245E+03  0.00000000000E+00 0.  1.
         22    1    1    2    0    0  0.49915967893E+01 -0.99041220160E+01  0.19151141130E+02  0.22130835457E+02  0.00000000000E+00 0. -1.
<mgrwt>
<rscale>  0 0.54895956E+02</rscale>
<asrwt>0</asrwt>
<pdfrwt beam="1">  1        1 0.22848973E-01 0.93554592E+02</pdfrwt>
<pdfrwt beam="2">  1       -1 0.54651144E-02 0.93554592E+02</pdfrwt>
<totfact> 0.29170536E+04</totfact>
</mgrwt>
</event>
<event>
 6    1  0.1535419E-002  0.9118799E+02  0.7546771E-02  0.1419493E+00
          4   -1    0    0  501    0  0.00000000000E+00  0.00000000000E+00  0.20351039251E+02  0.20351039251E+02  0.00000000000E+00 0. -1.
         -4   -1    0    0    0  501 -0.00000000000E+00 -0.00000000000E+00 -0.13666953399E+03  0.13666953399E+03  0.00000000000E+00 0.  1.
         23    2    1    2    0    0 -0.10974115391E+02 -0.52865552327E+01 -0.90504493596E+02  0.12847689566E+03  0.90370739082E+02 0.  0.
         11    1    3    3    0    0 -0.41320612614E+02  0.22321655786E+02 -0.31269124361E+02  0.56421693364E+02  0.00000000000E+00 0. -1.
        -11    1    3    3    0    0  0.30346497223E+02 -0.27608211018E+02 -0.59235369235E+02  0.72055202295E+02  0.00000000000E+00 0.  1.
         22    1    1    2    0    0  0.10974115391E+02  0.52865552327E+01 -0.25814001139E+02  0.28543677578E+02  0.00000000000E+00 0.  1.
<mgrwt>
<rscale>  0 0.55128318E+02</rscale>
<asrwt>0</asrwt>
<pdfrwt beam="1">  1        4 0.31309291E-02 0.91187989E+02</pdfrwt>
<pdfrwt beam="2">  1       -4 0.21026082E-01 0.91187989E+02</pdfrwt>
<totfact> 0.15027801E+04</totfact>
</mgrwt>
</event>
<event>
 6    1  0.1535419E-002  0.9207128E+02  0.7546771E-02  0.1402122E+00
         -1   -1    0    0    0  501 -0.00000000000E+00  0.00000000000E+00  0.13352806538E+03  0.13352806538E+03  0.00000000000E+00 0.  1.
          1   -1    0    0  501    0  0.00000000000E+00 -0.00000000000E+00 -0.24146548496E+02  0.24146548496E+02  0.00000000000E+00 0. -1.
         23    2    1    2    0    0  0.65500250767E+01  0.14063431199E+02  0.70972189320E+02  0.11625047394E+03  0.90754824163E+02 0.  0.
         13    1    3    3    0    0  0.38418224728E+02  0.32056413294E+02  0.59830327778E+02  0.77995139249E+02  0.00000000000E+00 0.  1.
        -13    1    3    3    0    0 -0.31868199651E+02 -0.17992982096E+02  0.11141861542E+02  0.38255334691E+02  0.00000000000E+00 0. -1.
         22    1    1    2    0    0 -0.65500250767E+01 -0.14063431199E+02  0.38409327567E+02  0.41424139939E+02  0.00000000000E+00 0.  1.
<mgrwt>
<rscale>  0 0.58989376E+02</rscale>
<asrwt>0</asrwt>
<pdfrwt beam="1">  1        1 0.37148537E-02 0.92071282E+02</pdfrwt>
<pdfrwt beam="2">  1       -1 0.20542779E-01 0.92071282E+02</pdfrwt>
<totfact> 0.42140902E+04</totfact>
</mgrwt>
</event>
<event>
 6    1  0.1535419E-002  0.9378822E+02  0.7546771E-02  0.1378195E+00
         -2   -1    0    0    0  501 -0.00000000000E+00  0.00000000000E+00  0.11014717729E+02  0.11014717729E+02  0.00000000000E+00 0.  1.
          2   -1    0    0  501    0  0.00000000000E+00 -0.00000000000E+00 -0.85164788664E+03  0.85164788664E+03  0.00000000000E+00 0. -1.
         23    2    1    2    0    0 -0.48096078520E+01  0.21015186475E+02 -0.83517400199E+03  0.84042360948E+03  0.91276828295E+02 0.  0.
         13    1    3    3    0    0  0.39460106853E+02  0.12563932022E+02 -0.56506025940E+03  0.56657572237E+03  0.00000000000E+00 0. -1.
        -13    1    3    3    0    0 -0.44269714705E+02  0.84512544525E+01 -0.27011374258E+03  0.27384788711E+03  0.00000000000E+00 0.  1.
         22    1    1    2    0    0  0.48096078520E+01 -0.21015186475E+02 -0.54591669253E+01  0.22238994891E+02  0.00000000000E+00 0.  1.
<mgrwt>
<rscale>  0 0.64940558E+02</rscale>
<asrwt>0</asrwt>
<pdfrwt beam="1">  1        2 0.13102280E+00 0.93788218E+02</pdfrwt>
<pdfrwt beam="2">  1       -2 0.16945713E-02 0.93788218E+02</pdfrwt>
<totfact> 0.29420980E+04</totfact>
</mgrwt>
</event>
<event>
 6    1  0.1535419E-002  0.9011743E+02  0.7546771E-02  0.1431499E+00
          2   -1    0    0  501    0  0.00000000000E+00  0.00000000000E+00  0.43602786475E+02  0.43602786475E+02  0.00000000000E+00 0. -1.
         -2   -1    0    0    0  501 -0.00000000000E+00 -0.00000000000E+00 -0.75032358280E+02  0.75032358280E+02  0.00000000000E+00 0.  1.
         23    2    1    2    0    0  0.61972732497E+01 -0.84854948116E+01 -0.50717054386E+01  0.90260033524E+02  0.89502746538E+02 0.  0.
         13    1    3    3    0    0  0.20808020613E+02 -0.15097147243E+02  0.37103082868E+02  0.45139077694E+02  0.00000000000E+00 0. -1.
        -13    1    3    3    0    0 -0.14610747363E+02  0.66116524318E+01 -0.42174788307E+02  0.45120955831E+02  0.00000000000E+00 0.  1.
         22    1    1    2    0    0 -0.61972732497E+01  0.84854948116E+01 -0.26357866367E+02  0.28375111230E+02  0.00000000000E+00 0.  1.
<mgrwt>
<rscale>  0 0.52660207E+02</rscale>
<asrwt>0</asrwt>
<pdfrwt beam="1">  1        2 0.67081210E-02 0.90117431E+02</pdfrwt>
<pdfrwt beam="2">  1       -2 0.11543440E-01 0.90117431E+02</pdfrwt>
<totfact> 0.48296200E+04</totfact>
</mgrwt>
</event>
<event>
 6    1  0.1535419E-002  0.1011808E+03  0.7546771E-02  0.1405651E+00
          2   -1    0    0  501    0  0.00000000000E+00  0.00000000000E+00  0.64905815964E+03  0.64905815964E+03  0.00000000000E+00 0. -1.
         -2   -1    0    0    0  501 -0.00000000000E+00 -0.00000000000E+00 -0.64037098013E+01  0.64037098013E+01  0.00000000000E+00 0.  1.
         23    2    1    2    0    0  0.37413258764E+01 -0.10405652328E+02  0.63219618570E+03  0.64024180346E+03  0.10057472128E+03 0.  0.
         13    1    3    3    0    0  0.12846037171E+02 -0.13710819633E+02  0.18163538267E+02  0.26132764270E+02  0.00000000000E+00 0.  1.
        -13    1    3    3    0    0 -0.91047112945E+01  0.33051673048E+01  0.61403264744E+03  0.61410903919E+03  0.00000000000E+00 0. -1.
         22    1    1    2    0    0 -0.37413258764E+01  0.10405652328E+02  0.10458264131E+02  0.15220065976E+02  0.00000000000E+00 0.  1.
<mgrwt>
<rscale>  0 0.58175587E+02</rscale>
<asrwt>0</asrwt>
<pdfrwt beam="1">  1        2 0.99855050E-01 0.10118078E+03</pdfrwt>
<pdfrwt beam="2">  1       -2 0.98518664E-03 0.10118078E+03</pdfrwt>
<totfact> 0.88961010E+04</totfact>
</mgrwt>
</event>
<event>
 6    1  0.1535419E-002  0.1158264E+03  0.7546771E-02  0.1281375E+00
          2   -1    0    0  501    0  0.00000000000E+00  0.00000000000E+00  0.20484673956E+04  0.20484673956E+04  0.00000000000E+00 0. -1.
         -2   -1    0    0    0  501 -0.00000000000E+00 -0.00000000000E+00 -0.13630146134E+02  0.13630146134E+02  0.00000000000E+00 0.  1.
         23    2    1    2    0    0  0.39319149269E+02  0.49285232740E+02  0.19634156182E+04  0.19668290838E+04  0.97163395414E+02 0.  0.
         13    1    3    3    0    0  0.47227868070E+02  0.58716781788E+02  0.19253271900E+04  0.19268012146E+04  0.00000000000E+00 0. -1.
        -13    1    3    3    0    0 -0.79087188013E+01 -0.94315490478E+01  0.38088428191E+02  0.40027869199E+02  0.00000000000E+00 0.  1.
         22    1    1    2    0    0 -0.39319149269E+02 -0.49285232740E+02  0.71421631269E+02  0.95268457941E+02  0.00000000000E+00 0.  1.
<mgrwt>
<rscale>  0 0.99488577E+02</rscale>
<asrwt>0</asrwt>
<pdfrwt beam="1">  1        2 0.31514859E+00 0.11582640E+03</pdfrwt>
<pdfrwt beam="2">  1       -2 0.20969472E-02 0.11582640E+03</pdfrwt>
<totfact> 0.50101182E+03</totfact>
</mgrwt>
</event>
<event>
 6    1  0.1535419E-002  0.9650355E+02  0.7546771E-02  0.1405603E+00
         -2   -1    0    0    0  501 -0.00000000000E+00  0.00000000000E+00  0.58848577884E+02  0.58848577884E+02  0.00000000000E+00 0.  1.
          2   -1    0    0  501    0  0.00000000000E+00 -0.00000000000E+00 -0.10942228851E+03  0.10942228851E+03  0.00000000000E+00 0. -1.
         23    2    1    2    0    0  0.90078116394E+00  0.12722636084E+02 -0.86842300568E+02  0.12982496295E+03  0.95656985955E+02 0.  0.
         13    1    3    3    0    0 -0.27178300388E+02 -0.12218367132E+02  0.53513733921E+01  0.30275166466E+02  0.00000000000E+00 0.  1.
        -13    1    3    3    0    0  0.28079081552E+02  0.24941003216E+02 -0.92193673960E+02  0.99549796486E+02  0.00000000000E+00 0. -1.
         22    1    1    2    0    0 -0.90078116394E+00 -0.12722636084E+02  0.36268589938E+02  0.38445903445E+02  0.00000000000E+00 0. -1.
<mgrwt>
<rscale>  0 0.58186630E+02</rscale>
<asrwt>0</asrwt>
<pdfrwt beam="1">  1        2 0.16834198E-01 0.96503553E+02</pdfrwt>
<pdfrwt beam="2">  1       -2 0.90536274E-02 0.96503553E+02</pdfrwt>
<totfact> 0.23510296E+04</totfact>
</mgrwt>
</event>
<event>
 6    1  0.1535419E-002  0.9065999E+02  0.7546771E-02  0.1419973E+00
          2   -1    0    0  501    0  0.00000000000E+00  0.00000000000E+00  0.69584691820E+02  0.69584691820E+02  0.00000000000E+00 0. -1.
         -2   -1    0    0    0  501 -0.00000000000E+00 -0.00000000000E+00 -0.40569662499E+02  0.40569662499E+02  0.00000000000E+00 0.  1.
         23    2    1    2    0    0  0.32141267698E+01  0.11876635613E+02  0.34072954081E+02  0.96851434066E+02  0.89821205717E+02 0.  0.
         11    1    3    3    0    0  0.42920412414E+02 -0.83270122132E+01  0.58427067979E+01  0.44109388535E+02  0.00000000000E+00 0. -1.
        -11    1    3    3    0    0 -0.39706285644E+02  0.20203647826E+02  0.28230247283E+02  0.52742045531E+02  0.00000000000E+00 0.  1.
         22    1    1    2    0    0 -0.32141267698E+01 -0.11876635613E+02 -0.50579247598E+01  0.13302920253E+02  0.00000000000E+00 0. -1.
<mgrwt>
<rscale>  0 0.55026532E+02</rscale>
<asrwt>0</asrwt>
<pdfrwt beam="1">  1        2 0.10705337E-01 0.90659992E+02</pdfrwt>
<pdfrwt beam="2">  1       -2 0.62414865E-02 0.90659992E+02</pdfrwt>
<totfact> 0.69888009E+04</totfact>
</mgrwt>
</event>
<event>
 6    1  0.1535419E-002  0.9618468E+02  0.7546771E-02  0.1375526E+00
         -2   -1    0    0    0  501 -0.00000000000E+00  0.00000000000E+00  0.96603423113E+01  0.96603423113E+01  0.00000000000E+00 0.  1.
          2   -1    0    0  501    0  0.00000000000E+00 -0.00000000000E+00 -0.69824791584E+03  0.69824791584E+03  0.00000000000E+00 0. -1.
         23    2    1    2    0    0  0.18925049752E+02  0.88226319062E+01 -0.67744797599E+03  0.68424210140E+03  0.93890877180E+02 0.  0.
         13    1    3    3    0    0  0.17603152975E+02 -0.15298412812E+02 -0.39749083477E+02  0.46085811987E+02  0.00000000000E+00 0.  1.
        -13    1    3    3    0    0  0.13218967768E+01  0.24121044718E+02 -0.63769889251E+03  0.63815628942E+03  0.00000000000E+00 0. -1.
         22    1    1    2    0    0 -0.18925049752E+02 -0.88226319062E+01 -0.11139597536E+02  0.23666156746E+02  0.00000000000E+00 0.  1.
<mgrwt>
<rscale>  0 0.65654545E+02</rscale>
<asrwt>0</asrwt>
<pdfrwt beam="1">  1        2 0.10742276E+00 0.96184683E+02</pdfrwt>
<pdfrwt beam="2">  1       -2 0.14862065E-02 0.96184683E+02</pdfrwt>
<totfact> 0.45244297E+04</totfact>
</mgrwt>
</event>
<event>
 6    1  0.1535419E-002  0.9432190E+02  0.7546771E-02  0.1394369E+00
         -1   -1    0    0    0  501 -0.00000000000E+00  0.00000000000E+00  0.17383318326E+02  0.17383318326E+02  0.00000000000E+00 0.  1.
          1   -1    0    0  501    0  0.00000000000E+00 -0.00000000000E+00 -0.35927913019E+03  0.35927913019E+03  0.00000000000E+00 0. -1.
         23    2    1    2    0    0 -0.15469314461E+02 -0.52000577214E+01 -0.34697785834E+03  0.35956954103E+03  0.92899302297E+02 0.  0.
         11    1    3    3    0    0  0.61881293470E+01  0.40227960821E+02 -0.20325722106E+03  0.20729225670E+03  0.00000000000E+00 0. -1.
        -11    1    3    3    0    0 -0.21657443808E+02 -0.45428018543E+02 -0.14372063728E+03  0.15227728433E+03  0.00000000000E+00 0.  1.
         22    1    1    2    0    0  0.15469314461E+02  0.52000577214E+01  0.50820464708E+01  0.17092907492E+02  0.00000000000E+00 0.  1.
<mgrwt>
<rscale>  0 0.60832969E+02</rscale>
<asrwt>0</asrwt>
<pdfrwt beam="1">  1        1 0.55273705E-01 0.94321899E+02</pdfrwt>
<pdfrwt beam="2">  1       -1 0.26743570E-02 0.94321899E+02</pdfrwt>
<totfact> 0.27845041E+04</totfact>
</mgrwt>
</event>
<event>
 6    1  0.1535419E-002  0.9210623E+02  0.7546771E-02  0.1426591E+00
          1   -1    0    0  501    0  0.00000000000E+00  0.00000000000E+00  0.17521555766E+03  0.17521555766E+03  0.00000000000E+00 0. -1.
         -1   -1    0    0    0  501 -0.00000000000E+00 -0.00000000000E+00 -0.30571575369E+02  0.30571575369E+02  0.00000000000E+00 0.  1.
         23    2    1    2    0    0 -0.22733241916E+01 -0.10356310742E+02  0.16147366482E+03  0.18589594430E+03  0.91493915114E+02 0.  0.
         13    1    3    3    0    0  0.27642627626E+02  0.27873350881E+02  0.45030125843E+02  0.59739022295E+02  0.00000000000E+00 0. -1.
        -13    1    3    3    0    0 -0.29915951817E+02 -0.38229661622E+02  0.11644353898E+03  0.12615692201E+03  0.00000000000E+00 0.  1.
         22    1    1    2    0    0  0.22733241916E+01  0.10356310742E+02 -0.16829682526E+02  0.19891188728E+02  0.00000000000E+00 0.  1.
<mgrwt>
<rscale>  0 0.53650376E+02</rscale>
<asrwt>0</asrwt>
<pdfrwt beam="1">  1        1 0.26956239E-01 0.92106230E+02</pdfrwt>
<pdfrwt beam="2">  1       -1 0.47033194E-02 0.92106230E+02</pdfrwt>
<totfact> 0.29549688E+04</totfact>
</mgrwt>
</event>
<event>
 6    1  0.1535419E-002  0.9408991E+02  0.7546771E-02  0.1401550E+00
         -4   -1    0    0    0  501 -0.00000000000E+00  0.00000000000E+00  0.16844841507E+02  0.16844841507E+02  0.00000000000E+00 0.  1.
          4   -1    0    0  501    0  0.00000000000E+00 -0.00000000000E+00 -0.19325976036E+03  0.19325976036E+03  0.00000000000E+00 0. -1.
         23    2    1    2    0    0 -0.13141079138E+02  0.65181095920E+01 -0.16955313206E+03  0.19391022532E+03  0.92939427478E+02 0.  0.
         11    1    3    3    0    0 -0.26424229362E+02 -0.23411149281E+02 -0.15337801512E+03  0.15738849173E+03  0.00000000000E+00 0. -1.
        -11    1    3    3    0    0  0.13283150224E+02  0.29929258873E+02 -0.16175116945E+02  0.36521733595E+02  0.00000000000E+00 0.  1.
         22    1    1    2    0    0  0.13141079138E+02 -0.65181095920E+01 -0.68617867898E+01  0.16194376540E+02  0.00000000000E+00 0.  1.
<mgrwt>
<rscale>  0 0.59122928E+02</rscale>
<asrwt>0</asrwt>
<pdfrwt beam="1">  1        4 0.29732271E-01 0.94089909E+02</pdfrwt>
<pdfrwt beam="2">  1       -4 0.25915141E-02 0.94089909E+02</pdfrwt>
<totfact> 0.10780825E+04</totfact>
</mgrwt>
</event>
<event>
 6    1  0.1535419E-002  0.9731209E+02  0.7546771E-02  0.1340515E+00
          2   -1    0    0  501    0  0.00000000000E+00  0.00000000000E+00  0.37792125284E+03  0.37792125284E+03  0.00000000000E+00 0. -1.
         -2   -1    0    0    0  501 -0.00000000000E+00 -0.00000000000E+00 -0.18920266174E+02  0.18920266174E+02  0.00000000000E+00 0.  1.
         23    2    1    2    0    0 -0.29462416911E+02  0.21348311026E+02  0.34397829750E+03  0.35747826732E+03  0.90254407438E+02 0.  0.
         13    1    3    3    0    0  0.11920310119E+02 -0.26710062689E+02  0.16555145441E+03  0.16811545229E+03  0.00000000000E+00 0. -1.
        -13    1    3    3    0    0 -0.41382727030E+02  0.48058373715E+02  0.17842684309E+03  0.18936281503E+03  0.00000000000E+00 0.  1.
         22    1    1    2    0    0  0.29462416911E+02 -0.21348311026E+02  0.15022689162E+02  0.39363251689E+02  0.00000000000E+00 0.  1.
<mgrwt>
<rscale>  0 0.76094322E+02</rscale>
<asrwt>0</asrwt>
<pdfrwt beam="1">  1        2 0.58141725E-01 0.97312088E+02</pdfrwt>
<pdfrwt beam="2">  1       -2 0.29108105E-02 0.97312088E+02</pdfrwt>
<totfact> 0.33691759E+04</totfact>
</mgrwt>
</event>
<event>
 6    1  0.1535419E-002  0.9496520E+02  0.7546771E-02  0.1344725E+00
          2   -1    0    0  501    0  0.00000000000E+00  0.00000000000E+00  0.31696456107E+02  0.31696456107E+02  0.00000000000E+00 0. -1.
         -2   -1    0    0    0  501 -0.00000000000E+00 -0.00000000000E+00 -0.16676189750E+03  0.16676189750E+03  0.00000000000E+00 0.  1.
         23    2    1    2    0    0 -0.36262887120E+02  0.32220654413E+01 -0.53172747880E+02  0.10883808838E+03  0.87709803772E+02 0.  0.
         11    1    3    3    0    0  0.20352762780E+02 -0.15324571192E+02 -0.40628414772E+02  0.47955662042E+02  0.00000000000E+00 0. -1.
        -11    1    3    3    0    0 -0.56615649900E+02  0.18546636634E+02 -0.12544333108E+02  0.60882426341E+02  0.00000000000E+00 0.  1.
         22    1    1    2    0    0  0.36262887120E+02 -0.32220654413E+01 -0.81892693510E+02  0.89620265221E+02  0.00000000000E+00 0. -1.
<mgrwt>
<rscale>  0 0.74724987E+02</rscale>
<asrwt>0</asrwt>
<pdfrwt beam="1">  1        2 0.48763779E-02 0.94965196E+02</pdfrwt>
<pdfrwt beam="2">  1       -2 0.25655677E-01 0.94965196E+02</pdfrwt>
<totfact> 0.19584516E+04</totfact>
</mgrwt>
</event>
<event>
 6    1  0.1535419E-002  0.9356823E+02  0.7546771E-02  0.1363869E+00
         -2   -1    0    0    0  501 -0.00000000000E+00  0.00000000000E+00  0.32215309791E+01  0.32215309791E+01  0.00000000000E+00 0.  1.
          2   -1    0    0  501    0  0.00000000000E+00 -0.00000000000E+00 -0.14384085510E+04  0.14384085510E+04  0.00000000000E+00 0. -1.
         23    2    1    2    0    0 -0.10944133775E+02 -0.25242216491E+02 -0.13154190614E+04  0.13187427048E+04  0.89431933972E+02 0.  0.
         11    1    3    3    0    0 -0.27564110966E+02 -0.12684257185E+02 -0.12434358386E+04  0.12438059959E+04  0.00000000000E+00 0. -1.
        -11    1    3    3    0    0  0.16619977191E+02 -0.12557959306E+02 -0.71983222764E+02  0.74936708917E+02  0.00000000000E+00 0.  1.
         22    1    1    2    0    0  0.10944133775E+02  0.25242216491E+02 -0.11976795862E+03  0.12288737718E+03  0.00000000000E+00 0.  1.
<mgrwt>
<rscale>  0 0.68901593E+02</rscale>
<asrwt>0</asrwt>
<pdfrwt beam="1">  1        2 0.22129327E+00 0.93568234E+02</pdfrwt>
<pdfrwt beam="2">  1       -2 0.49562095E-03 0.93568234E+02</pdfrwt>
<totfact> 0.78501693E+04</totfact>
</mgrwt>
</event>
<event>
 6    1  0.1535419E-002  0.8312982E+02  0.7546771E-02  0.1416412E+00
          1   -1    0    0  501    0  0.00000000000E+00  0.00000000000E+00  0.45125330519E+02  0.45125330519E+02  0.00000000000E+00 0. -1.
         -1   -1    0    0    0  501 -0.00000000000E+00 -0.00000000000E+00 -0.55532724374E+02  0.55532724374E+02  0.00000000000E+00 0.  1.
         23    2    1    2    0    0 -0.79485453395E+01  0.14869191772E+02 -0.67337495171E+01  0.83402102307E+02  0.81402058019E+02 0.  0.
         13    1    3    3    0    0  0.10281187361E+02  0.72201651918E+01  0.35019639923E+02  0.37204956381E+02  0.00000000000E+00 0. -1.
        -13    1    3    3    0    0 -0.18229732700E+02  0.76490265800E+01 -0.41753389440E+02  0.46197145926E+02  0.00000000000E+00 0.  1.
         22    1    1    2    0    0  0.79485453395E+01 -0.14869191772E+02 -0.36736443381E+01  0.17255952587E+02  0.00000000000E+00 0.  1.
<mgrwt>
<rscale>  0 0.55787184E+02</rscale>
<asrwt>0</asrwt>
<pdfrwt beam="1">  1        1 0.69423585E-02 0.83129822E+02</pdfrwt>
<pdfrwt beam="2">  1       -1 0.85434961E-02 0.83129822E+02</pdfrwt>
<totfact> 0.68862838E+04</totfact>
</mgrwt>
</event>
<event>
 6    1  0.1535419E-002  0.1128252E+03  0.7546771E-02  0.1287391E+00
         -1   -1    0    0    0  501 -0.00000000000E+00  0.00000000000E+00  0.37469144123E+02  0.37469144123E+02  0.00000000000E+00 0.  1.
          1   -1    0    0  501    0  0.00000000000E+00 -0.00000000000E+00 -0.25933949361E+03  0.25933949361E+03  0.00000000000E+00 0. -1.
         23    2    1    2    0    0  0.53521989464E+02  0.29019927326E+02 -0.20439517115E+03  0.23346717109E+03  0.94988285853E+02 0.  0.
         11    1    3    3    0    0  0.66443218171E+02 -0.97165688527E+01 -0.92118496353E+02  0.11399530833E+03  0.00000000000E+00 0.  1.
        -11    1    3    3    0    0 -0.12921228707E+02  0.38736496179E+02 -0.11227667480E+03  0.11947186276E+03  0.00000000000E+00 0. -1.
         22    1    1    2    0    0 -0.53521989464E+02 -0.29019927326E+02 -0.17475178333E+02  0.63341466639E+02  0.00000000000E+00 0. -1.
<mgrwt>
<rscale>  0 0.96700560E+02</rscale>
<asrwt>0</asrwt>
<pdfrwt beam="1">  1        1 0.39898384E-01 0.11282524E+03</pdfrwt>
<pdfrwt beam="2">  1       -1 0.57644837E-02 0.11282524E+03</pdfrwt>
<totfact> 0.13819068E+04</totfact>
</mgrwt>
</event>
<event>
 6    1  0.1535419E-002  0.7910352E+02  0.7546771E-02  0.1458806E+00
         -2   -1    0    0    0  501 -0.00000000000E+00  0.00000000000E+00  0.78726495403E+01  0.78726495403E+01  0.00000000000E+00 0.  1.
          2   -1    0    0  501    0  0.00000000000E+00 -0.00000000000E+00 -0.70687916439E+03  0.70687916439E+03  0.00000000000E+00 0. -1.
         23    2    1    2    0    0 -0.87581991568E+01 -0.55349954979E+01 -0.69989698750E+03  0.70435300779E+03  0.78422090318E+02 0.  0.
         13    1    3    3    0    0 -0.11177033673E+02 -0.12394143647E+02 -0.69581017847E+03  0.69601030549E+03  0.00000000000E+00 0. -1.
        -13    1    3    3    0    0  0.24188345165E+01  0.68591481494E+01 -0.40868090267E+01  0.83427023065E+01  0.00000000000E+00 0.  1.
         22    1    1    2    0    0  0.87581991568E+01  0.55349954979E+01  0.89047264493E+00  0.10398806141E+02  0.00000000000E+00 0. -1.
<mgrwt>
<rscale>  0 0.47587531E+02</rscale>
<asrwt>0</asrwt>
<pdfrwt beam="1">  1        2 0.10875062E+00 0.79103517E+02</pdfrwt>
<pdfrwt beam="2">  1       -2 0.12111771E-02 0.79103517E+02</pdfrwt>
<totfact> 0.58260511E+04</totfact>
</mgrwt>
</event>
<event>
 6    1  0.1535419E-002  0.9253351E+02  0.7546771E-02  0.1394798E+00
          4   -1    0    0  501    0  0.00000000000E+00  0.00000000000E+00  0.97495902779E+02  0.97495902779E+02  0.00000000000E+00 0. -1.
         -4   -1    0    0    0  501 -0.00000000000E+00 -0.00000000000E+00 -0.34462661472E+02  0.34462661472E+02  0.00000000000E+00 0.  1.
         23    2    1    2    0    0  0.14004729316E+02 -0.99278479594E+01  0.67118506845E+02  0.11431248812E+03  0.90927203689E+02 0.  0.
         13    1    3    3    0    0  0.41479497627E+02 -0.71478608481E+01  0.38684014045E+00  0.42092639302E+02  0.00000000000E+00 0.  1.
        -13    1    3    3    0    0 -0.27474768311E+02 -0.27799871113E+01  0.66731666704E+02  0.72219848817E+02  0.00000000000E+00 0. -1.
         22    1    1    2    0    0 -0.14004729316E+02  0.99278479594E+01 -0.40852655372E+01  0.17646076131E+02  0.00000000000E+00 0.  1.
<mgrwt>
<rscale>  0 0.60728955E+02</rscale>
<asrwt>0</asrwt>
<pdfrwt beam="1">  1        4 0.14999369E-01 0.92533513E+02</pdfrwt>
<pdfrwt beam="2">  1       -4 0.53019480E-02 0.92533513E+02</pdfrwt>
<totfact> 0.11924201E+04</totfact>
</mgrwt>
</event>
<event>
 6    1  0.1535419E-002  0.9864148E+02  0.7546771E-02  0.1329267E+00
         -1   -1    0    0    0  501 -0.00000000000E+00  0.00000000000E+00  0.11637457146E+03  0.11637457146E+03  0.00000000000E+00 0.  1.
          1   -1    0    0  501    0  0.00000000000E+00 -0.00000000000E+00 -0.86464717380E+02  0.86464717380E+02  0.00000000000E+00 0. -1.
         23    2    1    2    0    0  0.15550444326E+02  0.39567867735E+02  0.87090311428E+02  0.13158595783E+03  0.89009603294E+02 0.  0.
         13    1    3    3    0    0 -0.27926846855E+01  0.66190169381E+02  0.60710000751E+02  0.89859010686E+02  0.00000000000E+00 0.  1.
        -13    1    3    3    0    0  0.18343129011E+02 -0.26622301645E+02  0.26380310677E+02  0.41726947147E+02  0.00000000000E+00 0. -1.
         22    1    1    2    0    0 -0.15550444326E+02 -0.39567867735E+02 -0.57180457352E+02  0.71253331002E+02  0.00000000000E+00 0. -1.
<mgrwt>
<rscale>  0 0.79924044E+02</rscale>
<asrwt>0</asrwt>
<pdfrwt beam="1">  1        1 0.13302264E-01 0.98641482E+02</pdfrwt>
<pdfrwt beam="2">  1       -1 0.17903780E-01 0.98641482E+02</pdfrwt>
<totfact> 0.96542550E+03</totfact>
</mgrwt>
</event>
<event>
 6    1  0.1535419E-002  0.1019550E+03  0.7546771E-02  0.1318393E+00
         -2   -1    0    0    0  501 -0.00000000000E+00  0.00000000000E+00  0.10350923646E+03  0.10350923646E+03  0.00000000000E+00 0.  1.
          2   -1    0    0  501    0  0.00000000000E+00 -0.00000000000E+00 -0.56726818342E+02  0.56726818342E+02  0.00000000000E+00 0. -1.
         23    2    1    2    0    0 -0.12786767065E+02  0.44921108052E+02  0.13410460027E+02  0.10283313722E+03  0.90627845118E+02 0.  0.
         11    1    3    3    0    0  0.16793132728E+02 -0.18393814469E+02 -0.13036801288E+02  0.28112273216E+02  0.00000000000E+00 0. -1.
        -11    1    3    3    0    0 -0.29579899794E+02  0.63314922521E+02  0.26447261315E+02  0.74720863999E+02  0.00000000000E+00 0.  1.
         22    1    1    2    0    0  0.12786767065E+02 -0.44921108052E+02  0.33371958092E+02  0.57402917587E+02  0.00000000000E+00 0.  1.
<mgrwt>
<rscale>  0 0.83878057E+02</rscale>
<asrwt>0</asrwt>
<pdfrwt beam="1">  1        2 0.87272028E-02 0.10195496E+03</pdfrwt>
<pdfrwt beam="2">  1       -2 0.15924498E-01 0.10195496E+03</pdfrwt>
<totfact> 0.21096081E+04</totfact>
</mgrwt>
</event>
<event>
 6    1  0.1535419E-002  0.9286698E+02  0.7546771E-02  0.1407208E+00
         -2   -1    0    0    0  501 -0.00000000000E+00  0.00000000000E+00  0.19966777449E+02  0.19966777449E+02  0.00000000000E+00 0.  1.
          2   -1    0    0  501    0  0.00000000000E+00 -0.00000000000E+00 -0.22521200935E+03  0.22521200935E+03  0.00000000000E+00 0. -1.
         23    2    1    2    0    0 -0.12162530878E+02  0.68449692102E+01 -0.21065009791E+03  0.23021237983E+03  0.91812283045E+02 0.  0.
         13    1    3    3    0    0 -0.20593223213E+02 -0.81213646841E+01 -0.21184018787E+03  0.21299366799E+03  0.00000000000E+00 0. -1.
        -13    1    3    3    0    0  0.84306923351E+01  0.14966333894E+02  0.11900899588E+01  0.17218711845E+02  0.00000000000E+00 0.  1.
         22    1    1    2    0    0  0.12162530878E+02 -0.68449692102E+01  0.54048660114E+01  0.14966406965E+02  0.00000000000E+00 0. -1.
<mgrwt>
<rscale>  0 0.57821486E+02</rscale>
<asrwt>0</asrwt>
<pdfrwt beam="1">  1        2 0.34648000E-01 0.92866981E+02</pdfrwt>
<pdfrwt beam="2">  1       -2 0.30718120E-02 0.92866981E+02</pdfrwt>
<totfact> 0.53335362E+04</totfact>
</mgrwt>
</event>
<event>
 6    1  0.1535419E-002  0.9278797E+02  0.7546771E-02  0.1399895E+00
          2   -1    0    0  501    0  0.00000000000E+00  0.00000000000E+00  0.74312305237E+03  0.74312305237E+03  0.00000000000E+00 0. -1.
         -2   -1    0    0    0  501 -0.00000000000E+00 -0.00000000000E+00 -0.39864368827E+01  0.39864368827E+01  0.00000000000E+00 0.  1.
         23    2    1    2    0    0  0.15700336904E+02 -0.10326547532E+00  0.65205062163E+03  0.65861948095E+03  0.91449965997E+02 0.  0.
         13    1    3    3    0    0  0.17784867336E+02 -0.42376905633E+02  0.23687914892E+03  0.24129615585E+03  0.00000000000E+00 0.  1.
        -13    1    3    3    0    0 -0.20845304314E+01  0.42273640158E+02  0.41517147271E+03  0.41732332510E+03  0.00000000000E+00 0. -1.
         22    1    1    2    0    0 -0.15700336904E+02  0.10326547532E+00  0.87085993859E+02  0.88490008300E+02  0.00000000000E+00 0.  1.
<mgrwt>
<rscale>  0 0.59511151E+02</rscale>
<asrwt>0</asrwt>
<pdfrwt beam="1">  1        2 0.11432651E+00 0.92787971E+02</pdfrwt>
<pdfrwt beam="2">  1       -2 0.61329857E-03 0.92787971E+02</pdfrwt>
<totfact> 0.14657757E+05</totfact>
</mgrwt>
</event>
<event>
 6    1  0.1535419E-002  0.9853509E+02  0.7546771E-02  0.1341037E+00
          1   -1    0    0  501    0  0.00000000000E+00  0.00000000000E+00  0.72052136305E+03  0.72052136305E+03  0.00000000000E+00 0. -1.
         -1   -1    0    0    0  501 -0.00000000000E+00 -0.00000000000E+00 -0.26409983454E+02  0.26409983454E+02  0.00000000000E+00 0.  1.
         23    2    1    2    0    0 -0.24235859350E+02  0.24876884820E+02  0.70396664448E+03  0.71082923407E+03  0.92211318085E+02 0.  0.
         13    1    3    3    0    0 -0.34298699625E+01 -0.34957097136E+02  0.26329970150E+03  0.26563225605E+03  0.00000000000E+00 0.  1.
        -13    1    3    3    0    0 -0.20805989388E+02  0.59833981956E+02  0.44066694299E+03  0.44519697801E+03  0.00000000000E+00 0. -1.
         22    1    1    2    0    0  0.24235859350E+02 -0.24876884820E+02 -0.98552648822E+01  0.36102112441E+02  0.00000000000E+00 0.  1.
<mgrwt>
<rscale>  0 0.75922802E+02</rscale>
<asrwt>0</asrwt>
<pdfrwt beam="1">  1        1 0.11084943E+00 0.98535087E+02</pdfrwt>
<pdfrwt beam="2">  1       -1 0.40630749E-02 0.98535087E+02</pdfrwt>
<totfact> 0.61582473E+03</totfact>
</mgrwt>
</event>
<event>
 6    1  0.1535419E-002  0.9828906E+02  0.7546771E-02  0.1343173E+00
         -4   -1    0    0    0  501 -0.00000000000E+00  0.00000000000E+00  0.53830796904E+03  0.53830796904E+03  0.00000000000E+00 0.  1.
          4   -1    0    0  501    0  0.00000000000E+00 -0.00000000000E+00 -0.81118272191E+01  0.81118272191E+01  0.00000000000E+00 0. -1.
         23    2    1    2    0    0 -0.33279785554E+02 -0.54609511911E+01  0.40572077861E+03  0.41745669239E+03  0.92322119270E+02 0.  0.
         11    1    3    3    0    0 -0.20162406370E+02 -0.46509696807E+02  0.28009441320E+03  0.28464461146E+03  0.00000000000E+00 0. -1.
        -11    1    3    3    0    0 -0.13117379184E+02  0.41048745616E+02  0.12562636541E+03  0.13281208092E+03  0.00000000000E+00 0.  1.
         22    1    1    2    0    0  0.33279785554E+02  0.54609511911E+01  0.12447536321E+03  0.12896310388E+03  0.00000000000E+00 0.  1.
<mgrwt>
<rscale>  0 0.75225733E+02</rscale>
<asrwt>0</asrwt>
<pdfrwt beam="1">  1        4 0.12479738E-02 0.98289063E+02</pdfrwt>
<pdfrwt beam="2">  1       -4 0.82816582E-01 0.98289063E+02</pdfrwt>
<totfact> 0.41693875E+03</totfact>
</mgrwt>
</event>
<event>
 6    1  0.1535419E-002  0.1007908E+03  0.7546771E-02  0.1325970E+00
          2   -1    0    0  501    0  0.00000000000E+00  0.00000000000E+00  0.23179785861E+03  0.23179785861E+03  0.00000000000E+00 0.  1.
         -2   -1    0    0    0  501 -0.00000000000E+00 -0.00000000000E+00 -0.29302886497E+02  0.29302886497E+02  0.00000000000E+00 0. -1.
         23    2    1    2    0    0 -0.40634316996E+02  0.11538407027E+02  0.19310876219E+03  0.21782969831E+03  0.91512299039E+02 0.  0.
         11    1    3    3    0    0 -0.51663339635E+02  0.28802485481E+02  0.18747230937E+03  0.19658217267E+03  0.00000000000E+00 0. -1.
        -11    1    3    3    0    0  0.11029022639E+02 -0.17264078454E+02  0.56364528224E+01  0.21247525636E+02  0.00000000000E+00 0.  1.
         22    1    1    2    0    0  0.40634316996E+02 -0.11538407027E+02  0.93862099223E+01  0.43271046800E+02  0.00000000000E+00 0.  1.
<mgrwt>
<rscale>  0 0.81095843E+02</rscale>
<asrwt>0</asrwt>
<pdfrwt beam="1">  1        2 0.35661208E-01 0.10079079E+03</pdfrwt>
<pdfrwt beam="2">  1       -2 0.45081365E-02 0.10079079E+03</pdfrwt>
<totfact> 0.29747647E+04</totfact>
</mgrwt>
</event>
<event>
 6    1  0.1535419E-002  0.9273690E+02  0.7546771E-02  0.1398229E+00
          2   -1    0    0  501    0  0.00000000000E+00  0.00000000000E+00  0.31739213355E+03  0.31739213355E+03  0.00000000000E+00 0. -1.
         -2   -1    0    0    0  501 -0.00000000000E+00 -0.00000000000E+00 -0.10283442560E+02  0.10283442560E+02  0.00000000000E+00 0.  1.
         23    2    1    2    0    0 -0.51081656848E+01  0.15318322687E+02  0.28849521707E+03  0.30303403034E+03  0.91320254621E+02 0.  0.
         13    1    3    3    0    0 -0.35522171419E+02 -0.22308335132E+02  0.10026914522E+03  0.10868941053E+03  0.00000000000E+00 0.  1.
        -13    1    3    3    0    0  0.30414005734E+02  0.37626657819E+02  0.18822607185E+03  0.19434461980E+03  0.00000000000E+00 0. -1.
         22    1    1    2    0    0  0.51081656848E+01 -0.15318322687E+02  0.18613473917E+02  0.24641545768E+02  0.00000000000E+00 0.  1.
<mgrwt>
<rscale>  0 0.59905447E+02</rscale>
<asrwt>0</asrwt>
<pdfrwt beam="1">  1        2 0.48829551E-01 0.92736903E+02</pdfrwt>
<pdfrwt beam="2">  1       -2 0.15820683E-02 0.92736903E+02</pdfrwt>
<totfact> 0.96811501E+04</totfact>
</mgrwt>
</event>
<event>
 6    1  0.1535419E-002  0.1003383E+03  0.7546771E-02  0.1318948E+00
          1   -1    0    0  501    0  0.00000000000E+00  0.00000000000E+00  0.37499973088E+03  0.37499973088E+03  0.00000000000E+00 0. -1.
         -1   -1    0    0    0  501 -0.00000000000E+00 -0.00000000000E+00 -0.15949044596E+02  0.15949044596E+02  0.00000000000E+00 0.  1.
         23    2    1    2    0    0 -0.11940747993E+02  0.47022961852E+02  0.28745420502E+03  0.30446295853E+03  0.87829566361E+02 0.  0.
         11    1    3    3    0    0 -0.31669106052E+02 -0.92606938229E+01  0.52098344048E+02  0.61667902354E+02  0.00000000000E+00 0.  1.
        -11    1    3    3    0    0  0.19728358059E+02  0.56283655675E+02  0.23535586097E+03  0.24279505617E+03  0.00000000000E+00 0. -1.
         22    1    1    2    0    0  0.11940747993E+02 -0.47022961852E+02  0.71596481261E+02  0.86485816947E+02  0.00000000000E+00 0.  1.
<mgrwt>
<rscale>  0 0.83670016E+02</rscale>
<asrwt>0</asrwt>
<pdfrwt beam="1">  1        1 0.57692259E-01 0.10033829E+03</pdfrwt>
<pdfrwt beam="2">  1       -1 0.24536995E-02 0.10033829E+03</pdfrwt>
<totfact> 0.30095848E+04</totfact>
</mgrwt>
</event>
<event>
 6    1  0.1535419E-002  0.9458634E+02  0.7546771E-02  0.1377333E+00
         -2   -1    0    0    0  501 -0.00000000000E+00  0.00000000000E+00  0.46359883089E+02  0.46359883089E+02  0.00000000000E+00 0.  1.
          2   -1    0    0  501    0  0.00000000000E+00 -0.00000000000E+00 -0.42740193087E+03  0.42740193087E+03  0.00000000000E+00 0. -1.
         23    2    1    2    0    0  0.18330023575E+02  0.10880473944E+02 -0.41937042160E+03  0.42990478810E+03  0.92153143411E+02 0.  0.
         11    1    3    3    0    0  0.44933914064E+02 -0.73157339354E+01 -0.11273811020E+03  0.12158313242E+03  0.00000000000E+00 0.  1.
        -11    1    3    3    0    0 -0.26603890489E+02  0.18196207880E+02 -0.30663231140E+03  0.30832165569E+03  0.00000000000E+00 0. -1.
         22    1    1    2    0    0 -0.18330023575E+02 -0.10880473944E+02  0.38328373820E+02  0.43857025859E+02  0.00000000000E+00 0.  1.
<mgrwt>
<rscale>  0 0.65170052E+02</rscale>
<asrwt>0</asrwt>
<pdfrwt beam="1">  1        2 0.65754144E-01 0.94586343E+02</pdfrwt>
<pdfrwt beam="2">  1       -2 0.71322896E-02 0.94586343E+02</pdfrwt>
<totfact> 0.78121102E+03</totfact>
</mgrwt>
</event>
<event>
 6    1  0.1535419E-002  0.9047112E+02  0.7546771E-02  0.1399385E+00
          2   -1    0    0  501    0  0.00000000000E+00  0.00000000000E+00  0.15918478964E+03  0.15918478964E+03  0.00000000000E+00 0. -1.
         -2   -1    0    0    0  501 -0.00000000000E+00 -0.00000000000E+00 -0.18886695954E+02  0.18886695954E+02  0.00000000000E+00 0.  1.
         23    2    1    2    0    0  0.65799752381E+00  0.17062784415E+02  0.12912593301E+03  0.15766587982E+03  0.88845098412E+02 0.  0.
         13    1    3    3    0    0  0.11340553094E+02 -0.30255210050E+02  0.19379922470E+02  0.37677145255E+02  0.00000000000E+00 0.  1.
        -13    1    3    3    0    0 -0.10682555570E+02  0.47317994465E+02  0.10974601054E+03  0.11998873456E+03  0.00000000000E+00 0. -1.
         22    1    1    2    0    0 -0.65799752381E+00 -0.17062784415E+02  0.11172160680E+02  0.20405605774E+02  0.00000000000E+00 0. -1.
<mgrwt>
<rscale>  0 0.59631483E+02</rscale>
<asrwt>0</asrwt>
<pdfrwt beam="1">  1        2 0.24489967E-01 0.90471117E+02</pdfrwt>
<pdfrwt beam="2">  1       -2 0.29056456E-02 0.90471117E+02</pdfrwt>
<totfact> 0.83616107E+04</totfact>
</mgrwt>
</event>
<event>
 6    1  0.1535419E-002  0.9259227E+02  0.7546771E-02  0.1405883E+00
         -2   -1    0    0    0  501 -0.00000000000E+00  0.00000000000E+00  0.15933963343E+02  0.15933963343E+02  0.00000000000E+00 0. -1.
          2   -1    0    0  501    0  0.00000000000E+00 -0.00000000000E+00 -0.19704282527E+03  0.19704282527E+03  0.00000000000E+00 0.  1.
         23    2    1    2    0    0 -0.73415845235E+01  0.12360988392E+02 -0.17361874161E+03  0.19676584170E+03  0.91469317941E+02 0.  0.
         13    1    3    3    0    0 -0.41037630271E+02  0.31611906037E+02 -0.78678006906E+02  0.94199938812E+02  0.00000000000E+00 0.  1.
        -13    1    3    3    0    0  0.33696045747E+02 -0.19250917645E+02 -0.94940734704E+02  0.10256590289E+03  0.00000000000E+00 0. -1.
         22    1    1    2    0    0  0.73415845235E+01 -0.12360988392E+02 -0.74901203127E+01  0.16210946908E+02  0.00000000000E+00 0. -1.
<mgrwt>
<rscale>  0 0.58122830E+02</rscale>
<asrwt>0</asrwt>
<pdfrwt beam="1">  1        2 0.30314280E-01 0.92592273E+02</pdfrwt>
<pdfrwt beam="2">  1       -2 0.24513790E-02 0.92592273E+02</pdfrwt>
<totfact> 0.85247531E+04</totfact>
</mgrwt>
</event>
<event>
 6    1  0.1535419E-002  0.9227123E+02  0.7546771E-02  0.1382827E+00
          2   -1    0    0  501    0  0.00000000000E+00  0.00000000000E+00  0.26312837878E+04  0.26312837878E+04  0.00000000000E+00 0. -1.
         -2   -1    0    0    0  501 -0.00000000000E+00 -0.00000000000E+00 -0.57315391796E+01  0.57315391796E+01  0.00000000000E+00 0.  1.
         23    2    1    2    0    0  0.20991824755E+02  0.24014401560E+00  0.26080541735E+04  0.26096859104E+04  0.89851349393E+02 0.  0.
         13    1    3    3    0    0  0.39459048083E+02 -0.27688165034E+02  0.20872741175E+04  0.20878306666E+04  0.00000000000E+00 0. -1.
        -13    1    3    3    0    0 -0.18467223328E+02  0.27928309049E+02  0.52078005598E+03  0.52185524381E+03  0.00000000000E+00 0.  1.
         22    1    1    2    0    0 -0.20991824755E+02 -0.24014401560E+00  0.17498075198E+02  0.27329416593E+02  0.00000000000E+00 0.  1.
<mgrwt>
<rscale>  0 0.63726398E+02</rscale>
<asrwt>0</asrwt>
<pdfrwt beam="1">  1        2 0.40481193E+00 0.92271227E+02</pdfrwt>
<pdfrwt beam="2">  1       -2 0.88177736E-03 0.92271227E+02</pdfrwt>
<totfact> 0.85681005E+03</totfact>
</mgrwt>
</event>
<event>
 6    1  0.1535419E-002  0.1002713E+03  0.7546771E-02  0.1375900E+00
         -1   -1    0    0    0  501 -0.00000000000E+00  0.00000000000E+00  0.67770126557E+01  0.67770126557E+01  0.00000000000E+00 0.  1.
          1   -1    0    0  501    0  0.00000000000E+00 -0.00000000000E+00 -0.91766760700E+03  0.91766760700E+03  0.00000000000E+00 0. -1.
         23    2    1    2    0    0 -0.17410231681E+02  0.56927785968E+01 -0.89375347931E+03  0.89936066847E+03  0.98584006400E+02 0.  0.
         11    1    3    3    0    0  0.16561927602E+02  0.37912196881E+02 -0.63916875592E+03  0.64050630806E+03  0.00000000000E+00 0. -1.
        -11    1    3    3    0    0 -0.33972159283E+02 -0.32219418284E+02 -0.25458472339E+03  0.25885436041E+03  0.00000000000E+00 0.  1.
         22    1    1    2    0    0  0.17410231681E+02 -0.56927785968E+01 -0.17137115033E+02  0.25083951184E+02  0.00000000000E+00 0.  1.
<mgrwt>
<rscale>  0 0.65553798E+02</rscale>
<asrwt>0</asrwt>
<pdfrwt beam="1">  1        1 0.14117966E+00 0.10027128E+03</pdfrwt>
<pdfrwt beam="2">  1       -1 0.10426171E-02 0.10027128E+03</pdfrwt>
<totfact> 0.30111951E+04</totfact>
</mgrwt>
</event>
<event>
 6    1  0.1535419E-002  0.9208059E+02  0.7546771E-02  0.1402918E+00
         -4   -1    0    0    0  501 -0.00000000000E+00  0.00000000000E+00  0.71618101347E+02  0.71618101347E+02  0.00000000000E+00 0.  1.
          4   -1    0    0  501    0  0.00000000000E+00 -0.00000000000E+00 -0.47414150881E+02  0.47414150881E+02  0.00000000000E+00 0. -1.
         23    2    1    2    0    0  0.42399697618E+01  0.14717281681E+02  0.20548802150E+01  0.92103512252E+02  0.90797900377E+02 0.  0.
         11    1    3    3    0    0  0.31967986975E+01  0.42104923201E+02 -0.28586988438E+02  0.50992744461E+02  0.00000000000E+00 0. -1.
        -11    1    3    3    0    0  0.10431710643E+01 -0.27387641520E+02  0.30641868653E+02  0.41110767792E+02  0.00000000000E+00 0.  1.
         22    1    1    2    0    0 -0.42399697618E+01 -0.14717281681E+02  0.22149070251E+02  0.26928739975E+02  0.00000000000E+00 0.  1.
<mgrwt>
<rscale>  0 0.58804619E+02</rscale>
<asrwt>0</asrwt>
<pdfrwt beam="1">  1        4 0.72944848E-02 0.92080587E+02</pdfrwt>
<pdfrwt beam="2">  1       -4 0.11018169E-01 0.92080587E+02</pdfrwt>
<totfact> 0.12039768E+04</totfact>
</mgrwt>
</event>
<event>
 6    1  0.1535419E-002  0.9633916E+02  0.7546771E-02  0.1337550E+00
          2   -1    0    0  501    0  0.00000000000E+00  0.00000000000E+00  0.64489003512E+03  0.64489003512E+03  0.00000000000E+00 0. -1.
         -2   -1    0    0    0  501 -0.00000000000E+00 -0.00000000000E+00 -0.11488449721E+02  0.11488449721E+02  0.00000000000E+00 0.  1.
         23    2    1    2    0    0  0.28514922747E+02  0.27301033296E+02  0.58957224732E+03  0.59739155311E+03  0.87879381441E+02 0.  0.
         13    1    3    3    0    0 -0.18340421989E+02 -0.95176859331E+00  0.39066079559E+03  0.39109223229E+03  0.00000000000E+00 0. -1.
        -13    1    3    3    0    0  0.46855344736E+02  0.28252801890E+02  0.19891145173E+03  0.20629932082E+03  0.00000000000E+00 0.  1.
         22    1    1    2    0    0 -0.28514922747E+02 -0.27301033296E+02  0.43829338082E+02  0.58986931731E+02  0.00000000000E+00 0.  1.
<mgrwt>
<rscale>  0 0.77079456E+02</rscale>
<asrwt>0</asrwt>
<pdfrwt beam="1">  1        2 0.99213824E-01 0.96339156E+02</pdfrwt>
<pdfrwt beam="2">  1       -2 0.17674543E-02 0.96339156E+02</pdfrwt>
<totfact> 0.38707292E+04</totfact>
</mgrwt>
</event>
<event>
 6    1  0.1535419E-002  0.9308867E+02  0.7546771E-02  0.1386018E+00
          1   -1    0    0  501    0  0.00000000000E+00  0.00000000000E+00  0.20083865069E+03  0.20083865069E+03  0.00000000000E+00 0. -1.
         -1   -1    0    0    0  501 -0.00000000000E+00 -0.00000000000E+00 -0.21423572726E+02  0.21423572726E+02  0.00000000000E+00 0.  1.
         23    2    1    2    0    0  0.18459372575E+02  0.60156019650E+01  0.85611922391E+02  0.12647095086E+03  0.91041552340E+02 0.  0.
         11    1    3    3    0    0  0.12070990018E+02  0.31364975140E+02  0.93343795716E+02  0.99209549259E+02  0.00000000000E+00 0. -1.
        -11    1    3    3    0    0  0.63883825569E+01 -0.25349373175E+02 -0.77318733244E+01  0.27261401599E+02  0.00000000000E+00 0.  1.
         22    1    1    2    0    0 -0.18459372575E+02 -0.60156019650E+01  0.93803155570E+02  0.95791272555E+02  0.00000000000E+00 0. -1.
<mgrwt>
<rscale>  0 0.62908025E+02</rscale>
<asrwt>0</asrwt>
<pdfrwt beam="1">  1        1 0.30898253E-01 0.93088668E+02</pdfrwt>
<pdfrwt beam="2">  1       -1 0.32959344E-02 0.93088668E+02</pdfrwt>
<totfact> 0.41924601E+04</totfact>
</mgrwt>
</event>
<event>
 6    1  0.1535419E-002  0.9497739E+02  0.7546771E-02  0.1393820E+00
         -2   -1    0    0    0  501 -0.00000000000E+00  0.00000000000E+00  0.11116684391E+03  0.11116684391E+03  0.00000000000E+00 0.  1.
          2   -1    0    0  501    0  0.00000000000E+00 -0.00000000000E+00 -0.34282184888E+02  0.34282184888E+02  0.00000000000E+00 0. -1.
         23    2    1    2    0    0  0.39673529225E+01 -0.15629392558E+02  0.36124884977E+02  0.10161551444E+03  0.93598545175E+02 0.  0.
         13    1    3    3    0    0 -0.37255748230E+02  0.76767981352E+01  0.38603360651E+02  0.54195419173E+02  0.00000000000E+00 0.  1.
        -13    1    3    3    0    0  0.41223101152E+02 -0.23306190693E+02 -0.24784756741E+01  0.47420095264E+02  0.00000000000E+00 0. -1.
         22    1    1    2    0    0 -0.39673529225E+01  0.15629392558E+02  0.40759774044E+02  0.43833514359E+02  0.00000000000E+00 0.  1.
<mgrwt>
<rscale>  0 0.60966403E+02</rscale>
<asrwt>0</asrwt>
<pdfrwt beam="1">  1        2 0.52741823E-02 0.94977394E+02</pdfrwt>
<pdfrwt beam="2">  1       -2 0.17102591E-01 0.94977394E+02</pdfrwt>
<totfact> 0.35117791E+04</totfact>
</mgrwt>
</event>
<event>
 6    1  0.1535419E-002  0.9182965E+02  0.7546771E-02  0.1398702E+00
          2   -1    0    0  501    0  0.00000000000E+00  0.00000000000E+00  0.16032869656E+04  0.16032869656E+04  0.00000000000E+00 0. -1.
         -2   -1    0    0    0  501 -0.00000000000E+00 -0.00000000000E+00 -0.22395009045E+01  0.22395009045E+01  0.00000000000E+00 0.  1.
         23    2    1    2    0    0 -0.62737914223E+01 -0.15267921002E+02  0.15223191597E+04  0.15250863280E+04  0.90333903254E+02 0.  0.
         13    1    3    3    0    0 -0.37558721414E+02 -0.22710822783E+02  0.41780089328E+03  0.42010001839E+03  0.00000000000E+00 0.  1.
        -13    1    3    3    0    0  0.31284929992E+02  0.74429017813E+01  0.11045182664E+04  0.11049863096E+04  0.00000000000E+00 0. -1.
         22    1    1    2    0    0  0.62737914223E+01  0.15267921002E+02  0.78728304954E+02  0.80440138435E+02  0.00000000000E+00 0. -1.
<mgrwt>
<rscale>  0 0.59793227E+02</rscale>
<asrwt>0</asrwt>
<pdfrwt beam="1">  1        2 0.24665862E+00 0.91829646E+02</pdfrwt>
<pdfrwt beam="2">  1       -2 0.34453988E-03 0.91829646E+02</pdfrwt>
<totfact> 0.10731257E+05</totfact>
</mgrwt>
</event>
<event>
 6    1  0.1535419E-002  0.9814779E+02  0.7546771E-02  0.1405523E+00
         -2   -1    0    0    0  501 -0.00000000000E+00  0.00000000000E+00  0.18921798698E+02  0.18921798698E+02  0.00000000000E+00 0.  1.
          2   -1    0    0  501    0  0.00000000000E+00 -0.00000000000E+00 -0.18008634762E+03  0.18008634762E+03  0.00000000000E+00 0. -1.
         23    2    1    2    0    0 -0.46933878103E+01 -0.11195497954E+02 -0.15873580125E+03  0.18662808659E+03  0.97394153023E+02 0.  0.
         13    1    3    3    0    0 -0.25633202695E+02 -0.43503793424E+02 -0.12721638031E+03  0.13687091927E+03  0.00000000000E+00 0. -1.
        -13    1    3    3    0    0  0.20939814885E+02  0.32308295469E+02 -0.31519420942E+02  0.49757167324E+02  0.00000000000E+00 0.  1.
         22    1    1    2    0    0  0.46933878103E+01  0.11195497954E+02 -0.24287476744E+01  0.12380059727E+02  0.00000000000E+00 0.  1.
<mgrwt>
<rscale>  0 0.58205019E+02</rscale>
<asrwt>0</asrwt>
<pdfrwt beam="1">  1        2 0.27705591E-01 0.98147787E+02</pdfrwt>
<pdfrwt beam="2">  1       -2 0.29110461E-02 0.98147787E+02</pdfrwt>
<totfact> 0.73797414E+04</totfact>
</mgrwt>
</event>
<event>
 6    1  0.1535419E-002  0.9620788E+02  0.7546771E-02  0.1338785E+00
         -2   -1    0    0    0  501 -0.00000000000E+00  0.00000000000E+00  0.20100338161E+02  0.20100338161E+02  0.00000000000E+00 0.  1.
          2   -1    0    0  501    0  0.00000000000E+00 -0.00000000000E+00 -0.26424609119E+03  0.26424609119E+03  0.00000000000E+00 0. -1.
         23    2    1    2    0    0 -0.16035974203E+02  0.35328147604E+02 -0.21587088939E+03  0.23633915495E+03  0.88038200759E+02 0.  0.
         13    1    3    3    0    0 -0.17128056702E+02  0.63692988527E+02 -0.17059063683E+03  0.18289705435E+03  0.00000000000E+00 0. -1.
        -13    1    3    3    0    0  0.10920824990E+01 -0.28364840924E+02 -0.45280252560E+02  0.53442100602E+02  0.00000000000E+00 0.  1.
         22    1    1    2    0    0  0.16035974203E+02 -0.35328147604E+02 -0.28274863634E+02  0.48007274400E+02  0.00000000000E+00 0.  1.
<mgrwt>
<rscale>  0 0.76666978E+02</rscale>
<asrwt>0</asrwt>
<pdfrwt beam="1">  1        2 0.40653244E-01 0.96207875E+02</pdfrwt>
<pdfrwt beam="2">  1       -2 0.30923598E-02 0.96207875E+02</pdfrwt>
<totfact> 0.44832352E+04</totfact>
</mgrwt>
</event>
<event>
 6    1  0.1535419E-002  0.9178516E+02  0.7546771E-02  0.1424238E+00
          2   -1    0    0  501    0  0.00000000000E+00  0.00000000000E+00  0.27259615218E+03  0.27259615218E+03  0.00000000000E+00 0. -1.
         -2   -1    0    0    0  501 -0.00000000000E+00 -0.00000000000E+00 -0.13916035231E+02  0.13916035231E+02  0.00000000000E+00 0.  1.
         23    2    1    2    0    0 -0.94869580389E+01 -0.57747338458E+01  0.25961907764E+03  0.27536626570E+03  0.91110728697E+02 0.  0.
         13    1    3    3    0    0  0.21116825944E+01  0.31198698811E+02  0.21046267590E+03  0.21277301511E+03  0.00000000000E+00 0. -1.
        -13    1    3    3    0    0 -0.11598640633E+02 -0.36973432657E+02  0.49156401741E+02  0.62593250587E+02  0.00000000000E+00 0.  1.
         22    1    1    2    0    0  0.94869580389E+01  0.57747338458E+01 -0.93896068844E+00  0.11145921720E+02  0.00000000000E+00 0.  1.
<mgrwt>
<rscale>  0 0.54134197E+02</rscale>
<asrwt>0</asrwt>
<pdfrwt beam="1">  1        2 0.41937866E-01 0.91785156E+02</pdfrwt>
<pdfrwt beam="2">  1       -2 0.21409287E-02 0.91785156E+02</pdfrwt>
<totfact> 0.73449196E+04</totfact>
</mgrwt>
</event>
<event>
 6    1  0.1535419E-002  0.9411128E+02  0.7546771E-02  0.1404732E+00
          2   -1    0    0  501    0  0.00000000000E+00  0.00000000000E+00  0.76521808075E+03  0.76521808075E+03  0.00000000000E+00 0. -1.
         -2   -1    0    0    0  501 -0.00000000000E+00 -0.00000000000E+00 -0.44750961048E+01  0.44750961048E+01  0.00000000000E+00 0.  1.
         23    2    1    2    0    0 -0.45651188443E+00 -0.13934156131E+02  0.72865366003E+03  0.73470612404E+03  0.93072892518E+02 0.  0.
         11    1    3    3    0    0 -0.24486172013E+02 -0.14051667036E+02  0.67855992536E+03  0.67914696073E+03  0.00000000000E+00 0. -1.
        -11    1    3    3    0    0  0.24029660129E+02  0.11751090470E+00  0.50093734668E+02  0.55559163310E+02  0.00000000000E+00 0.  1.
         22    1    1    2    0    0  0.45651188443E+00  0.13934156131E+02  0.32089324619E+02  0.34987052815E+02  0.00000000000E+00 0. -1.
<mgrwt>
<rscale>  0 0.58386125E+02</rscale>
<asrwt>0</asrwt>
<pdfrwt beam="1">  1        2 0.11772575E+00 0.94111277E+02</pdfrwt>
<pdfrwt beam="2">  1       -2 0.68847693E-03 0.94111277E+02</pdfrwt>
<totfact> 0.12051680E+05</totfact>
</mgrwt>
</event>
<event>
 6    1  0.1535419E-002  0.9504824E+02  0.7546771E-02  0.1359340E+00
         -2   -1    0    0    0  501 -0.00000000000E+00  0.00000000000E+00  0.99713898680E+02  0.99713898680E+02  0.00000000000E+00 0.  1.
          2   -1    0    0  501    0  0.00000000000E+00 -0.00000000000E+00 -0.38280084329E+02  0.38280084329E+02  0.00000000000E+00 0. -1.
         23    2    1    2    0    0 -0.14975478329E+02 -0.24033941553E+02  0.50570361570E+02  0.10766396646E+03  0.90731873704E+02 0.  0.
         11    1    3    3    0    0  0.14280257724E+02 -0.11020877708E+02  0.68590039776E+02  0.70922345298E+02  0.00000000000E+00 0.  1.
        -11    1    3    3    0    0 -0.29255736053E+02 -0.13013063846E+02 -0.18019678206E+02  0.36741621158E+02  0.00000000000E+00 0. -1.
         22    1    1    2    0    0  0.14975478329E+02  0.24033941553E+02  0.10863452781E+02  0.30330016553E+02  0.00000000000E+00 0.  1.
<mgrwt>
<rscale>  0 0.70221932E+02</rscale>
<asrwt>0</asrwt>
<pdfrwt beam="1">  1        2 0.58892438E-02 0.95048241E+02</pdfrwt>
<pdfrwt beam="2">  1       -2 0.15340600E-01 0.95048241E+02</pdfrwt>
<totfact> 0.36420551E+04</totfact>
</mgrwt>
</event>
<event>
 6    1  0.1535419E-002  0.1001477E+03  0.7546771E-02  0.1404901E+00
          2   -1    0    0  501    0  0.00000000000E+00  0.00000000000E+00  0.36940707001E+03  0.36940707001E+03  0.00000000000E+00 0. -1.
         -2   -1    0    0    0  501 -0.00000000000E+00 -0.00000000000E+00 -0.96695560722E+01  0.96695560722E+01  0.00000000000E+00 0.  1.
         23    2    1    2    0    0  0.11374381732E+02  0.19409230344E+01  0.34978254697E+03  0.36383703589E+03  0.99480725641E+02 0.  0.
         13    1    3    3    0    0  0.27168422206E+02 -0.10692894761E+02  0.25035725650E+02  0.38461002618E+02  0.00000000000E+00 0.  1.
        -13    1    3    3    0    0 -0.15794040474E+02  0.12633817795E+02  0.32474682132E+03  0.32537603327E+03  0.00000000000E+00 0. -1.
         22    1    1    2    0    0 -0.11374381732E+02 -0.19409230344E+01  0.99549669619E+01  0.15239590192E+02  0.00000000000E+00 0.  1.
<mgrwt>
<rscale>  0 0.58347302E+02</rscale>
<asrwt>0</asrwt>
<pdfrwt beam="1">  1        2 0.56831846E-01 0.10014768E+03</pdfrwt>
<pdfrwt beam="2">  1       -2 0.14876243E-02 0.10014768E+03</pdfrwt>
<totfact> 0.91158731E+04</totfact>
</mgrwt>
</event>
<event>
 6    1  0.1535419E-002  0.9315823E+02  0.7546771E-02  0.1395033E+00
          2   -1    0    0  501    0  0.00000000000E+00  0.00000000000E+00  0.15958544151E+04  0.15958544151E+04  0.00000000000E+00 0. -1.
         -2   -1    0    0    0  501 -0.00000000000E+00 -0.00000000000E+00 -0.25647184413E+01  0.25647184413E+01  0.00000000000E+00 0.  1.
         23    2    1    2    0    0 -0.12560824334E+02  0.11097011633E+02  0.15334325984E+04  0.15362597401E+04  0.91638078276E+02 0.  0.
         11    1    3    3    0    0  0.71413215475E+01  0.36203774385E+02  0.13140419664E+04  0.13145600029E+04  0.00000000000E+00 0. -1.
        -11    1    3    3    0    0 -0.19702145882E+02 -0.25106762753E+02  0.21939063194E+03  0.22169973720E+03  0.00000000000E+00 0.  1.
         22    1    1    2    0    0  0.12560824334E+02 -0.11097011633E+02  0.59857098285E+02  0.62159393419E+02  0.00000000000E+00 0.  1.
<mgrwt>
<rscale>  0 0.60672006E+02</rscale>
<asrwt>0</asrwt>
<pdfrwt beam="1">  1        2 0.24551527E+00 0.93158228E+02</pdfrwt>
<pdfrwt beam="2">  1       -2 0.39457334E-03 0.93158228E+02</pdfrwt>
<totfact> 0.89716701E+04</totfact>
</mgrwt>
</event>
<event>
 6    1  0.1535419E-002  0.9510137E+02  0.7546771E-02  0.1407236E+00
          2   -1    0    0  501    0  0.00000000000E+00  0.00000000000E+00  0.34457920672E+03  0.34457920672E+03  0.00000000000E+00 0. -1.
         -2   -1    0    0    0  501 -0.00000000000E+00 -0.00000000000E+00 -0.95164137806E+01  0.95164137806E+01  0.00000000000E+00 0.  1.
         23    2    1    2    0    0 -0.70428037580E+00  0.12970785238E+02  0.32168753407E+03  0.33545065253E+03  0.94210049523E+02 0.  0.
         13    1    3    3    0    0 -0.19567205505E+00 -0.11510518864E+02  0.30633066877E+03  0.30654691152E+03  0.00000000000E+00 0. -1.
        -13    1    3    3    0    0 -0.50860832074E+00  0.24481304102E+02  0.15356865295E+02  0.28903741015E+02  0.00000000000E+00 0.  1.
         22    1    1    2    0    0  0.70428037580E+00 -0.12970785238E+02  0.13375258871E+02  0.18644967964E+02  0.00000000000E+00 0.  1.
<mgrwt>
<rscale>  0 0.57815124E+02</rscale>
<asrwt>0</asrwt>
<pdfrwt beam="1">  1        2 0.53012176E-01 0.95101371E+02</pdfrwt>
<pdfrwt beam="2">  1       -2 0.14640639E-02 0.95101371E+02</pdfrwt>
<totfact> 0.99595426E+04</totfact>
</mgrwt>
</event>
<event>
 6    1  0.1535419E-002  0.9433909E+02  0.7546771E-02  0.1410481E+00
          2   -1    0    0  501    0  0.00000000000E+00  0.00000000000E+00  0.32665407862E+04  0.32665407862E+04  0.00000000000E+00 0. -1.
         -2   -1    0    0    0  501 -0.00000000000E+00 -0.00000000000E+00 -0.18321612170E+01  0.18321612170E+01  0.00000000000E+00 0.  1.
         23    2    1    2    0    0  0.94027341045E+01  0.84610163474E+01  0.32308765221E+04  0.32322535428E+04  0.93487237040E+02 0.  0.
         11    1    3    3    0    0 -0.24422805701E+02  0.30222495180E+02  0.24770639755E+04  0.24773687274E+04  0.00000000000E+00 0. -1.
        -11    1    3    3    0    0  0.33825539805E+02 -0.21761478832E+02  0.75381254667E+03  0.75488481546E+03  0.00000000000E+00 0.  1.
         22    1    1    2    0    0 -0.94027341045E+01 -0.84610163474E+01  0.33832102827E+02  0.36119404590E+02  0.00000000000E+00 0.  1.
<mgrwt>
<rscale>  0 0.57086554E+02</rscale>
<asrwt>0</asrwt>
<pdfrwt beam="1">  1        2 0.50254007E+00 0.94339089E+02</pdfrwt>
<pdfrwt beam="2">  1       -2 0.28187357E-03 0.94339089E+02</pdfrwt>
<totfact> 0.18547182E+04</totfact>
</mgrwt>
</event>
<event>
 6    1  0.1535419E-002  0.9299077E+02  0.7546771E-02  0.1423464E+00
          2   -1    0    0  501    0  0.00000000000E+00  0.00000000000E+00  0.28065035521E+03  0.28065035521E+03  0.00000000000E+00 0. -1.
         -2   -1    0    0    0  501 -0.00000000000E+00 -0.00000000000E+00 -0.11052857980E+02  0.11052857980E+02  0.00000000000E+00 0.  1.
         23    2    1    2    0    0  0.42081755794E+01  0.99540748957E+01  0.26320061827E+03  0.27914485306E+03  0.92360658197E+02 0.  0.
         13    1    3    3    0    0 -0.20910661105E+02 -0.10762188545E+02  0.23469474389E+03  0.23587009828E+03  0.00000000000E+00 0. -1.
        -13    1    3    3    0    0  0.25118836684E+02  0.20716263441E+02  0.28505874374E+02  0.43274754779E+02  0.00000000000E+00 0.  1.
         22    1    1    2    0    0 -0.42081755794E+01 -0.99540748957E+01  0.63968789592E+01  0.12558360130E+02  0.00000000000E+00 0.  1.
<mgrwt>
<rscale>  0 0.54294606E+02</rscale>
<asrwt>0</asrwt>
<pdfrwt beam="1">  1        2 0.43176972E-01 0.92990771E+02</pdfrwt>
<pdfrwt beam="2">  1       -2 0.17004399E-02 0.92990771E+02</pdfrwt>
<totfact> 0.99346964E+04</totfact>
</mgrwt>
</event>
<event>
 6    1  0.1535419E-002  0.9278373E+02  0.7546771E-02  0.1383892E+00
         -1   -1    0    0    0  501 -0.00000000000E+00  0.00000000000E+00  0.68582899477E+02  0.68582899477E+02  0.00000000000E+00 0.  1.
          1   -1    0    0  501    0  0.00000000000E+00 -0.00000000000E+00 -0.46611123632E+02  0.46611123632E+02  0.00000000000E+00 0. -1.
         23    2    1    2    0    0  0.71626869265E+01 -0.18987561953E+02  0.18280110355E+02  0.94567341674E+02  0.90537219328E+02 0.  0.
         11    1    3    3    0    0 -0.19046906570E+02 -0.46127775857E+02  0.25670375770E+02  0.56120624975E+02  0.00000000000E+00 0. -1.
        -11    1    3    3    0    0  0.26209593496E+02  0.27140213904E+02 -0.73902654154E+01  0.38446716699E+02  0.00000000000E+00 0.  1.
         22    1    1    2    0    0 -0.71626869265E+01  0.18987561953E+02  0.36916654907E+01  0.20626681435E+02  0.00000000000E+00 0. -1.
<mgrwt>
<rscale>  0 0.63451780E+02</rscale>
<asrwt>0</asrwt>
<pdfrwt beam="1">  1        1 0.71709421E-02 0.92783725E+02</pdfrwt>
<pdfrwt beam="2">  1       -1 0.10551215E-01 0.92783725E+02</pdfrwt>
<totfact> 0.48809183E+04</totfact>
</mgrwt>
</event>
<event>
 6    1  0.1535419E-002  0.9294827E+02  0.7546771E-02  0.1412021E+00
         -2   -1    0    0    0  501 -0.00000000000E+00  0.00000000000E+00  0.52309163516E+01  0.52309163516E+01  0.00000000000E+00 0.  1.
          2   -1    0    0  501    0  0.00000000000E+00 -0.00000000000E+00 -0.27878453274E+04  0.27878453274E+04  0.00000000000E+00 0. -1.
         23    2    1    2    0    0  0.12519402841E+02  0.31600915518E+01 -0.27777091072E+04  0.27792637989E+04  0.92047044257E+02 0.  0.
         11    1    3    3    0    0  0.51362837100E+02 -0.57694382634E+01 -0.13241209396E+04  0.13251293107E+04  0.00000000000E+00 0. -1.
        -11    1    3    3    0    0 -0.38843434259E+02  0.89295298152E+01 -0.14535881676E+04  0.14541344882E+04  0.00000000000E+00 0.  1.
         22    1    1    2    0    0 -0.12519402841E+02 -0.31600915518E+01 -0.49053038943E+01  0.13812444839E+02  0.00000000000E+00 0.  1.
<mgrwt>
<rscale>  0 0.56745308E+02</rscale>
<asrwt>0</asrwt>
<pdfrwt beam="1">  1        2 0.42889993E+00 0.92948265E+02</pdfrwt>
<pdfrwt beam="2">  1       -2 0.80475514E-03 0.92948265E+02</pdfrwt>
<totfact> 0.80211148E+03</totfact>
</mgrwt>
</event>
<event>
 6    1  0.1535419E-002  0.9482544E+02  0.7546771E-02  0.1364646E+00
         -1   -1    0    0    0  501 -0.00000000000E+00  0.00000000000E+00  0.37247153416E+03  0.37247153416E+03  0.00000000000E+00 0.  1.
          1   -1    0    0  501    0  0.00000000000E+00 -0.00000000000E+00 -0.10405036600E+02  0.10405036600E+02  0.00000000000E+00 0. -1.
         23    2    1    2    0    0  0.15536126482E+02  0.20962325660E+02  0.31614805562E+03  0.33006280709E+03  0.91165087756E+02 0.  0.
         13    1    3    3    0    0 -0.10717230149E+02  0.52618807162E+02  0.17909585011E+03  0.18697304998E+03  0.00000000000E+00 0. -1.
        -13    1    3    3    0    0  0.26253356632E+02 -0.31656481503E+02  0.13705220551E+03  0.14308975711E+03  0.00000000000E+00 0.  1.
         22    1    1    2    0    0 -0.15536126482E+02 -0.20962325660E+02  0.45918441936E+02  0.52813763670E+02  0.00000000000E+00 0.  1.
<mgrwt>
<rscale>  0 0.68678423E+02</rscale>
<asrwt>0</asrwt>
<pdfrwt beam="1">  1        1 0.16007751E-02 0.94825437E+02</pdfrwt>
<pdfrwt beam="2">  1       -1 0.57303303E-01 0.94825437E+02</pdfrwt>
<totfact> 0.23404453E+04</totfact>
</mgrwt>
</event>
<event>
 6    1  0.1535419E-002  0.9078154E+02  0.7546771E-02  0.1414403E+00
         -2   -1    0    0    0  501 -0.00000000000E+00  0.00000000000E+00  0.59556428456E+01  0.59556428456E+01  0.00000000000E+00 0.  1.
          2   -1    0    0  501    0  0.00000000000E+00 -0.00000000000E+00 -0.45615493253E+03  0.45615493253E+03  0.00000000000E+00 0. -1.
         23    2    1    2    0    0 -0.11438465296E+02 -0.68942725039E+01 -0.38511679936E+03  0.39567188161E+03  0.89793759640E+02 0.  0.
         11    1    3    3    0    0  0.94569573061E+01 -0.45483152315E+01 -0.52634206414E+00  0.10507057100E+02  0.00000000000E+00 0.  1.
        -11    1    3    3    0    0 -0.20895422602E+02 -0.23459572724E+01 -0.38459045729E+03  0.38516482451E+03  0.00000000000E+00 0. -1.
         22    1    1    2    0    0  0.11438465296E+02  0.68942725039E+01 -0.65082490325E+02  0.66438693761E+02  0.00000000000E+00 0.  1.
<mgrwt>
<rscale>  0 0.56222900E+02</rscale>
<asrwt>0</asrwt>
<pdfrwt beam="1">  1        2 0.70177684E-01 0.90781544E+02</pdfrwt>
<pdfrwt beam="2">  1       -2 0.91625272E-03 0.90781544E+02</pdfrwt>
<totfact> 0.14314465E+05</totfact>
</mgrwt>
</event>
<event>
 6    1  0.1535419E-002  0.9539754E+02  0.7546771E-02  0.1354102E+00
          1   -1    0    0  501    0  0.00000000000E+00  0.00000000000E+00  0.25421049011E+02  0.25421049011E+02  0.00000000000E+00 0. -1.
         -1   -1    0    0    0  501 -0.00000000000E+00 -0.00000000000E+00 -0.15692941863E+03  0.15692941863E+03  0.00000000000E+00 0.  1.
         23    2    1    2    0    0 -0.17955685573E+02  0.24776519472E+02 -0.10501345252E+03  0.14187500355E+03  0.90357118478E+02 0.  0.
         11    1    3    3    0    0  0.35897025844E+02  0.44882056290E+01 -0.28058198327E+02  0.45782124760E+02  0.00000000000E+00 0. -1.
        -11    1    3    3    0    0 -0.53852711417E+02  0.20288313843E+02 -0.76955254195E+02  0.96092878788E+02  0.00000000000E+00 0.  1.
         22    1    1    2    0    0  0.17955685573E+02 -0.24776519472E+02 -0.26494917098E+02  0.40475464094E+02  0.00000000000E+00 0.  1.
<mgrwt>
<rscale>  0 0.71792448E+02</rscale>
<asrwt>0</asrwt>
<pdfrwt beam="1">  1        1 0.39109306E-02 0.95397544E+02</pdfrwt>
<pdfrwt beam="2">  1       -1 0.24142988E-01 0.95397544E+02</pdfrwt>
<totfact> 0.30452648E+04</totfact>
</mgrwt>
</event>
<event>
 6    1  0.1535419E-002  0.9489494E+02  0.7546771E-02  0.1351963E+00
          3   -1    0    0  501    0  0.00000000000E+00  0.00000000000E+00  0.28785073508E+03  0.28785073508E+03  0.00000000000E+00 0. -1.
         -3   -1    0    0    0  501 -0.00000000000E+00 -0.00000000000E+00 -0.14834772941E+02  0.14834772941E+02  0.00000000000E+00 0.  1.
         23    2    1    2    0    0  0.59712975682E+01  0.31679903488E+02  0.23096156374E+03  0.24969640439E+03  0.89251205912E+02 0.  0.
         11    1    3    3    0    0  0.39840172967E+02  0.37269997672E+02  0.18126558175E+03  0.18929739364E+03  0.00000000000E+00 0. -1.
        -11    1    3    3    0    0 -0.33868875398E+02 -0.55900941835E+01  0.49695981988E+02  0.60399010749E+02  0.00000000000E+00 0.  1.
         22    1    1    2    0    0 -0.59712975682E+01 -0.31679903488E+02  0.42054398397E+02  0.52989103636E+02  0.00000000000E+00 0.  1.
<mgrwt>
<rscale>  0 0.72447515E+02</rscale>
<asrwt>0</asrwt>
<pdfrwt beam="1">  1        3 0.44284724E-01 0.94894944E+02</pdfrwt>
<pdfrwt beam="2">  1       -3 0.22822730E-02 0.94894944E+02</pdfrwt>
<totfact> 0.83050646E+03</totfact>
</mgrwt>
</event>
<event>
 6    1  0.1535419E-002  0.1141862E+03  0.7546771E-02  0.1375347E+00
         -2   -1    0    0    0  501 -0.00000000000E+00  0.00000000000E+00  0.62721514392E+01  0.62721514392E+01  0.00000000000E+00 0.  1.
          2   -1    0    0  501    0  0.00000000000E+00 -0.00000000000E+00 -0.64032412444E+03  0.64032412444E+03  0.00000000000E+00 0. -1.
         23    2    1    2    0    0 -0.72273859973E+01  0.10219521004E+02 -0.57632433281E+03  0.58752721325E+03  0.11349808810E+03 0.  0.
         13    1    3    3    0    0  0.31227672254E+02 -0.23173840215E+02 -0.44463662359E+03  0.44633386766E+03  0.00000000000E+00 0. -1.
        -13    1    3    3    0    0 -0.38455058251E+02  0.33393361219E+02 -0.13168770921E+03  0.14119334558E+03  0.00000000000E+00 0.  1.
         22    1    1    2    0    0  0.72273859973E+01 -0.10219521004E+02 -0.57727640194E+02  0.59069062633E+02  0.00000000000E+00 0. -1.
<mgrwt>
<rscale>  0 0.65702932E+02</rscale>
<asrwt>0</asrwt>
<pdfrwt beam="1">  1        2 0.98511461E-01 0.11418621E+03</pdfrwt>
<pdfrwt beam="2">  1       -2 0.96494582E-03 0.11418621E+03</pdfrwt>
<totfact> 0.94541633E+04</totfact>
</mgrwt>
</event>
<event>
 6    1  0.1535419E-002  0.8583249E+02  0.7546771E-02  0.1440970E+00
         -4   -1    0    0    0  501 -0.00000000000E+00  0.00000000000E+00  0.19961633404E+03  0.19961633404E+03  0.00000000000E+00 0. -1.
          4   -1    0    0  501    0  0.00000000000E+00 -0.00000000000E+00 -0.13400787219E+02  0.13400787219E+02  0.00000000000E+00 0.  1.
         23    2    1    2    0    0 -0.96659495607E+01  0.42226326740E+01  0.12972321724E+03  0.15554848190E+03  0.85181899042E+02 0.  0.
         13    1    3    3    0    0  0.29143042914E+02  0.52064990915E+00  0.10595073855E+03  0.10988697387E+03  0.00000000000E+00 0. -1.
        -13    1    3    3    0    0 -0.38808992475E+02  0.37019827649E+01  0.23772478692E+02  0.45661508040E+02  0.00000000000E+00 0.  1.
         22    1    1    2    0    0  0.96659495607E+01 -0.42226326740E+01  0.56492329585E+02  0.57468639357E+02  0.00000000000E+00 0. -1.
<mgrwt>
<rscale>  0 0.50819662E+02</rscale>
<asrwt>0</asrwt>
<pdfrwt beam="1">  1        4 0.20616597E-02 0.85832495E+02</pdfrwt>
<pdfrwt beam="2">  1       -4 0.30710203E-01 0.85832495E+02</pdfrwt>
<totfact> 0.14015465E+04</totfact>
</mgrwt>
</event>
<event>
 6    1  0.1535419E-002  0.9298460E+02  0.7546771E-02  0.1390472E+00
          2   -1    0    0  501    0  0.00000000000E+00  0.00000000000E+00  0.70144033212E+03  0.70144033212E+03  0.00000000000E+00 0. -1.
         -2   -1    0    0    0  501 -0.00000000000E+00 -0.00000000000E+00 -0.44263992525E+01  0.44263992525E+01  0.00000000000E+00 0.  1.
         23    2    1    2    0    0  0.97702701916E+01  0.15273336973E+02  0.60191627992E+03  0.60905610903E+03  0.91199796678E+02 0.  0.
         11    1    3    3    0    0 -0.11848551270E+02  0.50069362136E+02  0.36806839068E+03  0.37164723786E+03  0.00000000000E+00 0. -1.
        -11    1    3    3    0    0  0.21618821462E+02 -0.34796025163E+02  0.23384788924E+03  0.23740887117E+03  0.00000000000E+00 0.  1.
         22    1    1    2    0    0 -0.97702701916E+01 -0.15273336973E+02  0.95097652951E+02  0.96810622345E+02  0.00000000000E+00 0.  1.
<mgrwt>
<rscale>  0 0.61789358E+02</rscale>
<asrwt>0</asrwt>
<pdfrwt beam="1">  1        2 0.10791381E+00 0.92984600E+02</pdfrwt>
<pdfrwt beam="2">  1       -2 0.68098506E-03 0.92984600E+02</pdfrwt>
<totfact> 0.13545789E+05</totfact>
</mgrwt>
</event>
<event>
 6    1  0.1535419E-002  0.9122286E+02  0.7546771E-02  0.1411890E+00
         -3   -1    0    0    0  501 -0.00000000000E+00  0.00000000000E+00  0.10465612888E+02  0.10465612888E+02  0.00000000000E+00 0.  1.
          3   -1    0    0  501    0  0.00000000000E+00 -0.00000000000E+00 -0.38313371537E+03  0.38313371537E+03  0.00000000000E+00 0. -1.
         23    2    1    2    0    0  0.13173599721E+02 -0.37121313010E+01 -0.36800083541E+03  0.37913879472E+03  0.90190283023E+02 0.  0.
         11    1    3    3    0    0 -0.16113587397E+02  0.11579537128E+02 -0.15727996143E+02  0.25320016619E+02  0.00000000000E+00 0.  1.
        -11    1    3    3    0    0  0.29287187118E+02 -0.15291668429E+02 -0.35227283926E+03  0.35381877810E+03  0.00000000000E+00 0. -1.
         22    1    1    2    0    0 -0.13173599721E+02  0.37121313010E+01 -0.46672670797E+01  0.14460533544E+02  0.00000000000E+00 0.  1.
<mgrwt>
<rscale>  0 0.56774308E+02</rscale>
<asrwt>0</asrwt>
<pdfrwt beam="1">  1        3 0.58943643E-01 0.91222863E+02</pdfrwt>
<pdfrwt beam="2">  1       -3 0.16100944E-02 0.91222863E+02</pdfrwt>
<totfact> 0.78955420E+03</totfact>
</mgrwt>
</event>
<event>
 6    1  0.1535419E-002  0.1056662E+03  0.7546771E-02  0.1308275E+00
          2   -1    0    0  501    0  0.00000000000E+00  0.00000000000E+00  0.52873311064E+03  0.52873311064E+03  0.00000000000E+00 0. -1.
         -2   -1    0    0    0  501 -0.00000000000E+00 -0.00000000000E+00 -0.11850057839E+02  0.11850057839E+02  0.00000000000E+00 0.  1.
         23    2    1    2    0    0  0.50321438878E+02 -0.20653435253E+01  0.39025147939E+03  0.40430379279E+03  0.92891478833E+02 0.  0.
         11    1    3    3    0    0 -0.56979978137E+01  0.32692435178E+02  0.20505608844E+03  0.20772400416E+03  0.00000000000E+00 0. -1.
        -11    1    3    3    0    0  0.56019436692E+02 -0.34757778704E+02  0.18519539095E+03  0.19657978862E+03  0.00000000000E+00 0.  1.
         22    1    1    2    0    0 -0.50321438878E+02  0.20653435253E+01  0.12663157341E+03  0.13627937569E+03  0.00000000000E+00 0.  1.
<mgrwt>
<rscale>  0 0.87797391E+02</rscale>
<asrwt>0</asrwt>
<pdfrwt beam="1">  1        2 0.81343537E-01 0.10566617E+03</pdfrwt>
<pdfrwt beam="2">  1       -2 0.18230862E-02 0.10566617E+03</pdfrwt>
<totfact> 0.46714614E+04</totfact>
</mgrwt>
</event>
<event>
 6    1  0.1535419E-002  0.8841947E+02  0.7546771E-02  0.1433639E+00
         -4   -1    0    0    0  501 -0.00000000000E+00  0.00000000000E+00  0.22591208154E+02  0.22591208154E+02  0.00000000000E+00 0.  1.
          4   -1    0    0  501    0  0.00000000000E+00 -0.00000000000E+00 -0.11846674994E+03  0.11846674994E+03  0.00000000000E+00 0. -1.
         23    2    1    2    0    0 -0.10383273978E+02 -0.28632039471E+01 -0.69165601246E+02  0.11225811019E+03  0.87760996995E+02 0.  0.
         13    1    3    3    0    0  0.25256033994E+02 -0.17896479578E+02 -0.66660610443E+02  0.73496858566E+02  0.00000000000E+00 0. -1.
        -13    1    3    3    0    0 -0.35639307972E+02  0.15033275631E+02 -0.25049908023E+01  0.38761251629E+02  0.00000000000E+00 0.  1.
         22    1    1    2    0    0  0.10383273978E+02  0.28632039471E+01 -0.26709940540E+02  0.28799847899E+02  0.00000000000E+00 0. -1.
<mgrwt>
<rscale>  0 0.52236373E+02</rscale>
<asrwt>0</asrwt>
<pdfrwt beam="1">  1        4 0.18225654E-01 0.88419471E+02</pdfrwt>
<pdfrwt beam="2">  1       -4 0.34755704E-02 0.88419471E+02</pdfrwt>
<totfact> 0.16306036E+04</totfact>
</mgrwt>
</event>
<event>
 6    1  0.1535419E-002  0.9569827E+02  0.7546771E-02  0.1355677E+00
          2   -1    0    0  501    0  0.00000000000E+00  0.00000000000E+00  0.34770325595E+03  0.34770325595E+03  0.00000000000E+00 0. -1.
         -2   -1    0    0    0  501 -0.00000000000E+00 -0.00000000000E+00 -0.13202308652E+02  0.13202308652E+02  0.00000000000E+00 0.  1.
         23    2    1    2    0    0 -0.28284825474E+01  0.29377126437E+02  0.30293739447E+03  0.31769360170E+03  0.91033750430E+02 0.  0.
         13    1    3    3    0    0  0.16487849545E+02  0.56169750233E+02  0.14561783996E+03  0.15694408347E+03  0.00000000000E+00 0. -1.
        -13    1    3    3    0    0 -0.19316332092E+02 -0.26792623796E+02  0.15731955452E+03  0.16074951822E+03  0.00000000000E+00 0.  1.
         22    1    1    2    0    0  0.28284825474E+01 -0.29377126437E+02  0.31563552826E+02  0.43211962906E+02  0.00000000000E+00 0. -1.
<mgrwt>
<rscale>  0 0.71315074E+02</rscale>
<asrwt>0</asrwt>
<pdfrwt beam="1">  1        2 0.53492802E-01 0.95698274E+02</pdfrwt>
<pdfrwt beam="2">  1       -2 0.20311247E-02 0.95698274E+02</pdfrwt>
<totfact> 0.61767356E+04</totfact>
</mgrwt>
</event>
<event>
 6    1  0.1535419E-002  0.9493521E+02  0.7546771E-02  0.1372516E+00
          2   -1    0    0  501    0  0.00000000000E+00  0.00000000000E+00  0.30708121709E+03  0.30708121709E+03  0.00000000000E+00 0. -1.
         -2   -1    0    0    0  501 -0.00000000000E+00 -0.00000000000E+00 -0.27118247149E+02  0.27118247149E+02  0.00000000000E+00 0.  1.
         23    2    1    2    0    0 -0.20349996303E+02 -0.10323143028E+02  0.29294671311E+03  0.30794556514E+03  0.92152073972E+02 0.  0.
         11    1    3    3    0    0 -0.15710401581E+02 -0.30601936398E+02  0.28264719391E+03  0.28473273689E+03  0.00000000000E+00 0. -1.
        -11    1    3    3    0    0 -0.46395947225E+01  0.20278793371E+02  0.10299519193E+02  0.23212828250E+02  0.00000000000E+00 0.  1.
         22    1    1    2    0    0  0.20349996303E+02  0.10323143028E+02 -0.12983743163E+02  0.26253899102E+02  0.00000000000E+00 0.  1.
<mgrwt>
<rscale>  0 0.66472629E+02</rscale>
<asrwt>0</asrwt>
<pdfrwt beam="1">  1        2 0.47243262E-01 0.94935211E+02</pdfrwt>
<pdfrwt beam="2">  1       -2 0.41720382E-02 0.94935211E+02</pdfrwt>
<totfact> 0.24656006E+04</totfact>
</mgrwt>
</event>
<event>
 6    1  0.1535419E-002  0.9211667E+02  0.7546771E-02  0.1387507E+00
          1   -1    0    0  501    0  0.00000000000E+00  0.00000000000E+00  0.35717300509E+03  0.35717300509E+03  0.00000000000E+00 0. -1.
         -1   -1    0    0    0  501 -0.00000000000E+00 -0.00000000000E+00 -0.15587694261E+02  0.15587694261E+02  0.00000000000E+00 0.  1.
         23    2    1    2    0    0  0.19085111818E+02  0.42841436210E+01  0.34096673295E+03  0.35319087518E+03  0.90016031621E+02 0.  0.
         11    1    3    3    0    0  0.37746878161E+02  0.36839783341E+02  0.23278811153E+03  0.23868871217E+03  0.00000000000E+00 0. -1.
        -11    1    3    3    0    0 -0.18661766343E+02 -0.32555639720E+02  0.10817862142E+03  0.11450216301E+03  0.00000000000E+00 0.  1.
         22    1    1    2    0    0 -0.19085111818E+02 -0.42841436210E+01  0.61857787818E+00  0.19569824176E+02  0.00000000000E+00 0.  1.
<mgrwt>
<rscale>  0 0.62531111E+02</rscale>
<asrwt>0</asrwt>
<pdfrwt beam="1">  1        1 0.54949687E-01 0.92116672E+02</pdfrwt>
<pdfrwt beam="2">  1       -1 0.23981071E-02 0.92116672E+02</pdfrwt>
<totfact> 0.32710047E+04</totfact>
</mgrwt>
</event>
<event>
 6    1  0.1535419E-002  0.9177374E+02  0.7546771E-02  0.1420329E+00
         -2   -1    0    0    0  501 -0.00000000000E+00  0.00000000000E+00  0.47608659632E+01  0.47608659632E+01  0.00000000000E+00 0. -1.
          2   -1    0    0  501    0  0.00000000000E+00 -0.00000000000E+00 -0.76034048889E+03  0.76034048889E+03  0.00000000000E+00 0.  1.
         23    2    1    2    0    0 -0.11121672994E+02  0.39330745717E+01 -0.73942261300E+03  0.74509611415E+03  0.91012405863E+02 0.  0.
         11    1    3    3    0    0  0.12381533670E+02 -0.36984323293E+02 -0.21127723478E+03  0.21484695130E+03  0.00000000000E+00 0. -1.
        -11    1    3    3    0    0 -0.23503206664E+02  0.40917397865E+02 -0.52814537822E+03  0.53024916285E+03  0.00000000000E+00 0.  1.
         22    1    1    2    0    0  0.11121672994E+02 -0.39330745717E+01 -0.16157009925E+02  0.20005240700E+02  0.00000000000E+00 0. -1.
<mgrwt>
<rscale>  0 0.54951352E+02</rscale>
<asrwt>0</asrwt>
<pdfrwt beam="1">  1        2 0.11697534E+00 0.91773736E+02</pdfrwt>
<pdfrwt beam="2">  1       -2 0.73244169E-03 0.91773736E+02</pdfrwt>
<totfact> 0.11091616E+05</totfact>
</mgrwt>
</event>
<event>
 6    1  0.1535419E-002  0.9315323E+02  0.7546771E-02  0.1395455E+00
         -2   -1    0    0    0  501 -0.00000000000E+00  0.00000000000E+00  0.92919203697E+01  0.92919203697E+01  0.00000000000E+00 0.  1.
          2   -1    0    0  501    0  0.00000000000E+00 -0.00000000000E+00 -0.43195106964E+03  0.43195106964E+03  0.00000000000E+00 0. -1.
         23    2    1    2    0    0 -0.10790167576E+02  0.12681742492E+02 -0.40966314148E+03  0.42012071439E+03  0.91652991566E+02 0.  0.
         11    1    3    3    0    0  0.21463540716E+02 -0.30230975312E+02 -0.21582502105E+03  0.21898638122E+03  0.00000000000E+00 0. -1.
        -11    1    3    3    0    0 -0.32253708292E+02  0.42912717804E+02 -0.19383812042E+03  0.20113433316E+03  0.00000000000E+00 0.  1.
         22    1    1    2    0    0  0.10790167576E+02 -0.12681742492E+02 -0.12996007795E+02  0.21122275625E+02  0.00000000000E+00 0. -1.
<mgrwt>
<rscale>  0 0.60570093E+02</rscale>
<asrwt>0</asrwt>
<pdfrwt beam="1">  1        2 0.66454022E-01 0.93153235E+02</pdfrwt>
<pdfrwt beam="2">  1       -2 0.14295260E-02 0.93153235E+02</pdfrwt>
<totfact> 0.80985312E+04</totfact>
</mgrwt>
</event>
<event>
 6    1  0.1535419E-002  0.8947903E+02  0.7546771E-02  0.1395638E+00
         -2   -1    0    0    0  501 -0.00000000000E+00  0.00000000000E+00  0.58352596233E+01  0.58352596233E+01  0.00000000000E+00 0. -1.
          2   -1    0    0  501    0  0.00000000000E+00 -0.00000000000E+00 -0.96993422640E+03  0.96993422640E+03  0.00000000000E+00 0.  1.
         23    2    1    2    0    0  0.15483793722E+02  0.10543694012E+02 -0.94423702467E+03  0.94846721330E+03  0.87496163378E+02 0.  0.
         13    1    3    3    0    0  0.19208134656E+02  0.41299755165E+02 -0.29539489675E+03  0.29888587661E+03  0.00000000000E+00 0. -1.
        -13    1    3    3    0    0 -0.37243409339E+01 -0.30756061154E+02 -0.64884212792E+03  0.64958133669E+03  0.00000000000E+00 0.  1.
         22    1    1    2    0    0 -0.15483793722E+02 -0.10543694012E+02 -0.19861942115E+02  0.27302272726E+02  0.00000000000E+00 0.  1.
<mgrwt>
<rscale>  0 0.60525939E+02</rscale>
<asrwt>0</asrwt>
<pdfrwt beam="1">  1        2 0.14922055E+00 0.89479025E+02</pdfrwt>
<pdfrwt beam="2">  1       -2 0.89773283E-03 0.89479025E+02</pdfrwt>
<totfact> 0.61065443E+04</totfact>
</mgrwt>
</event>
<event>
 6    1  0.1535419E-002  0.9229279E+02  0.7546771E-02  0.1419254E+00
          1   -1    0    0  501    0  0.00000000000E+00  0.00000000000E+00  0.18433962621E+03  0.18433962621E+03  0.00000000000E+00 0. -1.
         -1   -1    0    0    0  501 -0.00000000000E+00 -0.00000000000E+00 -0.17120015924E+02  0.17120015924E+02  0.00000000000E+00 0.  1.
         23    2    1    2    0    0  0.42349353310E+01  0.11005535762E+02  0.16556570126E+03  0.18955200132E+03  0.91536349467E+02 0.  0.
         11    1    3    3    0    0  0.11573965456E+02 -0.13130628502E+02 -0.41359922340E+01  0.17985452816E+02  0.00000000000E+00 0.  1.
        -11    1    3    3    0    0 -0.73390301249E+01  0.24136164265E+02  0.16970169350E+03  0.17156654850E+03  0.00000000000E+00 0. -1.
         22    1    1    2    0    0 -0.42349353310E+01 -0.11005535762E+02  0.16539090177E+01  0.11907640812E+02  0.00000000000E+00 0. -1.
<mgrwt>
<rscale>  0 0.55179118E+02</rscale>
<asrwt>0</asrwt>
<pdfrwt beam="1">  1        1 0.28359941E-01 0.92292794E+02</pdfrwt>
<pdfrwt beam="2">  1       -1 0.26338487E-02 0.92292794E+02</pdfrwt>
<totfact> 0.64272939E+04</totfact>
</mgrwt>
</event>
<event>
 6    1  0.1535419E-002  0.9214783E+02  0.7546771E-02  0.1394292E+00
         -2   -1    0    0    0  501 -0.00000000000E+00  0.00000000000E+00  0.11907519426E+02  0.11907519426E+02  0.00000000000E+00 0.  1.
          2   -1    0    0  501    0  0.00000000000E+00 -0.00000000000E+00 -0.26313251530E+03  0.26313251530E+03  0.00000000000E+00 0. -1.
         23    2    1    2    0    0  0.17102011520E+02 -0.38222166075E+01 -0.22821834025E+03  0.24611955166E+03  0.90466207747E+02 0.  0.
         11    1    3    3    0    0 -0.16410303998E+02 -0.36885793669E+02 -0.14492130137E+03  0.15043950094E+03  0.00000000000E+00 0. -1.
        -11    1    3    3    0    0  0.33512315519E+02  0.33063577061E+02 -0.83297038879E+02  0.95680050719E+02  0.00000000000E+00 0.  1.
         22    1    1    2    0    0 -0.17102011520E+02  0.38222166075E+01 -0.23006655627E+02  0.28920483069E+02  0.00000000000E+00 0.  1.
<mgrwt>
<rscale>  0 0.60851561E+02</rscale>
<asrwt>0</asrwt>
<pdfrwt beam="1">  1        2 0.40481923E-01 0.92147832E+02</pdfrwt>
<pdfrwt beam="2">  1       -2 0.18319262E-02 0.92147832E+02</pdfrwt>
<totfact> 0.95398679E+04</totfact>
</mgrwt>
</event>
<event>
 6    1  0.1535419E-002  0.9201760E+02  0.7546771E-02  0.1412627E+00
         -2   -1    0    0    0  501 -0.00000000000E+00  0.00000000000E+00  0.24838504081E+02  0.24838504081E+02  0.00000000000E+00 0.  1.
          2   -1    0    0  501    0  0.00000000000E+00 -0.00000000000E+00 -0.17060454525E+03  0.17060454525E+03  0.00000000000E+00 0. -1.
         23    2    1    2    0    0  0.22531852553E+01 -0.12988893391E+02 -0.15436023070E+03  0.17970620437E+03  0.91068385693E+02 0.  0.
         11    1    3    3    0    0 -0.43491215218E+02 -0.40418514330E+01 -0.57444829564E+02  0.72164609109E+02  0.00000000000E+00 0.  1.
        -11    1    3    3    0    0  0.45744400473E+02 -0.89470419580E+01 -0.96915401136E+02  0.10754159526E+03  0.00000000000E+00 0. -1.
         22    1    1    2    0    0 -0.22531852553E+01  0.12988893391E+02  0.85941895364E+01  0.15736844954E+02  0.00000000000E+00 0.  1.
<mgrwt>
<rscale>  0 0.56611638E+02</rscale>
<asrwt>0</asrwt>
<pdfrwt beam="1">  1        2 0.26246853E-01 0.92017602E+02</pdfrwt>
<pdfrwt beam="2">  1       -2 0.38213084E-02 0.92017602E+02</pdfrwt>
<totfact> 0.52109643E+04</totfact>
</mgrwt>
</event>
<event>
 6    1  0.1535419E-002  0.1027983E+03  0.7546771E-02  0.1332857E+00
         -2   -1    0    0    0  501 -0.00000000000E+00  0.00000000000E+00  0.96578458061E+02  0.96578458061E+02  0.00000000000E+00 0.  1.
          2   -1    0    0  501    0  0.00000000000E+00 -0.00000000000E+00 -0.88849607556E+02  0.88849607556E+02  0.00000000000E+00 0. -1.
         23    2    1    2    0    0  0.25044136232E+02 -0.24830485608E+02 -0.52655477474E+02  0.11549932445E+03  0.96559478386E+02 0.  0.
         13    1    3    3    0    0  0.50832184077E+02 -0.45896161983E+02 -0.42851898257E+02  0.80787708267E+02  0.00000000000E+00 0. -1.
        -13    1    3    3    0    0 -0.25788047845E+02  0.21065676376E+02 -0.98035792165E+01  0.34711616186E+02  0.00000000000E+00 0.  1.
         22    1    1    2    0    0 -0.25044136232E+02  0.24830485608E+02  0.60384327980E+02  0.69928741163E+02  0.00000000000E+00 0.  1.
<mgrwt>
<rscale>  0 0.78674078E+02</rscale>
<asrwt>0</asrwt>
<pdfrwt beam="1">  1        2 0.13669170E-01 0.10279832E+03</pdfrwt>
<pdfrwt beam="2">  1       -2 0.14858224E-01 0.10279832E+03</pdfrwt>
<totfact> 0.13767717E+04</totfact>
</mgrwt>
</event>
<event>
 6    1  0.1535419E-002  0.9321789E+02  0.7546771E-02  0.1396079E+00
          2   -1    0    0  501    0  0.00000000000E+00  0.00000000000E+00  0.25628350495E+03  0.25628350495E+03  0.00000000000E+00 0. -1.
         -2   -1    0    0    0  501 -0.00000000000E+00 -0.00000000000E+00 -0.16492563107E+02  0.16492563107E+02  0.00000000000E+00 0.  1.
         23    2    1    2    0    0  0.15390577569E+02 -0.58133832497E+01  0.23873667650E+03  0.25629041435E+03  0.91754621016E+02 0.  0.
         13    1    3    3    0    0  0.20180687353E+02 -0.25256084796E+02  0.23117740725E+02  0.39743677453E+02  0.00000000000E+00 0.  1.
        -13    1    3    3    0    0 -0.47901097839E+01  0.19442701547E+02  0.21561893577E+03  0.21654673689E+03  0.00000000000E+00 0. -1.
         22    1    1    2    0    0 -0.15390577569E+02  0.58133832497E+01  0.10542653406E+01  0.16485653706E+02  0.00000000000E+00 0. -1.
<mgrwt>
<rscale>  0 0.60419696E+02</rscale>
<asrwt>0</asrwt>
<pdfrwt beam="1">  1        2 0.39428229E-01 0.93217894E+02</pdfrwt>
<pdfrwt beam="2">  1       -2 0.25373176E-02 0.93217894E+02</pdfrwt>
<totfact> 0.61451186E+04</totfact>
</mgrwt>
</event>
<event>
 6    1  0.1535419E-002  0.8913569E+02  0.7546771E-02  0.1436155E+00
         -4   -1    0    0    0  501 -0.00000000000E+00  0.00000000000E+00  0.54769529420E+02  0.54769529420E+02  0.00000000000E+00 0.  1.
          4   -1    0    0  501    0  0.00000000000E+00 -0.00000000000E+00 -0.64314046541E+02  0.64314046541E+02  0.00000000000E+00 0. -1.
         23    2    1    2    0    0 -0.33614262557E+01 -0.95481975382E+01 -0.31796669583E+02  0.94637194799E+02  0.88559037823E+02 0.  0.
         11    1    3    3    0    0 -0.21162688253E+02  0.26418747971E+02 -0.41296780824E+02  0.53396944902E+02  0.00000000000E+00 0. -1.
        -11    1    3    3    0    0  0.17801261998E+02 -0.35966945509E+02  0.95001112409E+01  0.41240249897E+02  0.00000000000E+00 0.  1.
         22    1    1    2    0    0  0.33614262557E+01  0.95481975382E+01  0.22252152463E+02  0.24446381162E+02  0.00000000000E+00 0.  1.
<mgrwt>
<rscale>  0 0.51744220E+02</rscale>
<asrwt>0</asrwt>
<pdfrwt beam="1">  1        4 0.98944687E-02 0.89135686E+02</pdfrwt>
<pdfrwt beam="2">  1       -4 0.84260815E-02 0.89135686E+02</pdfrwt>
<totfact> 0.11269448E+04</totfact>
</mgrwt>
</event>
<event>
 6    1  0.1535419E-002  0.9387527E+02  0.7546771E-02  0.1384438E+00
         -1   -1    0    0    0  501 -0.00000000000E+00  0.00000000000E+00  0.36311866877E+01  0.36311866877E+01  0.00000000000E+00 0.  1.
          1   -1    0    0  501    0  0.00000000000E+00 -0.00000000000E+00 -0.93583743752E+03  0.93583743752E+03  0.00000000000E+00 0. -1.
         23    2    1    2    0    0 -0.17312917791E+02  0.88004010924E+01 -0.84064412674E+03  0.84586944286E+03  0.91844337601E+02 0.  0.
         11    1    3    3    0    0  0.28722167074E+01  0.48161258409E+02 -0.36547950896E+03  0.36865027860E+03  0.00000000000E+00 0.  1.
        -11    1    3    3    0    0 -0.20185134498E+02 -0.39360857317E+02 -0.47516461778E+03  0.47721916426E+03  0.00000000000E+00 0. -1.
         22    1    1    2    0    0  0.17312917791E+02 -0.88004010924E+01 -0.91562124084E+02  0.93599181345E+02  0.00000000000E+00 0. -1.
<mgrwt>
<rscale>  0 0.63311498E+02</rscale>
<asrwt>0</asrwt>
<pdfrwt beam="1">  1        1 0.14397505E+00 0.93875271E+02</pdfrwt>
<pdfrwt beam="2">  1       -1 0.55864387E-03 0.93875271E+02</pdfrwt>
<totfact> 0.69762973E+04</totfact>
</mgrwt>
</event>
<event>
 6    1  0.1535419E-002  0.1128033E+03  0.7546771E-02  0.1284106E+00
         -2   -1    0    0    0  501 -0.00000000000E+00  0.00000000000E+00  0.22813968699E+02  0.22813968699E+02  0.00000000000E+00 0.  1.
          2   -1    0    0  501    0  0.00000000000E+00 -0.00000000000E+00 -0.47819272620E+03  0.47819272620E+03  0.00000000000E+00 0. -1.
         23    2    1    2    0    0  0.61759833071E+02  0.19654500520E+02 -0.40049676077E+03  0.41607960890E+03  0.92325560817E+02 0.  0.
         11    1    3    3    0    0 -0.30135422893E+01 -0.17566059232E+02 -0.14660662075E+02  0.23077757399E+02  0.00000000000E+00 0.  1.
        -11    1    3    3    0    0  0.64773375361E+02  0.37220559752E+02 -0.38583609870E+03  0.39300185150E+03  0.00000000000E+00 0. -1.
         22    1    1    2    0    0 -0.61759833071E+02 -0.19654500520E+02 -0.54881996730E+02  0.84927086002E+02  0.00000000000E+00 0.  1.
<mgrwt>
<rscale>  0 0.98209834E+02</rscale>
<asrwt>0</asrwt>
<pdfrwt beam="1">  1        2 0.73568115E-01 0.11280330E+03</pdfrwt>
<pdfrwt beam="2">  1       -2 0.35098412E-02 0.11280330E+03</pdfrwt>
<totfact> 0.20249211E+04</totfact>
</mgrwt>
</event>
<event>
 6    1  0.1535419E-002  0.9231101E+02  0.7546771E-02  0.1403618E+00
          2   -1    0    0  501    0  0.00000000000E+00  0.00000000000E+00  0.27628143547E+03  0.27628143547E+03  0.00000000000E+00 0. -1.
         -2   -1    0    0    0  501 -0.00000000000E+00 -0.00000000000E+00 -0.10549972788E+02  0.10549972788E+02  0.00000000000E+00 0.  1.
         23    2    1    2    0    0  0.57927019786E+01 -0.13873842535E+02  0.23821532810E+03  0.25547576179E+03  0.91078446513E+02 0.  0.
         13    1    3    3    0    0 -0.36591278827E+02  0.14808145741E+02  0.12820200839E+03  0.13414155889E+03  0.00000000000E+00 0. -1.
        -13    1    3    3    0    0  0.42383980805E+02 -0.28681988276E+02  0.11001331971E+03  0.12133420290E+03  0.00000000000E+00 0.  1.
         22    1    1    2    0    0 -0.57927019786E+01  0.13873842535E+02  0.27516134588E+02  0.31355646470E+02  0.00000000000E+00 0.  1.
<mgrwt>
<rscale>  0 0.58642574E+02</rscale>
<asrwt>0</asrwt>
<pdfrwt beam="1">  1        2 0.42504831E-01 0.92311009E+02</pdfrwt>
<pdfrwt beam="2">  1       -2 0.16230729E-02 0.92311009E+02</pdfrwt>
<totfact> 0.10783015E+05</totfact>
</mgrwt>
</event>
<event>
 6    1  0.1535419E-002  0.1132968E+03  0.7546771E-02  0.1282180E+00
          2   -1    0    0  501    0  0.00000000000E+00  0.00000000000E+00  0.13143191135E+04  0.13143191135E+04  0.00000000000E+00 0. -1.
         -2   -1    0    0    0  501 -0.00000000000E+00 -0.00000000000E+00 -0.64390340607E+01  0.64390340607E+01  0.00000000000E+00 0.  1.
         23    2    1    2    0    0 -0.39651458435E+02 -0.53192001814E+02  0.95485205736E+03  0.96155011371E+03  0.91839765397E+02 0.  0.
         13    1    3    3    0    0  0.13045331144E+02 -0.95312344617E+01  0.29198376313E+02  0.33370200394E+02  0.00000000000E+00 0.  1.
        -13    1    3    3    0    0 -0.52696789579E+02 -0.43660767352E+02  0.92565368105E+03  0.92817991331E+03  0.00000000000E+00 0. -1.
         22    1    1    2    0    0  0.39651458435E+02  0.53192001814E+02  0.35302802204E+03  0.35920803382E+03  0.00000000000E+00 0.  1.
<mgrwt>
<rscale>  0 0.99109424E+02</rscale>
<asrwt>0</asrwt>
<pdfrwt beam="1">  1        2 0.20220273E+00 0.11329682E+03</pdfrwt>
<pdfrwt beam="2">  1       -2 0.99062167E-03 0.11329682E+03</pdfrwt>
<totfact> 0.34924189E+04</totfact>
</mgrwt>
</event>
<event>
 6    1  0.1535419E-002  0.9651741E+02  0.7546771E-02  0.1352680E+00
          2   -1    0    0  501    0  0.00000000000E+00  0.00000000000E+00  0.11922832460E+03  0.11922832460E+03  0.00000000000E+00 0. -1.
         -2   -1    0    0    0  501 -0.00000000000E+00 -0.00000000000E+00 -0.36768736554E+02  0.36768736554E+02  0.00000000000E+00 0.  1.
         23    2    1    2    0    0 -0.29340792109E+02  0.74336392016E+01  0.80472695987E+02  0.12566409537E+03  0.91648616964E+02 0.  0.
         13    1    3    3    0    0  0.16269747265E+02 -0.29624183511E+02  0.47443269808E+02  0.58250843555E+02  0.00000000000E+00 0. -1.
        -13    1    3    3    0    0 -0.45610539374E+02  0.37057822712E+02  0.33029426179E+02  0.67413251812E+02  0.00000000000E+00 0.  1.
         22    1    1    2    0    0  0.29340792109E+02 -0.74336392016E+01  0.19868920589E+01  0.30332965787E+02  0.00000000000E+00 0. -1.
<mgrwt>
<rscale>  0 0.72226993E+02</rscale>
<asrwt>0</asrwt>
<pdfrwt beam="1">  1        2 0.18342819E-01 0.96517408E+02</pdfrwt>
<pdfrwt beam="2">  1       -2 0.56567288E-02 0.96517408E+02</pdfrwt>
<totfact> 0.43585514E+04</totfact>
</mgrwt>
</event>
<event>
 6    1  0.1535419E-002  0.8663812E+02  0.7546771E-02  0.1436824E+00
          1   -1    0    0  501    0  0.00000000000E+00  0.00000000000E+00  0.45545059205E+03  0.45545059205E+03  0.00000000000E+00 0. -1.
         -1   -1    0    0    0  501 -0.00000000000E+00 -0.00000000000E+00 -0.80254873723E+01  0.80254873723E+01  0.00000000000E+00 0.  1.
         23    2    1    2    0    0  0.10884949564E+02 -0.78515918603E+00  0.44349262748E+03  0.45187595102E+03  0.85948041757E+02 0.  0.
         13    1    3    3    0    0  0.30861193643E+02 -0.32786107008E+02  0.30628251178E+03  0.30957441611E+03  0.00000000000E+00 0. -1.
        -13    1    3    3    0    0 -0.19976244079E+02  0.32000947822E+02  0.13721011570E+03  0.14230153492E+03  0.00000000000E+00 0.  1.
         22    1    1    2    0    0 -0.10884949564E+02  0.78515918603E+00  0.39324771972E+01  0.11600128399E+02  0.00000000000E+00 0.  1.
<mgrwt>
<rscale>  0 0.51614308E+02</rscale>
<asrwt>0</asrwt>
<pdfrwt beam="1">  1        1 0.70069301E-01 0.86638124E+02</pdfrwt>
<pdfrwt beam="2">  1       -1 0.12346907E-02 0.86638124E+02</pdfrwt>
<totfact> 0.61656180E+04</totfact>
</mgrwt>
</event>
<event>
 6    1  0.1535419E-002  0.9488388E+02  0.7546771E-02  0.1381068E+00
          2   -1    0    0  501    0  0.00000000000E+00  0.00000000000E+00  0.73896142421E+02  0.73896142421E+02  0.00000000000E+00 0. -1.
         -2   -1    0    0    0  501 -0.00000000000E+00 -0.00000000000E+00 -0.55690646771E+02  0.55690646771E+02  0.00000000000E+00 0.  1.
         23    2    1    2    0    0  0.19248934726E+02  0.49152316605E+01 -0.96492145127E+01  0.95373255779E+02  0.92780760865E+02 0.  0.
         13    1    3    3    0    0 -0.17712011778E+02  0.39497271708E+02 -0.11273297424E+02  0.44730717280E+02  0.00000000000E+00 0. -1.
        -13    1    3    3    0    0  0.36960946504E+02 -0.34582040047E+02  0.16240829112E+01  0.50642538499E+02  0.00000000000E+00 0.  1.
         22    1    1    2    0    0 -0.19248934726E+02 -0.49152316605E+01  0.27854710163E+02  0.34213533413E+02  0.00000000000E+00 0. -1.
<mgrwt>
<rscale>  0 0.64183752E+02</rscale>
<asrwt>0</asrwt>
<pdfrwt beam="1">  1        2 0.11368637E-01 0.94883879E+02</pdfrwt>
<pdfrwt beam="2">  1       -2 0.85677917E-02 0.94883879E+02</pdfrwt>
<totfact> 0.40427913E+04</totfact>
</mgrwt>
</event>
<event>
 6    1  0.1535419E-002  0.9884701E+02  0.7546771E-02  0.1338465E+00
          2   -1    0    0  501    0  0.00000000000E+00  0.00000000000E+00  0.12716411053E+04  0.12716411053E+04  0.00000000000E+00 0. -1.
         -2   -1    0    0    0  501 -0.00000000000E+00 -0.00000000000E+00 -0.39908218851E+01  0.39908218851E+01  0.00000000000E+00 0.  1.
         23    2    1    2    0    0  0.19199765577E+02 -0.30418709972E+02  0.10836219257E+04  0.10881209532E+04  0.92069550130E+02 0.  0.
         11    1    3    3    0    0  0.22470518912E+01 -0.51401425169E+02  0.96910429702E+03  0.97046911041E+03  0.00000000000E+00 0. -1.
        -11    1    3    3    0    0  0.16952713686E+02  0.20982715197E+02  0.11451762866E+03  0.11765184279E+03  0.00000000000E+00 0.  1.
         22    1    1    2    0    0 -0.19199765577E+02  0.30418709972E+02  0.18402835772E+03  0.18751097397E+03  0.00000000000E+00 0.  1.
<mgrwt>
<rscale>  0 0.76773519E+02</rscale>
<asrwt>0</asrwt>
<pdfrwt beam="1">  1        2 0.19563677E+00 0.98847008E+02</pdfrwt>
<pdfrwt beam="2">  1       -2 0.61397361E-03 0.98847008E+02</pdfrwt>
<totfact> 0.71499155E+04</totfact>
</mgrwt>
</event>
<event>
 6    1  0.1535419E-002  0.9419080E+02  0.7546771E-02  0.1391954E+00
          2   -1    0    0  501    0  0.00000000000E+00  0.00000000000E+00  0.58323770511E+02  0.58323770511E+02  0.00000000000E+00 0.  1.
         -2   -1    0    0    0  501 -0.00000000000E+00 -0.00000000000E+00 -0.53309890073E+02  0.53309890073E+02  0.00000000000E+00 0. -1.
         23    2    1    2    0    0  0.36587002496E+00 -0.17029695495E+02  0.71740225948E+01  0.94463610973E+02  0.92637804423E+02 0.  0.
         11    1    3    3    0    0  0.20673832145E+02 -0.14538021592E+02 -0.37560598502E+02  0.45272066080E+02  0.00000000000E+00 0. -1.
        -11    1    3    3    0    0 -0.20307962120E+02 -0.24916739034E+01  0.44734621096E+02  0.49191544893E+02  0.00000000000E+00 0.  1.
         22    1    1    2    0    0 -0.36587002496E+00  0.17029695495E+02 -0.21601421566E+01  0.17170049612E+02  0.00000000000E+00 0. -1.
<mgrwt>
<rscale>  0 0.61423300E+02</rscale>
<asrwt>0</asrwt>
<pdfrwt beam="1">  1        2 0.89728877E-02 0.94190802E+02</pdfrwt>
<pdfrwt beam="2">  1       -2 0.82015216E-02 0.94190802E+02</pdfrwt>
<totfact> 0.57536152E+04</totfact>
</mgrwt>
</event>
<event>
 6    1  0.1535419E-002  0.9608231E+02  0.7546771E-02  0.1370235E+00
          2   -1    0    0  501    0  0.00000000000E+00  0.00000000000E+00  0.64735515646E+03  0.64735515646E+03  0.00000000000E+00 0. -1.
         -2   -1    0    0    0  501 -0.00000000000E+00 -0.00000000000E+00 -0.72705700458E+01  0.72705700458E+01  0.00000000000E+00 0.  1.
         23    2    1    2    0    0  0.22550422782E+02  0.37280514512E+01  0.60610949776E+03  0.61367787449E+03  0.93324114965E+02 0.  0.
         11    1    3    3    0    0 -0.28547859246E+02  0.10781652046E+02  0.40180563052E+03  0.40296276380E+03  0.00000000000E+00 0. -1.
        -11    1    3    3    0    0  0.51098282028E+02 -0.70536005943E+01  0.20430386724E+03  0.21071511070E+03  0.00000000000E+00 0.  1.
         22    1    1    2    0    0 -0.22550422782E+02 -0.37280514512E+01  0.33975088653E+02  0.40947852010E+02  0.00000000000E+00 0.  1.
<mgrwt>
<rscale>  0 0.67101935E+02</rscale>
<asrwt>0</asrwt>
<pdfrwt beam="1">  1        2 0.99593055E-01 0.96082310E+02</pdfrwt>
<pdfrwt beam="2">  1       -2 0.11185497E-02 0.96082310E+02</pdfrwt>
<totfact> 0.74010155E+04</totfact>
</mgrwt>
</event>
<event>
 6    1  0.1535419E-002  0.9386625E+02  0.7546771E-02  0.1403271E+00
          2   -1    0    0  501    0  0.00000000000E+00  0.00000000000E+00  0.16228774599E+03  0.16228774599E+03  0.00000000000E+00 0. -1.
         -2   -1    0    0    0  501 -0.00000000000E+00 -0.00000000000E+00 -0.25820978153E+02  0.25820978153E+02  0.00000000000E+00 0.  1.
         23    2    1    2    0    0  0.95708206586E+01  0.10729751885E+02  0.14398823439E+03  0.17188218284E+03  0.92758530348E+02 0.  0.
         11    1    3    3    0    0 -0.19014061580E+02  0.39414487311E+02  0.11209822970E+03  0.12033723219E+03  0.00000000000E+00 0. -1.
        -11    1    3    3    0    0  0.28584882239E+02 -0.28684735427E+02  0.31890004684E+02  0.51544950653E+02  0.00000000000E+00 0.  1.
         22    1    1    2    0    0 -0.95708206586E+01 -0.10729751885E+02 -0.75214665510E+01  0.16226541303E+02  0.00000000000E+00 0. -1.
<mgrwt>
<rscale>  0 0.58722842E+02</rscale>
<asrwt>0</asrwt>
<pdfrwt beam="1">  1        2 0.24967345E-01 0.93866251E+02</pdfrwt>
<pdfrwt beam="2">  1       -2 0.39724583E-02 0.93866251E+02</pdfrwt>
<totfact> 0.52109213E+04</totfact>
</mgrwt>
</event>
<event>
 6    1  0.1535419E-002  0.9230576E+02  0.7546771E-02  0.1413914E+00
         -4   -1    0    0    0  501 -0.00000000000E+00  0.00000000000E+00  0.12879366601E+02  0.12879366601E+02  0.00000000000E+00 0.  1.
          4   -1    0    0  501    0  0.00000000000E+00 -0.00000000000E+00 -0.13565947070E+04  0.13565947070E+04  0.00000000000E+00 0. -1.
         23    2    1    2    0    0  0.74997909612E+01 -0.10374380938E+02 -0.13513963827E+04  0.13545451401E+04  0.91413777929E+02 0.  0.
         13    1    3    3    0    0  0.25749150078E+02 -0.20832800527E+02 -0.18387205862E+03  0.18683136313E+03  0.00000000000E+00 0.  1.
        -13    1    3    3    0    0 -0.18249359117E+02  0.10458419589E+02 -0.11675243241E+04  0.11677137770E+04  0.00000000000E+00 0. -1.
         22    1    1    2    0    0 -0.74997909612E+01  0.10374380938E+02  0.76810422969E+01  0.14928933488E+02  0.00000000000E+00 0.  1.
<mgrwt>
<rscale>  0 0.56329458E+02</rscale>
<asrwt>0</asrwt>
<pdfrwt beam="1">  1        4 0.20870683E+00 0.92305761E+02</pdfrwt>
<pdfrwt beam="2">  1       -4 0.19814415E-02 0.92305761E+02</pdfrwt>
<totfact> 0.20870052E+02</totfact>
</mgrwt>
</event>
<event>
 6    1  0.1535419E-002  0.9188765E+02  0.7546771E-02  0.1422794E+00
         -2   -1    0    0    0  501 -0.00000000000E+00  0.00000000000E+00  0.14309978450E+02  0.14309978450E+02  0.00000000000E+00 0.  1.
          2   -1    0    0  501    0  0.00000000000E+00 -0.00000000000E+00 -0.19991105944E+03  0.19991105944E+03  0.00000000000E+00 0. -1.
         23    2    1    2    0    0 -0.11218572515E+02  0.14861061668E+01 -0.17876980402E+03  0.20100244395E+03  0.91188128401E+02 0.  0.
         11    1    3    3    0    0 -0.37632718614E+02  0.26323062100E+02 -0.53090595005E+02  0.70197837477E+02  0.00000000000E+00 0.  1.
        -11    1    3    3    0    0  0.26414146098E+02 -0.24836955933E+02 -0.12567920902E+03  0.13080460647E+03  0.00000000000E+00 0. -1.
         22    1    1    2    0    0  0.11218572515E+02 -0.14861061668E+01 -0.68312769645E+01  0.13218593941E+02  0.00000000000E+00 0.  1.
<mgrwt>
<rscale>  0 0.54434170E+02</rscale>
<asrwt>0</asrwt>
<pdfrwt beam="1">  1        2 0.30755548E-01 0.91887647E+02</pdfrwt>
<pdfrwt beam="2">  1       -2 0.22015351E-02 0.91887647E+02</pdfrwt>
<totfact> 0.97914946E+04</totfact>
</mgrwt>
</event>
<event>
 6    1  0.1535419E-002  0.9211248E+02  0.7546771E-02  0.1424464E+00
         -2   -1    0    0    0  501 -0.00000000000E+00  0.00000000000E+00  0.19710097483E+01  0.19710097483E+01  0.00000000000E+00 0.  1.
          2   -1    0    0  501    0  0.00000000000E+00 -0.00000000000E+00 -0.19734889827E+04  0.19734889827E+04  0.00000000000E+00 0. -1.
         23    2    1    2    0    0  0.10520804053E+02  0.30374325981E+01 -0.19382214886E+04  0.19404090411E+04  0.91459252691E+02 0.  0.
         13    1    3    3    0    0 -0.34630356091E+02  0.21579442812E+02 -0.66356323972E+03  0.66481659653E+03  0.00000000000E+00 0. -1.
        -13    1    3    3    0    0  0.45151160145E+02 -0.18542010214E+02 -0.12746582488E+04  0.12755924446E+04  0.00000000000E+00 0.  1.
         22    1    1    2    0    0 -0.10520804053E+02 -0.30374325981E+01 -0.33296484353E+02  0.35050951271E+02  0.00000000000E+00 0. -1.
<mgrwt>
<rscale>  0 0.54087545E+02</rscale>
<asrwt>0</asrwt>
<pdfrwt beam="1">  1        2 0.30361562E+00 0.92112476E+02</pdfrwt>
<pdfrwt beam="2">  1       -2 0.30323034E-03 0.92112476E+02</pdfrwt>
<totfact> 0.83572216E+04</totfact>
</mgrwt>
</event>
<event>
 6    1  0.1535419E-002  0.9524959E+02  0.7546771E-02  0.1356057E+00
         -4   -1    0    0    0  501 -0.00000000000E+00  0.00000000000E+00  0.35886252814E+02  0.35886252814E+02  0.00000000000E+00 0.  1.
          4   -1    0    0  501    0  0.00000000000E+00 -0.00000000000E+00 -0.10972608181E+03  0.10972608181E+03  0.00000000000E+00 0. -1.
         23    2    1    2    0    0  0.17038519936E+02 -0.24375858714E+02 -0.61713770461E+02  0.11349481689E+03  0.90487514865E+02 0.  0.
         13    1    3    3    0    0 -0.10553710713E+02  0.24612828122E+02 -0.49015134702E+02  0.55853876748E+02  0.00000000000E+00 0. -1.
        -13    1    3    3    0    0  0.27592230649E+02 -0.48988686836E+02 -0.12698635760E+02  0.57640940141E+02  0.00000000000E+00 0.  1.
         22    1    1    2    0    0 -0.17038519936E+02  0.24375858714E+02 -0.12126058530E+02  0.32117517730E+02  0.00000000000E+00 0.  1.
<mgrwt>
<rscale>  0 0.71200685E+02</rscale>
<asrwt>0</asrwt>
<pdfrwt beam="1">  1        4 0.16880935E-01 0.95249588E+02</pdfrwt>
<pdfrwt beam="2">  1       -4 0.55209621E-02 0.95249588E+02</pdfrwt>
<totfact> 0.91737874E+03</totfact>
</mgrwt>
</event>
<event>
 6    1  0.1535419E-002  0.9150189E+02  0.7546771E-02  0.1425644E+00
          3   -1    0    0  501    0  0.00000000000E+00  0.00000000000E+00  0.21986113413E+03  0.21986113413E+03  0.00000000000E+00 0. -1.
         -3   -1    0    0    0  501 -0.00000000000E+00 -0.00000000000E+00 -0.16754813466E+02  0.16754813466E+02  0.00000000000E+00 0.  1.
         23    2    1    2    0    0 -0.10970598556E+02 -0.15351861084E+00  0.20588098974E+03  0.22529886365E+03  0.90841721830E+02 0.  0.
         11    1    3    3    0    0 -0.17213360706E+02 -0.16046432072E+02  0.20686145864E+03  0.20819570322E+03  0.00000000000E+00 0. -1.
        -11    1    3    3    0    0  0.62427621508E+01  0.15892913461E+02 -0.98046889582E+00  0.17103160433E+02  0.00000000000E+00 0.  1.
         22    1    1    2    0    0  0.10970598556E+02  0.15351861084E+00 -0.27746690733E+01  0.11317083948E+02  0.00000000000E+00 0.  1.
<mgrwt>
<rscale>  0 0.53844427E+02</rscale>
<asrwt>0</asrwt>
<pdfrwt beam="1">  1        3 0.33824788E-01 0.91501891E+02</pdfrwt>
<pdfrwt beam="2">  1       -3 0.25776638E-02 0.91501891E+02</pdfrwt>
<totfact> 0.11419100E+04</totfact>
</mgrwt>
</event>
<event>
 6    1  0.1535419E-002  0.9283713E+02  0.7546771E-02  0.1408681E+00
          1   -1    0    0  501    0  0.00000000000E+00  0.00000000000E+00  0.16014528926E+02  0.16014528926E+02  0.00000000000E+00 0. -1.
         -1   -1    0    0    0  501 -0.00000000000E+00 -0.00000000000E+00 -0.18406014120E+03  0.18406014120E+03  0.00000000000E+00 0.  1.
         23    2    1    2    0    0 -0.70612947101E+00 -0.13633229205E+02 -0.15749737850E+03  0.18282274869E+03  0.91827935012E+02 0.  0.
         11    1    3    3    0    0  0.18031396543E+02 -0.14189158779E+02 -0.16194026289E+03  0.16355767250E+03  0.00000000000E+00 0.  1.
        -11    1    3    3    0    0 -0.18737526014E+02  0.55592957400E+00  0.44428843978E+01  0.19265076189E+02  0.00000000000E+00 0. -1.
         22    1    1    2    0    0  0.70612947101E+00  0.13633229205E+02 -0.10548233782E+02  0.17251921439E+02  0.00000000000E+00 0. -1.
<mgrwt>
<rscale>  0 0.57489220E+02</rscale>
<asrwt>0</asrwt>
<pdfrwt beam="1">  1        1 0.24637737E-02 0.92837133E+02</pdfrwt>
<pdfrwt beam="2">  1       -1 0.28316945E-01 0.92837133E+02</pdfrwt>
<totfact> 0.44011333E+04</totfact>
</mgrwt>
</event>
<event>
 6    1  0.1535419E-002  0.9593605E+02  0.7546771E-02  0.1367055E+00
          2   -1    0    0  501    0  0.00000000000E+00  0.00000000000E+00  0.73342266825E+03  0.73342266825E+03  0.00000000000E+00 0. -1.
         -2   -1    0    0    0  501 -0.00000000000E+00 -0.00000000000E+00 -0.13706952735E+02  0.13706952735E+02  0.00000000000E+00 0.  1.
         23    2    1    2    0    0 -0.70814794217E+01 -0.23146046004E+02  0.71628680609E+03  0.72268285808E+03  0.92832311155E+02 0.  0.
         11    1    3    3    0    0  0.48819543373E+01 -0.49028325757E+01  0.68205637502E+03  0.68209146743E+03  0.00000000000E+00 0. -1.
        -11    1    3    3    0    0 -0.11963433759E+02 -0.18243213428E+02  0.34230431073E+02  0.40591390650E+02  0.00000000000E+00 0.  1.
         22    1    1    2    0    0  0.70814794217E+01  0.23146046004E+02  0.34289094245E+01  0.24446762899E+02  0.00000000000E+00 0.  1.
<mgrwt>
<rscale>  0 0.67992823E+02</rscale>
<asrwt>0</asrwt>
<pdfrwt beam="1">  1        2 0.11283423E+00 0.95936045E+02</pdfrwt>
<pdfrwt beam="2">  1       -2 0.21087625E-02 0.95936045E+02</pdfrwt>
<totfact> 0.25844845E+04</totfact>
</mgrwt>
</event>
<event>
 6    1  0.1535419E-002  0.1267076E+03  0.7546771E-02  0.1249943E+00
          1   -1    0    0  501    0  0.00000000000E+00  0.00000000000E+00  0.12558760647E+04  0.12558760647E+04  0.00000000000E+00 0. -1.
         -1   -1    0    0    0  501 -0.00000000000E+00 -0.00000000000E+00 -0.16629550021E+02  0.16629550021E+02  0.00000000000E+00 0.  1.
         23    2    1    2    0    0  0.86093148863E+02  0.21897091303E+02  0.11004118797E+04  0.11076827742E+04  0.90351039778E+02 0.  0.
         11    1    3    3    0    0  0.35224311391E+02  0.14808745006E+02  0.89945958114E+03  0.90027084211E+03  0.00000000000E+00 0. -1.
        -11    1    3    3    0    0  0.50868837473E+02  0.70883462961E+01  0.20095229856E+03  0.20741193210E+03  0.00000000000E+00 0.  1.
         22    1    1    2    0    0 -0.86093148863E+02 -0.21897091303E+02  0.13883463501E+03  0.16482284055E+03  0.00000000000E+00 0.  1.
<mgrwt>
<rscale>  0 0.11594369E+03</rscale>
<asrwt>0</asrwt>
<pdfrwt beam="1">  1        1 0.19321163E+00 0.12670763E+03</pdfrwt>
<pdfrwt beam="2">  1       -1 0.25583933E-02 0.12670763E+03</pdfrwt>
<totfact> 0.48879493E+03</totfact>
</mgrwt>
</event>
<event>
 6    1  0.1535419E-002  0.8506571E+02  0.7546771E-02  0.1442855E+00
          2   -1    0    0  501    0  0.00000000000E+00  0.00000000000E+00  0.83627284611E+03  0.83627284611E+03  0.00000000000E+00 0. -1.
         -2   -1    0    0    0  501 -0.00000000000E+00 -0.00000000000E+00 -0.28371536393E+01  0.28371536393E+01  0.00000000000E+00 0.  1.
         23    2    1    2    0    0  0.10358531249E+02  0.19234173448E+01  0.78153020759E+03  0.78614606801E+03  0.84410758664E+02 0.  0.
         13    1    3    3    0    0 -0.19507904289E+02  0.30047014964E+02  0.20095036383E+03  0.20411866686E+03  0.00000000000E+00 0.  1.
        -13    1    3    3    0    0  0.29866435537E+02 -0.28123597619E+02  0.58057984376E+03  0.58202740115E+03  0.00000000000E+00 0. -1.
         22    1    1    2    0    0 -0.10358531249E+02 -0.19234173448E+01  0.51905484887E+02  0.52963931740E+02  0.00000000000E+00 0.  1.
<mgrwt>
<rscale>  0 0.50463879E+02</rscale>
<asrwt>0</asrwt>
<pdfrwt beam="1">  1        2 0.12865716E+00 0.85065709E+02</pdfrwt>
<pdfrwt beam="2">  1       -2 0.43648584E-03 0.85065709E+02</pdfrwt>
<totfact> 0.20184008E+05</totfact>
</mgrwt>
</event>
<event>
 6    1  0.1535419E-002  0.1233774E+03  0.7546771E-02  0.1257184E+00
         -1   -1    0    0    0  501 -0.00000000000E+00  0.00000000000E+00  0.22490466178E+02  0.22490466178E+02  0.00000000000E+00 0.  1.
          1   -1    0    0  501    0  0.00000000000E+00 -0.00000000000E+00 -0.54127928094E+03  0.54127928094E+03  0.00000000000E+00 0. -1.
         23    2    1    2    0    0  0.66117342788E+02  0.50724170587E+02 -0.40051104581E+03  0.41908362087E+03  0.90980981368E+02 0.  0.
         11    1    3    3    0    0  0.28545082782E+02  0.69571178898E+02 -0.18851100664E+03  0.20295657247E+03  0.00000000000E+00 0.  1.
        -11    1    3    3    0    0  0.37572260006E+02 -0.18847008311E+02 -0.21200003917E+03  0.21612704840E+03  0.00000000000E+00 0. -1.
         22    1    1    2    0    0 -0.66117342788E+02 -0.50724170587E+02 -0.11827776896E+03  0.14468612625E+03  0.00000000000E+00 0.  1.
<mgrwt>
<rscale>  0 0.11184882E+03</rscale>
<asrwt>0</asrwt>
<pdfrwt beam="1">  1        1 0.83273735E-01 0.12337740E+03</pdfrwt>
<pdfrwt beam="2">  1       -1 0.34600717E-02 0.12337740E+03</pdfrwt>
<totfact> 0.11688574E+04</totfact>
</mgrwt>
</event>
<event>
 6    1  0.1535419E-002  0.8999995E+02  0.7546771E-02  0.1425551E+00
         -2   -1    0    0    0  501 -0.00000000000E+00  0.00000000000E+00  0.51690611090E+01  0.51690611090E+01  0.00000000000E+00 0.  1.
          2   -1    0    0  501    0  0.00000000000E+00 -0.00000000000E+00 -0.49915366383E+03  0.49915366383E+03  0.00000000000E+00 0. -1.
         23    2    1    2    0    0 -0.87682614414E+01  0.75127414910E+01 -0.44236075536E+03  0.45142333638E+03  0.89256187761E+02 0.  0.
         11    1    3    3    0    0  0.17650929450E+02 -0.15740834544E+02 -0.33258868454E+02  0.40810311362E+02  0.00000000000E+00 0.  1.
        -11    1    3    3    0    0 -0.26419190891E+02  0.23253576035E+02 -0.40910188691E+03  0.41061302502E+03  0.00000000000E+00 0. -1.
         22    1    1    2    0    0  0.87682614414E+01 -0.75127414910E+01 -0.51623847358E+02  0.52899388555E+02  0.00000000000E+00 0.  1.
<mgrwt>
<rscale>  0 0.53863567E+02</rscale>
<asrwt>0</asrwt>
<pdfrwt beam="1">  1        2 0.76792852E-01 0.89999949E+02</pdfrwt>
<pdfrwt beam="2">  1       -2 0.79524037E-03 0.89999949E+02</pdfrwt>
<totfact> 0.15850096E+05</totfact>
</mgrwt>
</event>
<event>
 6    1  0.1535419E-002  0.1111397E+03  0.7546771E-02  0.1287739E+00
          2   -1    0    0  501    0  0.00000000000E+00  0.00000000000E+00  0.36606751438E+03  0.36606751438E+03  0.00000000000E+00 0.  1.
         -2   -1    0    0    0  501 -0.00000000000E+00 -0.00000000000E+00 -0.21891449954E+02  0.21891449954E+02  0.00000000000E+00 0. -1.
         23    2    1    2    0    0 -0.63238504744E+02 -0.22973759602E+01  0.25908793248E+03  0.28191945936E+03  0.91365411320E+02 0.  0.
         11    1    3    3    0    0 -0.48338868324E+02 -0.60544282383E+01  0.26181887385E+03  0.26631264520E+03  0.00000000000E+00 0.  1.
        -11    1    3    3    0    0 -0.14899636420E+02  0.37570522781E+01 -0.27309413631E+01  0.15606814153E+02  0.00000000000E+00 0. -1.
         22    1    1    2    0    0  0.63238504744E+02  0.22973759602E+01  0.85088131939E+02  0.10603950498E+03  0.00000000000E+00 0. -1.
<mgrwt>
<rscale>  0 0.96542559E+02</rscale>
<asrwt>0</asrwt>
<pdfrwt beam="1">  1        2 0.56318075E-01 0.11113966E+03</pdfrwt>
<pdfrwt beam="2">  1       -2 0.33679156E-02 0.11113966E+03</pdfrwt>
<totfact> 0.28569819E+04</totfact>
</mgrwt>
</event>
<event>
 6    1  0.1535419E-002  0.9333889E+02  0.7546771E-02  0.1405586E+00
          1   -1    0    0  501    0  0.00000000000E+00  0.00000000000E+00  0.15291005186E+03  0.15291005186E+03  0.00000000000E+00 0. -1.
         -1   -1    0    0    0  501 -0.00000000000E+00 -0.00000000000E+00 -0.19254824370E+02  0.19254824370E+02  0.00000000000E+00 0.  1.
         23    2    1    2    0    0  0.13237103459E+02  0.48567832884E+01  0.12342506915E+03  0.15474461815E+03  0.92267761978E+02 0.  0.
         11    1    3    3    0    0  0.34415607394E+02  0.37415610182E+02  0.48052227159E+02  0.69952687243E+02  0.00000000000E+00 0.  1.
        -11    1    3    3    0    0 -0.21178503935E+02 -0.32558826893E+02  0.75372841987E+02  0.84791930906E+02  0.00000000000E+00 0. -1.
         22    1    1    2    0    0 -0.13237103459E+02 -0.48567832884E+01  0.10230158346E+02  0.17420258083E+02  0.00000000000E+00 0. -1.
<mgrwt>
<rscale>  0 0.58190429E+02</rscale>
<asrwt>0</asrwt>
<pdfrwt beam="1">  1        1 0.23524623E-01 0.93338894E+02</pdfrwt>
<pdfrwt beam="2">  1       -1 0.29622808E-02 0.93338894E+02</pdfrwt>
<totfact> 0.68521818E+04</totfact>
</mgrwt>
</event>
<event>
 6    1  0.1535419E-002  0.9383302E+02  0.7546771E-02  0.1414450E+00
          2   -1    0    0  501    0  0.00000000000E+00  0.00000000000E+00  0.12605898158E+04  0.12605898158E+04  0.00000000000E+00 0. -1.
         -2   -1    0    0    0  501 -0.00000000000E+00 -0.00000000000E+00 -0.30793519655E+01  0.30793519655E+01  0.00000000000E+00 0.  1.
         23    2    1    2    0    0 -0.97465085290E+01  0.71460910404E+01  0.12305675291E+04  0.12341398133E+04  0.93051458503E+02 0.  0.
         13    1    3    3    0    0 -0.28336449531E+02 -0.22730955474E+02  0.10204315655E+04  0.10210779748E+04  0.00000000000E+00 0. -1.
        -13    1    3    3    0    0  0.18589941002E+02  0.29877046514E+02  0.21013596356E+03  0.21306183843E+03  0.00000000000E+00 0.  1.
         22    1    1    2    0    0  0.97465085290E+01 -0.71460910404E+01  0.26942934679E+02  0.29529354459E+02  0.00000000000E+00 0. -1.
<mgrwt>
<rscale>  0 0.56212585E+02</rscale>
<asrwt>0</asrwt>
<pdfrwt beam="1">  1        2 0.19393648E+00 0.93833016E+02</pdfrwt>
<pdfrwt beam="2">  1       -2 0.47374746E-03 0.93833016E+02</pdfrwt>
<totfact> 0.10370104E+05</totfact>
</mgrwt>
</event>
<event>
 6    1  0.1535419E-002  0.1089640E+03  0.7546771E-02  0.1396237E+00
          2   -1    0    0  501    0  0.00000000000E+00  0.00000000000E+00  0.68017669560E+03  0.68017669560E+03  0.00000000000E+00 0. -1.
         -2   -1    0    0    0  501 -0.00000000000E+00 -0.00000000000E+00 -0.53443249167E+01  0.53443249167E+01  0.00000000000E+00 0.  1.
         23    2    1    2    0    0  0.52673127278E+01 -0.88219272692E+01  0.63981875570E+03  0.64903096409E+03  0.10847848272E+03 0.  0.
         11    1    3    3    0    0 -0.19274907277E+02  0.32598042415E+02  0.49442641057E+03  0.49587461106E+03  0.00000000000E+00 0. -1.
        -11    1    3    3    0    0  0.24542220005E+02 -0.41419969684E+02  0.14539234513E+03  0.15315635303E+03  0.00000000000E+00 0.  1.
         22    1    1    2    0    0 -0.52673127278E+01  0.88219272692E+01  0.35013614986E+02  0.36490056433E+02  0.00000000000E+00 0. -1.
<mgrwt>
<rscale>  0 0.60381700E+02</rscale>
<asrwt>0</asrwt>
<pdfrwt beam="1">  1        2 0.10464250E+00 0.10896399E+03</pdfrwt>
<pdfrwt beam="2">  1       -2 0.82220437E-03 0.10896399E+03</pdfrwt>
<totfact> 0.10999863E+05</totfact>
</mgrwt>
</event>
<event>
 6    1  0.1535419E-002  0.1352061E+03  0.7546771E-02  0.1275088E+00
         -2   -1    0    0    0  501 -0.00000000000E+00  0.00000000000E+00  0.49213517738E+03  0.49213517738E+03  0.00000000000E+00 0. -1.
          2   -1    0    0  501    0  0.00000000000E+00 -0.00000000000E+00 -0.16849743227E+02  0.16849743227E+02  0.00000000000E+00 0.  1.
         23    2    1    2    0    0 -0.44620643721E+02 -0.24913620071E+01  0.31986578091E+03  0.34726764464E+03  0.12760678073E+03 0.  0.
         11    1    3    3    0    0 -0.82493986062E+01 -0.44360248574E+02  0.26653033974E+03  0.27032259660E+03  0.00000000000E+00 0. -1.
        -11    1    3    3    0    0 -0.36371245114E+02  0.41868886566E+02  0.53335441169E+02  0.76945048042E+02  0.00000000000E+00 0.  1.
         22    1    1    2    0    0  0.44620643721E+02  0.24913620071E+01  0.15541965324E+03  0.16171727596E+03  0.00000000000E+00 0. -1.
<mgrwt>
<rscale>  0 0.10251803E+03</rscale>
<asrwt>0</asrwt>
<pdfrwt beam="1">  1        2 0.25922686E-02 0.13520614E+03</pdfrwt>
<pdfrwt beam="2">  1       -2 0.75713093E-01 0.13520614E+03</pdfrwt>
<totfact> 0.58087894E+03</totfact>
</mgrwt>
</event>
<event>
 6    1  0.1535419E-002  0.9672402E+02  0.7546771E-02  0.1392731E+00
          2   -1    0    0  501    0  0.00000000000E+00  0.00000000000E+00  0.67387908304E+03  0.67387908304E+03  0.00000000000E+00 0. -1.
         -2   -1    0    0    0  501 -0.00000000000E+00 -0.00000000000E+00 -0.57773179595E+01  0.57773179595E+01  0.00000000000E+00 0.  1.
         23    2    1    2    0    0  0.10502750634E+02 -0.11447383847E+02  0.64227421231E+03  0.64951651298E+03  0.95468248469E+02 0.  0.
         13    1    3    3    0    0 -0.16434870143E+02  0.51701910988E+01  0.19834007782E+02  0.26272108734E+02  0.00000000000E+00 0.  1.
        -13    1    3    3    0    0  0.26937620777E+02 -0.16617574946E+02  0.62244020453E+03  0.62324440424E+03  0.00000000000E+00 0. -1.
         22    1    1    2    0    0 -0.10502750634E+02  0.11447383847E+02  0.25827552775E+02  0.30139888025E+02  0.00000000000E+00 0.  1.
<mgrwt>
<rscale>  0 0.61232468E+02</rscale>
<asrwt>0</asrwt>
<pdfrwt beam="1">  1        2 0.10367364E+00 0.96724024E+02</pdfrwt>
<pdfrwt beam="2">  1       -2 0.88881868E-03 0.96724024E+02</pdfrwt>
<totfact> 0.97986850E+04</totfact>
</mgrwt>
</event>
<event>
 6    1  0.1535419E-002  0.9501331E+02  0.7546771E-02  0.1370109E+00
          2   -1    0    0  501    0  0.00000000000E+00  0.00000000000E+00  0.24531577338E+02  0.24531577338E+02  0.00000000000E+00 0. -1.
         -2   -1    0    0    0  501 -0.00000000000E+00 -0.00000000000E+00 -0.18619120701E+03  0.18619120701E+03  0.00000000000E+00 0.  1.
         23    2    1    2    0    0  0.19500943294E+02 -0.13443640620E+02 -0.75474590910E+02  0.12134225420E+03  0.92013643118E+02 0.  0.
         13    1    3    3    0    0  0.37631551195E+02  0.29009390780E+02 -0.48403511463E+02  0.67827563134E+02  0.00000000000E+00 0. -1.
        -13    1    3    3    0    0 -0.18130607901E+02 -0.42453031400E+02 -0.27071079447E+02  0.53514691070E+02  0.00000000000E+00 0.  1.
         22    1    1    2    0    0 -0.19500943294E+02  0.13443640620E+02 -0.86185038757E+02  0.89380530139E+02  0.00000000000E+00 0. -1.
<mgrwt>
<rscale>  0 0.67136772E+02</rscale>
<asrwt>0</asrwt>
<pdfrwt beam="1">  1        2 0.37740888E-02 0.95013308E+02</pdfrwt>
<pdfrwt beam="2">  1       -2 0.28644801E-01 0.95013308E+02</pdfrwt>
<totfact> 0.22548877E+04</totfact>
</mgrwt>
</event>
<event>
 6    1  0.1535419E-002  0.1123591E+03  0.7546771E-02  0.1380738E+00
          2   -1    0    0  501    0  0.00000000000E+00  0.00000000000E+00  0.15338409074E+03  0.15338409074E+03  0.00000000000E+00 0. -1.
         -2   -1    0    0    0  501 -0.00000000000E+00 -0.00000000000E+00 -0.34350023308E+02  0.34350023308E+02  0.00000000000E+00 0.  1.
         23    2    1    2    0    0 -0.97895973148E+01 -0.69892877748E+01  0.12974050382E+03  0.17163088023E+03  0.11171335801E+03 0.  0.
         13    1    3    3    0    0  0.23325606607E+02  0.19859005767E+02  0.12504350614E+03  0.12874137820E+03  0.00000000000E+00 0. -1.
        -13    1    3    3    0    0 -0.33115203922E+02 -0.26848293542E+02  0.46969976747E+01  0.42889502026E+02  0.00000000000E+00 0.  1.
         22    1    1    2    0    0  0.97895973148E+01  0.69892877748E+01 -0.10706436387E+02  0.16103233815E+02  0.00000000000E+00 0.  1.
<mgrwt>
<rscale>  0 0.64270185E+02</rscale>
<asrwt>0</asrwt>
<pdfrwt beam="1">  1        2 0.23597552E-01 0.11235907E+03</pdfrwt>
<pdfrwt beam="2">  1       -2 0.52846190E-02 0.11235907E+03</pdfrwt>
<totfact> 0.37126443E+04</totfact>
</mgrwt>
</event>
<event>
 6    1  0.1535419E-002  0.9451992E+02  0.7546771E-02  0.1405087E+00
         -2   -1    0    0    0  501 -0.00000000000E+00  0.00000000000E+00  0.24598246737E+01  0.24598246737E+01  0.00000000000E+00 0.  1.
          2   -1    0    0  501    0  0.00000000000E+00 -0.00000000000E+00 -0.14550090350E+04  0.14550090350E+04  0.00000000000E+00 0. -1.
         23    2    1    2    0    0 -0.13438882179E+02 -0.25838992854E+01 -0.13993191090E+04  0.14025077482E+04  0.93523979796E+02 0.  0.
         13    1    3    3    0    0  0.22790507491E+02  0.27849837944E+02 -0.95471921253E+03  0.95539719252E+03  0.00000000000E+00 0. -1.
        -13    1    3    3    0    0 -0.36229389670E+02 -0.30433737230E+02 -0.44459989645E+03  0.44711055564E+03  0.00000000000E+00 0.  1.
         22    1    1    2    0    0  0.13438882179E+02  0.25838992854E+01 -0.53230101354E+02  0.54961111524E+02  0.00000000000E+00 0.  1.
<mgrwt>
<rscale>  0 0.58304752E+02</rscale>
<asrwt>0</asrwt>
<pdfrwt beam="1">  1        2 0.22384730E+00 0.94519918E+02</pdfrwt>
<pdfrwt beam="2">  1       -2 0.37843498E-03 0.94519918E+02</pdfrwt>
<totfact> 0.11242081E+05</totfact>
</mgrwt>
</event>
<event>
 6    1  0.1535419E-002  0.9541840E+02  0.7546771E-02  0.1374843E+00
          1   -1    0    0  501    0  0.00000000000E+00  0.00000000000E+00  0.15448533811E+02  0.15448533811E+02  0.00000000000E+00 0. -1.
         -1   -1    0    0    0  501 -0.00000000000E+00 -0.00000000000E+00 -0.26630527004E+03  0.26630527004E+03  0.00000000000E+00 0.  1.
         23    2    1    2    0    0  0.15747761948E+02 -0.14826256132E+02 -0.14409863475E+03  0.17282675437E+03  0.92934711555E+02 0.  0.
         11    1    3    3    0    0  0.51580089885E+02 -0.22273983513E+02 -0.10617255800E+03  0.12012180520E+03  0.00000000000E+00 0. -1.
        -11    1    3    3    0    0 -0.35832327937E+02  0.74477273811E+01 -0.37926076751E+02  0.52704949163E+02  0.00000000000E+00 0.  1.
         22    1    1    2    0    0 -0.15747761948E+02  0.14826256132E+02 -0.10675810148E+03  0.10892704949E+03  0.00000000000E+00 0.  1.
<mgrwt>
<rscale>  0 0.65838929E+02</rscale>
<asrwt>0</asrwt>
<pdfrwt beam="1">  1        1 0.23766976E-02 0.95418397E+02</pdfrwt>
<pdfrwt beam="2">  1       -1 0.40970039E-01 0.95418397E+02</pdfrwt>
<totfact> 0.24823472E+04</totfact>
</mgrwt>
</event>
<event>
 6    1  0.1535419E-002  0.9384960E+02  0.7546771E-02  0.1367289E+00
          1   -1    0    0  501    0  0.00000000000E+00  0.00000000000E+00  0.58047578347E+02  0.58047578347E+02  0.00000000000E+00 0. -1.
         -1   -1    0    0    0  501 -0.00000000000E+00 -0.00000000000E+00 -0.62117889594E+02  0.62117889594E+02  0.00000000000E+00 0.  1.
         23    2    1    2    0    0 -0.25714675509E+02 -0.14452234172E+01 -0.76580603761E+01  0.94161523028E+02  0.90246403380E+02 0.  0.
         11    1    3    3    0    0  0.33941199127E+02  0.19752929771E+01 -0.72029748146E+00  0.34006258380E+02  0.00000000000E+00 0. -1.
        -11    1    3    3    0    0 -0.59655874636E+02 -0.34205163943E+01 -0.69377628946E+01  0.60155264649E+02  0.00000000000E+00 0.  1.
         22    1    1    2    0    0  0.25714675509E+02  0.14452234172E+01  0.35877491292E+01  0.26003944913E+02  0.00000000000E+00 0.  1.
<mgrwt>
<rscale>  0 0.67926740E+02</rscale>
<asrwt>0</asrwt>
<pdfrwt beam="1">  1        1 0.89303967E-02 0.93849595E+02</pdfrwt>
<pdfrwt beam="2">  1       -1 0.95565984E-02 0.93849595E+02</pdfrwt>
<totfact> 0.42443838E+04</totfact>
</mgrwt>
</event>
<event>
 6    1  0.1535419E-002  0.9380314E+02  0.7546771E-02  0.1397315E+00
         -2   -1    0    0    0  501 -0.00000000000E+00  0.00000000000E+00  0.10407575353E+03  0.10407575353E+03  0.00000000000E+00 0.  1.
          2   -1    0    0  501    0  0.00000000000E+00 -0.00000000000E+00 -0.30687802259E+02  0.30687802259E+02  0.00000000000E+00 0. -1.
         23    2    1    2    0    0 -0.70424019161E+01 -0.14178862968E+02  0.73111116910E+02  0.11892966122E+03  0.92457521720E+02 0.  0.
         13    1    3    3    0    0  0.88827692371E+01  0.71783456543E+01 -0.19480579274E+02  0.22581523520E+02  0.00000000000E+00 0. -1.
        -13    1    3    3    0    0 -0.15925171153E+02 -0.21357208623E+02  0.92591696183E+02  0.96348137701E+02  0.00000000000E+00 0.  1.
         22    1    1    2    0    0  0.70424019161E+01  0.14178862968E+02  0.27683435933E+00  0.15833894565E+02  0.00000000000E+00 0. -1.
<mgrwt>
<rscale>  0 0.60123377E+02</rscale>
<asrwt>0</asrwt>
<pdfrwt beam="1">  1        2 0.47212004E-02 0.93803139E+02</pdfrwt>
<pdfrwt beam="2">  1       -2 0.16011654E-01 0.93803139E+02</pdfrwt>
<totfact> 0.45059470E+04</totfact>
</mgrwt>
</event>
<event>
 6    1  0.1535419E-002  0.1190146E+03  0.7546771E-02  0.1336178E+00
         -2   -1    0    0    0  501 -0.00000000000E+00  0.00000000000E+00  0.33361470951E+02  0.33361470951E+02  0.00000000000E+00 0.  1.
          2   -1    0    0  501    0  0.00000000000E+00 -0.00000000000E+00 -0.14223318804E+04  0.14223318804E+04  0.00000000000E+00 0. -1.
         23    2    1    2    0    0  0.19097829823E+02  0.97551298345E+01 -0.14161107079E+04  0.14211031004E+04  0.11706662859E+03 0.  0.
         13    1    3    3    0    0 -0.27127988002E+02 -0.41735289108E+02 -0.57405600491E+03  0.57621008223E+03  0.00000000000E+00 0. -1.
        -13    1    3    3    0    0  0.46225817825E+02  0.51490418943E+02 -0.84205470295E+03  0.84489301822E+03  0.00000000000E+00 0.  1.
         22    1    1    2    0    0 -0.19097829823E+02 -0.97551298345E+01  0.27140298391E+02  0.34590250921E+02  0.00000000000E+00 0.  1.
<mgrwt>
<rscale>  0 0.77541108E+02</rscale>
<asrwt>0</asrwt>
<pdfrwt beam="1">  1        2 0.21882031E+00 0.11901464E+03</pdfrwt>
<pdfrwt beam="2">  1       -2 0.51325336E-02 0.11901464E+03</pdfrwt>
<totfact> 0.28076384E+03</totfact>
</mgrwt>
</event>
<event>
 6    1  0.1535419E-002  0.9275978E+02  0.7546771E-02  0.1334174E+00
         -2   -1    0    0    0  501 -0.00000000000E+00  0.00000000000E+00  0.56667943807E+02  0.56667943807E+02  0.00000000000E+00 0.  1.
          2   -1    0    0  501    0  0.00000000000E+00 -0.00000000000E+00 -0.86073576719E+02  0.86073576719E+02  0.00000000000E+00 0. -1.
         23    2    1    2    0    0 -0.37232830156E+02 -0.28530932037E+02 -0.18619617632E+02  0.94610077062E+02  0.80025488418E+02 0.  0.
         11    1    3    3    0    0 -0.22987579938E+02 -0.17505130245E+02 -0.50391091302E+02  0.58087180160E+02  0.00000000000E+00 0. -1.
        -11    1    3    3    0    0 -0.14245250219E+02 -0.11025801792E+02  0.31771473670E+02  0.36522896902E+02  0.00000000000E+00 0.  1.
         22    1    1    2    0    0  0.37232830156E+02  0.28530932037E+02 -0.10786015280E+02  0.48131443465E+02  0.00000000000E+00 0.  1.
<mgrwt>
<rscale>  0 0.78222188E+02</rscale>
<asrwt>0</asrwt>
<pdfrwt beam="1">  1        2 0.13242089E-01 0.92759779E+02</pdfrwt>
<pdfrwt beam="2">  1       -2 0.87181452E-02 0.92759779E+02</pdfrwt>
<totfact> 0.32754345E+04</totfact>
</mgrwt>
</event>
<event>
 6    1  0.1535419E-002  0.9714988E+02  0.7546771E-02  0.1384682E+00
         -2   -1    0    0    0  501 -0.00000000000E+00  0.00000000000E+00  0.70107243894E+02  0.70107243894E+02  0.00000000000E+00 0.  1.
          2   -1    0    0  501    0  0.00000000000E+00 -0.00000000000E+00 -0.48358065377E+02  0.48358065377E+02  0.00000000000E+00 0. -1.
         23    2    1    2    0    0 -0.17449335565E+02  0.38254175334E+00  0.10534535368E+02  0.97719373022E+02  0.95569209365E+02 0.  0.
         13    1    3    3    0    0 -0.49986406188E+02 -0.12987116849E+02 -0.15539130160E+02  0.53933019327E+02  0.00000000000E+00 0. -1.
        -13    1    3    3    0    0  0.32537070622E+02  0.13369658603E+02  0.26073665528E+02  0.43786353695E+02  0.00000000000E+00 0.  1.
         22    1    1    2    0    0  0.17449335565E+02 -0.38254175334E+00  0.11214643149E+02  0.20745936248E+02  0.00000000000E+00 0. -1.
<mgrwt>
<rscale>  0 0.63248833E+02</rscale>
<asrwt>0</asrwt>
<pdfrwt beam="1">  1        2 0.74397024E-02 0.97149881E+02</pdfrwt>
<pdfrwt beam="2">  1       -2 0.10785730E-01 0.97149881E+02</pdfrwt>
<totfact> 0.47677385E+04</totfact>
</mgrwt>
</event>
<event>
 6    1  0.1535419E-002  0.9263432E+02  0.7546771E-02  0.1381529E+00
          1   -1    0    0  501    0  0.00000000000E+00  0.00000000000E+00  0.31001488135E+03  0.31001488135E+03  0.00000000000E+00 0. -1.
         -1   -1    0    0    0  501 -0.00000000000E+00 -0.00000000000E+00 -0.52173948532E+02  0.52173948532E+02  0.00000000000E+00 0.  1.
         23    2    1    2    0    0 -0.91309269648E+01 -0.19121841782E+02  0.30055545972E+03  0.31450707793E+03  0.90178151674E+02 0.  0.
         13    1    3    3    0    0  0.39933004849E+02 -0.67558980614E+00  0.14217324055E+03  0.14767644235E+03  0.00000000000E+00 0.  1.
        -13    1    3    3    0    0 -0.49063931814E+02 -0.18446251976E+02  0.15838221918E+03  0.16683063558E+03  0.00000000000E+00 0. -1.
         22    1    1    2    0    0  0.91309269648E+01  0.19121841782E+02 -0.42714526905E+02  0.47681751951E+02  0.00000000000E+00 0.  1.
<mgrwt>
<rscale>  0 0.64063697E+02</rscale>
<asrwt>0</asrwt>
<pdfrwt beam="1">  1        1 0.47694596E-01 0.92634322E+02</pdfrwt>
<pdfrwt beam="2">  1       -1 0.80267615E-02 0.92634322E+02</pdfrwt>
<totfact> 0.66796958E+03</totfact>
</mgrwt>
</event>
<event>
 6    1  0.1535419E-002  0.1078894E+03  0.7546771E-02  0.1300855E+00
          2   -1    0    0  501    0  0.00000000000E+00  0.00000000000E+00  0.11321047385E+04  0.11321047385E+04  0.00000000000E+00 0. -1.
         -2   -1    0    0    0  501 -0.00000000000E+00 -0.00000000000E+00 -0.84968367305E+01  0.84968367305E+01  0.00000000000E+00 0.  1.
         23    2    1    2    0    0  0.12122581229E+02 -0.52823956846E+02  0.99780521791E+03  0.10036211290E+04  0.93288746505E+02 0.  0.
         11    1    3    3    0    0  0.44874225023E+02 -0.43848831496E+02  0.83266588510E+03  0.83502628241E+03  0.00000000000E+00 0. -1.
        -11    1    3    3    0    0 -0.32751643794E+02 -0.89751253500E+01  0.16513933280E+03  0.16859484655E+03  0.00000000000E+00 0.  1.
         22    1    1    2    0    0 -0.12122581229E+02  0.52823956846E+02  0.12580268384E+03  0.13698044625E+03  0.00000000000E+00 0.  1.
<mgrwt>
<rscale>  0 0.90829737E+02</rscale>
<asrwt>0</asrwt>
<pdfrwt beam="1">  1        2 0.17416984E+00 0.10788938E+03</pdfrwt>
<pdfrwt beam="2">  1       -2 0.13072065E-02 0.10788938E+03</pdfrwt>
<totfact> 0.29434589E+04</totfact>
</mgrwt>
</event>
<event>
 6    1  0.1535419E-002  0.9087353E+02  0.7546771E-02  0.1414332E+00
         -2   -1    0    0    0  501 -0.00000000000E+00  0.00000000000E+00  0.39910059901E+01  0.39910059901E+01  0.00000000000E+00 0.  1.
          2   -1    0    0  501    0  0.00000000000E+00 -0.00000000000E+00 -0.18628410447E+04  0.18628410447E+04  0.00000000000E+00 0. -1.
         23    2    1    2    0    0  0.69256681478E+01 -0.11389080685E+02 -0.18462652508E+04  0.18485003043E+04  0.89890615392E+02 0.  0.
         11    1    3    3    0    0  0.29930072912E+02  0.23905638540E+02 -0.45903282578E+03  0.46062829262E+03  0.00000000000E+00 0.  1.
        -11    1    3    3    0    0 -0.23004404764E+02 -0.35294719225E+02 -0.13872324250E+04  0.13878720117E+04  0.00000000000E+00 0. -1.
         22    1    1    2    0    0 -0.69256681478E+01  0.11389080685E+02 -0.12584787914E+02  0.18331746370E+02  0.00000000000E+00 0.  1.
<mgrwt>
<rscale>  0 0.56238233E+02</rscale>
<asrwt>0</asrwt>
<pdfrwt beam="1">  1        2 0.28659144E+00 0.90873532E+02</pdfrwt>
<pdfrwt beam="2">  1       -2 0.61399983E-03 0.90873532E+02</pdfrwt>
<totfact> 0.35352781E+04</totfact>
</mgrwt>
</event>
<event>
 6    1  0.1535419E-002  0.8067030E+02  0.7546771E-02  0.1450797E+00
         -4   -1    0    0    0  501 -0.00000000000E+00  0.00000000000E+00  0.73626694836E+02  0.73626694836E+02  0.00000000000E+00 0.  1.
          4   -1    0    0  501    0  0.00000000000E+00 -0.00000000000E+00 -0.34161682058E+02  0.34161682058E+02  0.00000000000E+00 0. -1.
         23    2    1    2    0    0  0.61363387352E+01  0.91092140898E+01  0.16511945561E+02  0.82342832508E+02  0.79919117143E+02 0.  0.
         11    1    3    3    0    0 -0.27681041623E+02 -0.69842813025E+01  0.31039914904E+02  0.42172225076E+02  0.00000000000E+00 0.  1.
        -11    1    3    3    0    0  0.33817380358E+02  0.16093495392E+02 -0.14527969343E+02  0.40170607432E+02  0.00000000000E+00 0. -1.
         22    1    1    2    0    0 -0.61363387352E+01 -0.91092140898E+01  0.22953067217E+02  0.25445544385E+02  0.00000000000E+00 0. -1.
<mgrwt>
<rscale>  0 0.49002504E+02</rscale>
<asrwt>0</asrwt>
<pdfrwt beam="1">  1        4 0.52556434E-02 0.80670303E+02</pdfrwt>
<pdfrwt beam="2">  1       -4 0.11327184E-01 0.80670303E+02</pdfrwt>
<totfact> 0.18695033E+04</totfact>
</mgrwt>
</event>
<event>
 6    1  0.1535419E-002  0.9497655E+02  0.7546771E-02  0.1396614E+00
         -1   -1    0    0    0  501 -0.00000000000E+00  0.00000000000E+00  0.78733803733E+01  0.78733803733E+01  0.00000000000E+00 0.  1.
          1   -1    0    0  501    0  0.00000000000E+00 -0.00000000000E+00 -0.41822208727E+03  0.41822208727E+03  0.00000000000E+00 0. -1.
         23    2    1    2    0    0  0.66100514898E+01 -0.13934605242E+02 -0.38394099232E+03  0.39551388179E+03  0.93715949036E+02 0.  0.
         11    1    3    3    0    0  0.16390661809E+02 -0.42523999910E+02 -0.33435652959E+03  0.33744811933E+03  0.00000000000E+00 0. -1.
        -11    1    3    3    0    0 -0.97806103190E+01  0.28589394668E+02 -0.49584462729E+02  0.58065762458E+02  0.00000000000E+00 0.  1.
         22    1    1    2    0    0 -0.66100514898E+01  0.13934605242E+02 -0.26407714579E+02  0.30581585852E+02  0.00000000000E+00 0.  1.
<mgrwt>
<rscale>  0 0.60291188E+02</rscale>
<asrwt>0</asrwt>
<pdfrwt beam="1">  1        1 0.64341883E-01 0.94976550E+02</pdfrwt>
<pdfrwt beam="2">  1       -1 0.12112888E-02 0.94976550E+02</pdfrwt>
<totfact> 0.71403740E+04</totfact>
</mgrwt>
</event>
<event>
 6    1  0.1535419E-002  0.9149310E+02  0.7546771E-02  0.1421524E+00
          4   -1    0    0  501    0  0.00000000000E+00  0.00000000000E+00  0.20705910242E+03  0.20705910242E+03  0.00000000000E+00 0. -1.
         -4   -1    0    0    0  501 -0.00000000000E+00 -0.00000000000E+00 -0.14339425959E+02  0.14339425959E+02  0.00000000000E+00 0.  1.
         23    2    1    2    0    0 -0.10834056690E+02  0.43883182807E+01  0.18742872993E+03  0.20856777482E+03  0.90743340088E+02 0.  0.
         11    1    3    3    0    0  0.23060474628E+02  0.37236589693E+02  0.79434198185E+02  0.90709100664E+02  0.00000000000E+00 0. -1.
        -11    1    3    3    0    0 -0.33894531318E+02 -0.32848271412E+02  0.10799453174E+03  0.11785867416E+03  0.00000000000E+00 0.  1.
         22    1    1    2    0    0  0.10834056690E+02 -0.43883182807E+01  0.52909465384E+01  0.12830753562E+02  0.00000000000E+00 0.  1.
<mgrwt>
<rscale>  0 0.54699854E+02</rscale>
<asrwt>0</asrwt>
<pdfrwt beam="1">  1        4 0.31855244E-01 0.91493103E+02</pdfrwt>
<pdfrwt beam="2">  1       -4 0.22060657E-02 0.91493103E+02</pdfrwt>
<totfact> 0.12031858E+04</totfact>
</mgrwt>
</event>
<event>
 6    1  0.1535419E-002  0.8566717E+02  0.7546771E-02  0.1434120E+00
         -2   -1    0    0    0  501 -0.00000000000E+00  0.00000000000E+00  0.43929436202E+02  0.43929436202E+02  0.00000000000E+00 0.  1.
          2   -1    0    0  501    0  0.00000000000E+00 -0.00000000000E+00 -0.54790902120E+02  0.54790902120E+02  0.00000000000E+00 0. -1.
         23    2    1    2    0    0 -0.91436293607E+01  0.73907803592E+01 -0.13354481144E+02  0.86701822727E+02  0.84856551340E+02 0.  0.
         13    1    3    3    0    0 -0.83745498039E+01 -0.29407997739E+02  0.20402568250E+02  0.36759056117E+02  0.00000000000E+00 0.  1.
        -13    1    3    3    0    0 -0.76907955684E+00  0.36798778098E+02 -0.33757049394E+02  0.49942766610E+02  0.00000000000E+00 0. -1.
         22    1    1    2    0    0  0.91436293607E+01 -0.73907803592E+01  0.24930152255E+01  0.12018515595E+02  0.00000000000E+00 0.  1.
<mgrwt>
<rscale>  0 0.52141791E+02</rscale>
<asrwt>0</asrwt>
<pdfrwt beam="1">  1        2 0.84293696E-02 0.85667169E+02</pdfrwt>
<pdfrwt beam="2">  1       -2 0.67583748E-02 0.85667169E+02</pdfrwt>
<totfact> 0.82206464E+04</totfact>
</mgrwt>
</event>
<event>
 6    1  0.1535419E-002  0.9372579E+02  0.7546771E-02  0.1389638E+00
         -4   -1    0    0    0  501 -0.00000000000E+00  0.00000000000E+00  0.17784299965E+03  0.17784299965E+03  0.00000000000E+00 0.  1.
          4   -1    0    0  501    0  0.00000000000E+00 -0.00000000000E+00 -0.19163624773E+02  0.19163624773E+02  0.00000000000E+00 0. -1.
         23    2    1    2    0    0  0.24362838201E+01  0.17777045966E+02  0.10670853453E+03  0.14202547231E+03  0.91992198578E+02 0.  0.
         13    1    3    3    0    0 -0.23330517020E+00  0.24268504777E+02 -0.91628347670E+01  0.25941709589E+02  0.00000000000E+00 0. -1.
        -13    1    3    3    0    0  0.26695889903E+01 -0.64914588116E+01  0.11587136930E+03  0.11608376272E+03  0.00000000000E+00 0.  1.
         22    1    1    2    0    0 -0.24362838201E+01 -0.17777045966E+02  0.51970840344E+02  0.54981152117E+02  0.00000000000E+00 0. -1.
<mgrwt>
<rscale>  0 0.61996814E+02</rscale>
<asrwt>0</asrwt>
<pdfrwt beam="1">  1        4 0.29482501E-02 0.93725789E+02</pdfrwt>
<pdfrwt beam="2">  1       -4 0.27360460E-01 0.93725789E+02</pdfrwt>
<totfact> 0.10296175E+04</totfact>
</mgrwt>
</event>
<event>
 6    1  0.1535419E-002  0.9101362E+02  0.7546771E-02  0.1423571E+00
         -2   -1    0    0    0  501 -0.00000000000E+00  0.00000000000E+00  0.50982227200E+01  0.50982227200E+01  0.00000000000E+00 0.  1.
          2   -1    0    0  501    0  0.00000000000E+00 -0.00000000000E+00 -0.53184995905E+03  0.53184995905E+03  0.00000000000E+00 0. -1.
         23    2    1    2    0    0  0.10127646025E+02 -0.54650300893E+01 -0.49179806376E+03  0.50014879327E+03  0.90283133104E+02 0.  0.
         11    1    3    3    0    0 -0.31009650075E+01 -0.14368133670E+02 -0.48021570091E+03  0.48044060887E+03  0.00000000000E+00 0. -1.
        -11    1    3    3    0    0  0.13228611033E+02  0.89031035802E+01 -0.11582362850E+02  0.19708184402E+02  0.00000000000E+00 0.  1.
         22    1    1    2    0    0 -0.10127646025E+02  0.54650300893E+01 -0.34953672573E+02  0.36799388503E+02  0.00000000000E+00 0.  1.
<mgrwt>
<rscale>  0 0.54272580E+02</rscale>
<asrwt>0</asrwt>
<pdfrwt beam="1">  1        2 0.81823044E-01 0.91013625E+02</pdfrwt>
<pdfrwt beam="2">  1       -2 0.78434221E-03 0.91013625E+02</pdfrwt>
<totfact> 0.15112021E+05</totfact>
</mgrwt>
</event>
<event>
 6    1  0.1535419E-002  0.1252446E+03  0.7546771E-02  0.1253378E+00
          2   -1    0    0  501    0  0.00000000000E+00  0.00000000000E+00  0.60482970872E+03  0.60482970872E+03  0.00000000000E+00 0.  1.
         -2   -1    0    0    0  501 -0.00000000000E+00 -0.00000000000E+00 -0.23860080604E+02  0.23860080604E+02  0.00000000000E+00 0. -1.
         23    2    1    2    0    0 -0.85395533335E+02 -0.92818814596E+01  0.48026289062E+03  0.49632515124E+03  0.91146372465E+02 0.  0.
         11    1    3    3    0    0 -0.10305014258E+03 -0.19149627274E+02  0.39157877794E+03  0.40536400856E+03  0.00000000000E+00 0.  1.
        -11    1    3    3    0    0  0.17654609241E+02  0.98677458147E+01  0.88684112684E+02  0.90961142679E+02  0.00000000000E+00 0. -1.
         22    1    1    2    0    0  0.85395533335E+02  0.92818814596E+01  0.10070673750E+03  0.13236463808E+03  0.00000000000E+00 0. -1.
<mgrwt>
<rscale>  0 0.11397659E+03</rscale>
<asrwt>0</asrwt>
<pdfrwt beam="1">  1        2 0.93050713E-01 0.12524461E+03</pdfrwt>
<pdfrwt beam="2">  1       -2 0.36707821E-02 0.12524461E+03</pdfrwt>
<totfact> 0.14743734E+04</totfact>
</mgrwt>
</event>
<event>
 6    1  0.1535419E-002  0.9213926E+02  0.7546771E-02  0.1377679E+00
         -1   -1    0    0    0  501 -0.00000000000E+00  0.00000000000E+00  0.87488111117E+02  0.87488111117E+02  0.00000000000E+00 0.  1.
          1   -1    0    0  501    0  0.00000000000E+00 -0.00000000000E+00 -0.54313853259E+02  0.54313853259E+02  0.00000000000E+00 0. -1.
         23    2    1    2    0    0  0.80503100280E+01 -0.21469914107E+02 -0.10237945907E+02  0.92706301237E+02  0.89240562803E+02 0.  0.
         13    1    3    3    0    0 -0.38838749511E+01  0.14952919289E+02  0.32083022121E+02  0.35608911642E+02  0.00000000000E+00 0.  1.
        -13    1    3    3    0    0  0.11934184979E+02 -0.36422833396E+02 -0.42320968028E+02  0.57097389595E+02  0.00000000000E+00 0. -1.
         22    1    1    2    0    0 -0.80503100280E+01  0.21469914107E+02  0.43412203765E+02  0.49095663139E+02  0.00000000000E+00 0. -1.
<mgrwt>
<rscale>  0 0.65077739E+02</rscale>
<asrwt>0</asrwt>
<pdfrwt beam="1">  1        1 0.83559774E-02 0.92139257E+02</pdfrwt>
<pdfrwt beam="2">  1       -1 0.13459709E-01 0.92139257E+02</pdfrwt>
<totfact> 0.27447954E+04</totfact>
</mgrwt>
</event>
<event>
 6    1  0.1535419E-002  0.9031964E+02  0.7546771E-02  0.1379665E+00
         -2   -1    0    0    0  501 -0.00000000000E+00  0.00000000000E+00  0.52208332065E+03  0.52208332065E+03  0.00000000000E+00 0.  1.
          2   -1    0    0  501    0  0.00000000000E+00 -0.00000000000E+00 -0.62177563861E+01  0.62177563861E+01  0.00000000000E+00 0. -1.
         23    2    1    2    0    0 -0.13653951879E+02  0.19207578132E+02  0.41617037083E+03  0.42585844405E+03  0.87191027928E+02 0.  0.
         11    1    3    3    0    0  0.32578793060E+02 -0.11459140328E+02  0.14297976305E+03  0.14709147595E+03  0.00000000000E+00 0.  1.
        -11    1    3    3    0    0 -0.46232744939E+02  0.30666718460E+02  0.27319060778E+03  0.27876696810E+03  0.00000000000E+00 0. -1.
         22    1    1    2    0    0  0.13653951879E+02 -0.19207578132E+02  0.99695193441E+02  0.10244263299E+03  0.00000000000E+00 0.  1.
<mgrwt>
<rscale>  0 0.64551837E+02</rscale>
<asrwt>0</asrwt>
<pdfrwt beam="1">  1        2 0.95657832E-03 0.90319637E+02</pdfrwt>
<pdfrwt beam="2">  1       -2 0.80320476E-01 0.90319637E+02</pdfrwt>
<totfact> 0.18994441E+04</totfact>
</mgrwt>
</event>
<event>
 6    1  0.1535419E-002  0.9161783E+02  0.7546771E-02  0.1411132E+00
          2   -1    0    0  501    0  0.00000000000E+00  0.00000000000E+00  0.12954675477E+03  0.12954675477E+03  0.00000000000E+00 0. -1.
         -2   -1    0    0    0  501 -0.00000000000E+00 -0.00000000000E+00 -0.43991849448E+02  0.43991849448E+02  0.00000000000E+00 0.  1.
         23    2    1    2    0    0 -0.51400343888E+00  0.13660966304E+02  0.11143955443E+03  0.14426572838E+03  0.90592162426E+02 0.  0.
         13    1    3    3    0    0 -0.20716016392E+02 -0.71594944932E+01  0.11310329411E+03  0.11520749470E+03  0.00000000000E+00 0. -1.
        -13    1    3    3    0    0  0.20202012953E+02  0.20820460797E+02 -0.16637396732E+01  0.29058233684E+02  0.00000000000E+00 0.  1.
         22    1    1    2    0    0  0.51400343888E+00 -0.13660966304E+02 -0.25884649114E+02  0.29272875835E+02  0.00000000000E+00 0.  1.
<mgrwt>
<rscale>  0 0.56941925E+02</rscale>
<asrwt>0</asrwt>
<pdfrwt beam="1">  1        2 0.19930270E-01 0.91617826E+02</pdfrwt>
<pdfrwt beam="2">  1       -2 0.67679769E-02 0.91617826E+02</pdfrwt>
<totfact> 0.30117789E+04</totfact>
</mgrwt>
</event>
<event>
 6    1  0.1535419E-002  0.9310003E+02  0.7546771E-02  0.1391452E+00
          1   -1    0    0  501    0  0.00000000000E+00  0.00000000000E+00  0.26160848271E+03  0.26160848271E+03  0.00000000000E+00 0. -1.
         -1   -1    0    0    0  501 -0.00000000000E+00 -0.00000000000E+00 -0.11873045059E+02  0.11873045059E+02  0.00000000000E+00 0.  1.
         23    2    1    2    0    0 -0.11152089512E+02  0.13850256775E+02  0.21909399098E+03  0.23805418004E+03  0.91386087760E+02 0.  0.
         11    1    3    3    0    0 -0.44325089136E+02 -0.11423350415E+01  0.17668497223E+03  0.18216365682E+03  0.00000000000E+00 0. -1.
        -11    1    3    3    0    0  0.33172999625E+02  0.14992591817E+02  0.42409018753E+02  0.55890523213E+02  0.00000000000E+00 0.  1.
         22    1    1    2    0    0  0.11152089512E+02 -0.13850256775E+02  0.30641446669E+02  0.35427347730E+02  0.00000000000E+00 0.  1.
<mgrwt>
<rscale>  0 0.61547070E+02</rscale>
<asrwt>0</asrwt>
<pdfrwt beam="1">  1        1 0.40247455E-01 0.93100031E+02</pdfrwt>
<pdfrwt beam="2">  1       -1 0.18266225E-02 0.93100031E+02</pdfrwt>
<totfact> 0.70746993E+04</totfact>
</mgrwt>
</event>
<event>
 6    1  0.1535419E-002  0.9353360E+02  0.7546771E-02  0.1410461E+00
         -2   -1    0    0    0  501 -0.00000000000E+00  0.00000000000E+00  0.78943762592E+01  0.78943762592E+01  0.00000000000E+00 0.  1.
          2   -1    0    0  501    0  0.00000000000E+00 -0.00000000000E+00 -0.43484135095E+03  0.43484135095E+03  0.00000000000E+00 0. -1.
         23    2    1    2    0    0 -0.52862228622E+01  0.11858027196E+02 -0.41387335886E+03  0.42431084208E+03  0.92628162955E+02 0.  0.
         13    1    3    3    0    0 -0.35581867245E+02  0.43124853630E+00 -0.35776325607E+03  0.35952858390E+03  0.00000000000E+00 0. -1.
        -13    1    3    3    0    0  0.30295644383E+02  0.11426778659E+02 -0.56110102790E+02  0.64782258174E+02  0.00000000000E+00 0.  1.
         22    1    1    2    0    0  0.52862228622E+01 -0.11858027196E+02 -0.13073615834E+02  0.18424885131E+02  0.00000000000E+00 0.  1.
<mgrwt>
<rscale>  0 0.57091185E+02</rscale>
<asrwt>0</asrwt>
<pdfrwt beam="1">  1        2 0.66898668E-01 0.93533596E+02</pdfrwt>
<pdfrwt beam="2">  1       -2 0.12145194E-02 0.93533596E+02</pdfrwt>
<totfact> 0.10147580E+05</totfact>
</mgrwt>
</event>
<event>
 6    1  0.1535419E-002  0.9199598E+02  0.7546771E-02  0.1376224E+00
         -2   -1    0    0    0  501 -0.00000000000E+00  0.00000000000E+00  0.91859637063E+01  0.91859637063E+01  0.00000000000E+00 0. -1.
          2   -1    0    0  501    0  0.00000000000E+00 -0.00000000000E+00 -0.48492272524E+03  0.48492272524E+03  0.00000000000E+00 0.  1.
         23    2    1    2    0    0  0.10826354683E+02 -0.20962186634E+02 -0.44952855234E+03  0.45884548641E+03  0.88919276896E+02 0.  0.
         11    1    3    3    0    0  0.69062847822E+00 -0.28510033564E+02 -0.40018048569E+02  0.49140036556E+02  0.00000000000E+00 0. -1.
        -11    1    3    3    0    0  0.10135726205E+02  0.75478469300E+01 -0.40951050377E+03  0.40970544985E+03  0.00000000000E+00 0.  1.
         22    1    1    2    0    0 -0.10826354683E+02  0.20962186634E+02 -0.26208209197E+02  0.35263202542E+02  0.00000000000E+00 0. -1.
<mgrwt>
<rscale>  0 0.65466906E+02</rscale>
<asrwt>0</asrwt>
<pdfrwt beam="1">  1        2 0.74603496E-01 0.91995984E+02</pdfrwt>
<pdfrwt beam="2">  1       -2 0.14132252E-02 0.91995984E+02</pdfrwt>
<totfact> 0.72626723E+04</totfact>
</mgrwt>
</event>
<event>
 6    1  0.1535419E-002  0.9149538E+02  0.7546771E-02  0.1407087E+00
          2   -1    0    0  501    0  0.00000000000E+00  0.00000000000E+00  0.14587242011E+03  0.14587242011E+03  0.00000000000E+00 0. -1.
         -2   -1    0    0    0  501 -0.00000000000E+00 -0.00000000000E+00 -0.45581935926E+02  0.45581935926E+02  0.00000000000E+00 0.  1.
         23    2    1    2    0    0 -0.53714452946E+01 -0.13598954213E+02  0.12963350864E+03  0.15867025830E+03  0.90319545658E+02 0.  0.
         13    1    3    3    0    0  0.39400292831E+02  0.81784327063E+01  0.44084531875E+02  0.59688489572E+02  0.00000000000E+00 0.  1.
        -13    1    3    3    0    0 -0.44771738126E+02 -0.21777386919E+02  0.85548976766E+02  0.98981768733E+02  0.00000000000E+00 0. -1.
         22    1    1    2    0    0  0.53714452946E+01  0.13598954213E+02 -0.29343024453E+02  0.32784097735E+02  0.00000000000E+00 0.  1.
<mgrwt>
<rscale>  0 0.57849054E+02</rscale>
<asrwt>0</asrwt>
<pdfrwt beam="1">  1        2 0.22441911E-01 0.91495379E+02</pdfrwt>
<pdfrwt beam="2">  1       -2 0.70126056E-02 0.91495379E+02</pdfrwt>
<totfact> 0.25015847E+04</totfact>
</mgrwt>
</event>
<event>
 6    1  0.1535419E-002  0.9384381E+02  0.7546771E-02  0.1366123E+00
          2   -1    0    0  501    0  0.00000000000E+00  0.00000000000E+00  0.58067182864E+02  0.58067182864E+02  0.00000000000E+00 0.  1.
         -2   -1    0    0    0  501 -0.00000000000E+00 -0.00000000000E+00 -0.63405671211E+02  0.63405671211E+02  0.00000000000E+00 0. -1.
         23    2    1    2    0    0  0.50481162511E+01 -0.25774668999E+02  0.30739191655E+01  0.93894136921E+02  0.90093523238E+02 0.  0.
         13    1    3    3    0    0 -0.29073032816E+02 -0.31576549782E+02  0.27994818753E+02  0.51244800812E+02  0.00000000000E+00 0.  1.
        -13    1    3    3    0    0  0.34121149067E+02  0.58018807833E+01 -0.24920899587E+02  0.42649336109E+02  0.00000000000E+00 0. -1.
         22    1    1    2    0    0 -0.50481162511E+01  0.25774668999E+02 -0.84124075123E+01  0.27578717154E+02  0.00000000000E+00 0.  1.
<mgrwt>
<rscale>  0 0.68256804E+02</rscale>
<asrwt>0</asrwt>
<pdfrwt beam="1">  1        2 0.89334128E-02 0.93843806E+02</pdfrwt>
<pdfrwt beam="2">  1       -2 0.97547186E-02 0.93843806E+02</pdfrwt>
<totfact> 0.44246321E+04</totfact>
</mgrwt>
</event>
<event>
 6    1  0.1535419E-002  0.9391665E+02  0.7546771E-02  0.1378300E+00
          1   -1    0    0  501    0  0.00000000000E+00  0.00000000000E+00  0.61936889332E+03  0.61936889332E+03  0.00000000000E+00 0. -1.
         -1   -1    0    0    0  501 -0.00000000000E+00 -0.00000000000E+00 -0.58574193386E+01  0.58574193386E+01  0.00000000000E+00 0.  1.
         23    2    1    2    0    0  0.20328990939E+02 -0.67913858569E+01  0.55547527350E+03  0.56335878191E+03  0.91438213521E+02 0.  0.
         13    1    3    3    0    0 -0.20720157684E+02  0.22770973276E+02  0.89530175777E+02  0.94675733602E+02  0.00000000000E+00 0. -1.
        -13    1    3    3    0    0  0.41049148623E+02 -0.29562359133E+02  0.46594509772E+03  0.46868304830E+03  0.00000000000E+00 0.  1.
         22    1    1    2    0    0 -0.20328990939E+02  0.67913858569E+01  0.58036200482E+02  0.61867530748E+02  0.00000000000E+00 0. -1.
<mgrwt>
<rscale>  0 0.64912710E+02</rscale>
<asrwt>0</asrwt>
<pdfrwt beam="1">  1        1 0.95287470E-01 0.93916653E+02</pdfrwt>
<pdfrwt beam="2">  1       -1 0.90114193E-03 0.93916653E+02</pdfrwt>
<totfact> 0.65125965E+04</totfact>
</mgrwt>
</event>
<event>
 6    1  0.1535419E-002  0.1089330E+03  0.7546771E-02  0.1320467E+00
          2   -1    0    0  501    0  0.00000000000E+00  0.00000000000E+00  0.10035068496E+03  0.10035068496E+03  0.00000000000E+00 0. -1.
         -2   -1    0    0    0  501 -0.00000000000E+00 -0.00000000000E+00 -0.15388953608E+03  0.15388953608E+03  0.00000000000E+00 0.  1.
         23    2    1    2    0    0 -0.20328059121E+02  0.30793571548E+02  0.67197300308E+02  0.12799168720E+03  0.10249351583E+03 0.  0.
         13    1    3    3    0    0 -0.38500991903E+02  0.32199389692E+02  0.87397143800E+02  0.10078386686E+03  0.00000000000E+00 0. -1.
        -13    1    3    3    0    0  0.18172932783E+02 -0.14058181442E+01 -0.20199843491E+02  0.27207820340E+02  0.00000000000E+00 0.  1.
         22    1    1    2    0    0  0.20328059121E+02 -0.30793571548E+02 -0.12073615143E+03  0.12624853385E+03  0.00000000000E+00 0.  1.
<mgrwt>
<rscale>  0 0.83103769E+02</rscale>
<asrwt>0</asrwt>
<pdfrwt beam="1">  1        2 0.15438567E-01 0.10893298E+03</pdfrwt>
<pdfrwt beam="2">  1       -2 0.23675313E-01 0.10893298E+03</pdfrwt>
<totfact> 0.55162485E+03</totfact>
</mgrwt>
</event>
<event>
 6    1  0.1535419E-002  0.1013331E+03  0.7546771E-02  0.1318356E+00
         -2   -1    0    0    0  501 -0.00000000000E+00  0.00000000000E+00  0.75447325497E+02  0.75447325497E+02  0.00000000000E+00 0.  1.
          2   -1    0    0  501    0  0.00000000000E+00 -0.00000000000E+00 -0.75985998002E+02  0.75985998002E+02  0.00000000000E+00 0. -1.
         23    2    1    2    0    0 -0.39221327059E+02  0.26974322791E+02 -0.13166965783E+02  0.10218496944E+03  0.89456539199E+02 0.  0.
         11    1    3    3    0    0 -0.56905377836E+02 -0.96184969131E+01 -0.19781097962E+02  0.61008436679E+02  0.00000000000E+00 0. -1.
        -11    1    3    3    0    0  0.17684050777E+02  0.36592819705E+02  0.66141321786E+01  0.41176532762E+02  0.00000000000E+00 0.  1.
         22    1    1    2    0    0  0.39221327059E+02 -0.26974322791E+02  0.12628293278E+02  0.49248354058E+02  0.00000000000E+00 0.  1.
<mgrwt>
<rscale>  0 0.83891750E+02</rscale>
<asrwt>0</asrwt>
<pdfrwt beam="1">  1        2 0.11690154E-01 0.10133311E+03</pdfrwt>
<pdfrwt beam="2">  1       -2 0.11607281E-01 0.10133311E+03</pdfrwt>
<totfact> 0.24559993E+04</totfact>
</mgrwt>
</event>
<event>
 6    1  0.1535419E-002  0.1067716E+03  0.7546771E-02  0.1343274E+00
          4   -1    0    0  501    0  0.00000000000E+00  0.00000000000E+00  0.18081836512E+03  0.18081836512E+03  0.00000000000E+00 0. -1.
         -4   -1    0    0    0  501 -0.00000000000E+00 -0.00000000000E+00 -0.25096472120E+02  0.25096472120E+02  0.00000000000E+00 0.  1.
         23    2    1    2    0    0 -0.22981225164E+02  0.12712910818E+02  0.13684964108E+03  0.17357420174E+03  0.10349118048E+03 0.  0.
         11    1    3    3    0    0 -0.47981922470E+02  0.30303929352E+02  0.13056577430E+03  0.14236577691E+03  0.00000000000E+00 0. -1.
        -11    1    3    3    0    0  0.25000697306E+02 -0.17591018535E+02  0.62838667805E+01  0.31208424833E+02  0.00000000000E+00 0.  1.
         22    1    1    2    0    0  0.22981225164E+02 -0.12712910818E+02  0.18872251920E+02  0.32340635492E+02  0.00000000000E+00 0.  1.
<mgrwt>
<rscale>  0 0.75193227E+02</rscale>
<asrwt>0</asrwt>
<pdfrwt beam="1">  1        4 0.27818209E-01 0.10677162E+03</pdfrwt>
<pdfrwt beam="2">  1       -4 0.38609958E-02 0.10677162E+03</pdfrwt>
<totfact> 0.67940245E+03</totfact>
</mgrwt>
</event>
<event>
 6    1  0.1535419E-002  0.9334220E+02  0.7546771E-02  0.1426763E+00
          2   -1    0    0  501    0  0.00000000000E+00  0.00000000000E+00  0.15918122861E+04  0.15918122861E+04  0.00000000000E+00 0.  1.
         -2   -1    0    0    0  501 -0.00000000000E+00 -0.00000000000E+00 -0.21153037059E+01  0.21153037059E+01  0.00000000000E+00 0. -1.
         23    2    1    2    0    0 -0.15759066532E+01  0.10037689234E+02  0.15543242962E+04  0.15571245245E+04  0.92787544244E+02 0.  0.
         11    1    3    3    0    0  0.13878752898E+02  0.26432657117E+02  0.16898146883E+03  0.17159849053E+03  0.00000000000E+00 0. -1.
        -11    1    3    3    0    0 -0.15454659551E+02 -0.16394967883E+02  0.13853428274E+04  0.13855260340E+04  0.00000000000E+00 0.  1.
         22    1    1    2    0    0  0.15759066532E+01 -0.10037689234E+02  0.35372686158E+02  0.36803065266E+02  0.00000000000E+00 0. -1.
<mgrwt>
<rscale>  0 0.53615313E+02</rscale>
<asrwt>0</asrwt>
<pdfrwt beam="1">  1        2 0.24489324E+00 0.93342204E+02</pdfrwt>
<pdfrwt beam="2">  1       -2 0.32543261E-03 0.93342204E+02</pdfrwt>
<totfact> 0.11799303E+05</totfact>
</mgrwt>
</event>
<event>
 6    1  0.1535419E-002  0.9335702E+02  0.7546771E-02  0.1367131E+00
          2   -1    0    0  501    0  0.00000000000E+00  0.00000000000E+00  0.54351488355E+03  0.54351488355E+03  0.00000000000E+00 0. -1.
         -2   -1    0    0    0  501 -0.00000000000E+00 -0.00000000000E+00 -0.65992099024E+01  0.65992099024E+01  0.00000000000E+00 0.  1.
         23    2    1    2    0    0  0.16321744421E+02 -0.20537752292E+02  0.43144567936E+03  0.44143052383E+03  0.89595393425E+02 0.  0.
         13    1    3    3    0    0  0.32554681639E+02 -0.69744147784E+01  0.40985213562E+03  0.41120216783E+03  0.00000000000E+00 0. -1.
        -13    1    3    3    0    0 -0.16232937218E+02 -0.13563337514E+02  0.21593543741E+02  0.30228356001E+02  0.00000000000E+00 0.  1.
         22    1    1    2    0    0 -0.16321744421E+02  0.20537752292E+02  0.10546999429E+03  0.10868356962E+03  0.00000000000E+00 0.  1.
<mgrwt>
<rscale>  0 0.67971125E+02</rscale>
<asrwt>0</asrwt>
<pdfrwt beam="1">  1        2 0.83617639E-01 0.93357020E+02</pdfrwt>
<pdfrwt beam="2">  1       -2 0.10152635E-02 0.93357020E+02</pdfrwt>
<totfact> 0.10285753E+05</totfact>
</mgrwt>
</event>
<event>
 6    1  0.1535419E-002  0.9540581E+02  0.7546771E-02  0.1360101E+00
         -2   -1    0    0    0  501 -0.00000000000E+00  0.00000000000E+00  0.31218563295E+02  0.31218563295E+02  0.00000000000E+00 0. -1.
          2   -1    0    0  501    0  0.00000000000E+00 -0.00000000000E+00 -0.14481660590E+03  0.14481660590E+03  0.00000000000E+00 0.  1.
         23    2    1    2    0    0 -0.26476228505E+02  0.79521848454E+01 -0.11365497568E+03  0.14839043803E+03  0.91312872492E+02 0.  0.
         13    1    3    3    0    0 -0.86130039661E+01  0.21041055040E+02 -0.12246463052E+03  0.12455719796E+03  0.00000000000E+00 0.  1.
        -13    1    3    3    0    0 -0.17863224539E+02 -0.13088870195E+02  0.88096548426E+01  0.23833240073E+02  0.00000000000E+00 0. -1.
         22    1    1    2    0    0  0.26476228505E+02 -0.79521848454E+01  0.56933074404E-01  0.27644731162E+02  0.00000000000E+00 0.  1.
<mgrwt>
<rscale>  0 0.69997734E+02</rscale>
<asrwt>0</asrwt>
<pdfrwt beam="1">  1        2 0.22279477E-01 0.95405810E+02</pdfrwt>
<pdfrwt beam="2">  1       -2 0.48028560E-02 0.95405810E+02</pdfrwt>
<totfact> 0.44700062E+04</totfact>
</mgrwt>
</event>
<event>
 6    1  0.1535419E-002  0.9146311E+02  0.7546771E-02  0.1376198E+00
          2   -1    0    0  501    0  0.00000000000E+00  0.00000000000E+00  0.97242425160E+03  0.97242425160E+03  0.00000000000E+00 0. -1.
         -2   -1    0    0    0  501 -0.00000000000E+00 -0.00000000000E+00 -0.59600004036E+01  0.59600004036E+01  0.00000000000E+00 0.  1.
         23    2    1    2    0    0 -0.81088521530E+01  0.22607325757E+02  0.93141804695E+03  0.93589800608E+03  0.88253356466E+02 0.  0.
         13    1    3    3    0    0  0.29413581437E+02 -0.14307886031E+02  0.20680983460E+03  0.20938047202E+03  0.00000000000E+00 0.  1.
        -13    1    3    3    0    0 -0.37522433590E+02  0.36915211788E+02  0.72460821235E+03  0.72651753406E+03  0.00000000000E+00 0. -1.
         22    1    1    2    0    0  0.81088521530E+01 -0.22607325757E+02  0.35046204246E+02  0.42486245930E+02  0.00000000000E+00 0.  1.
<mgrwt>
<rscale>  0 0.65473690E+02</rscale>
<asrwt>0</asrwt>
<pdfrwt beam="1">  1        2 0.14960361E+00 0.91463105E+02</pdfrwt>
<pdfrwt beam="2">  1       -2 0.91692391E-03 0.91463105E+02</pdfrwt>
<totfact> 0.59217318E+04</totfact>
</mgrwt>
</event>
<event>
 6    1  0.1535419E-002  0.9346682E+02  0.7546771E-02  0.1402619E+00
         -3   -1    0    0    0  501 -0.00000000000E+00  0.00000000000E+00  0.10784232654E+03  0.10784232654E+03  0.00000000000E+00 0.  1.
          3   -1    0    0  501    0  0.00000000000E+00 -0.00000000000E+00 -0.41045588004E+02  0.41045588004E+02  0.00000000000E+00 0. -1.
         23    2    1    2    0    0  0.39742131662E+01  0.14166808533E+02  0.14529808872E+02  0.94589436014E+02  0.92301425911E+02 0.  0.
         11    1    3    3    0    0 -0.38051640613E+02  0.41275561236E+01  0.30067274280E+02  0.48672426028E+02  0.00000000000E+00 0. -1.
        -11    1    3    3    0    0  0.42025853779E+02  0.10039252409E+02 -0.15537465407E+02  0.45917009986E+02  0.00000000000E+00 0.  1.
         22    1    1    2    0    0 -0.39742131662E+01 -0.14166808533E+02  0.52266929666E+02  0.54298478533E+02  0.00000000000E+00 0.  1.
<mgrwt>
<rscale>  0 0.58873999E+02</rscale>
<asrwt>0</asrwt>
<pdfrwt beam="1">  1        3 0.63147059E-02 0.93466818E+02</pdfrwt>
<pdfrwt beam="2">  1       -3 0.16591127E-01 0.93466818E+02</pdfrwt>
<totfact> 0.10155245E+04</totfact>
</mgrwt>
</event>
<event>
 6    1  0.1535419E-002  0.9826302E+02  0.7546771E-02  0.1382239E+00
         -1   -1    0    0    0  501 -0.00000000000E+00  0.00000000000E+00  0.49077216654E+03  0.49077216654E+03  0.00000000000E+00 0.  1.
          1   -1    0    0  501    0  0.00000000000E+00 -0.00000000000E+00 -0.69751284821E+01  0.69751284821E+01  0.00000000000E+00 0. -1.
         23    2    1    2    0    0  0.66809764395E+01 -0.16227677551E+02  0.38125236390E+03  0.39371180510E+03  0.96683232941E+02 0.  0.
         13    1    3    3    0    0 -0.30262903527E+02 -0.33329623816E+02  0.29403145554E+03  0.29745790290E+03  0.00000000000E+00 0.  1.
        -13    1    3    3    0    0  0.36943879966E+02  0.17101946265E+02  0.87220908366E+02  0.96253902203E+02  0.00000000000E+00 0. -1.
         22    1    1    2    0    0 -0.66809764395E+01  0.16227677551E+02  0.10254467415E+03  0.10403548992E+03  0.00000000000E+00 0. -1.
<mgrwt>
<rscale>  0 0.63878785E+02</rscale>
<asrwt>0</asrwt>
<pdfrwt beam="1">  1        1 0.10730971E-02 0.98263017E+02</pdfrwt>
<pdfrwt beam="2">  1       -1 0.75503383E-01 0.98263017E+02</pdfrwt>
<totfact> 0.24054329E+04</totfact>
</mgrwt>
</event>
<event>
 6    1  0.1535419E-002  0.9318702E+02  0.7546771E-02  0.1393999E+00
          2   -1    0    0  501    0  0.00000000000E+00  0.00000000000E+00  0.14510258718E+03  0.14510258718E+03  0.00000000000E+00 0. -1.
         -2   -1    0    0    0  501 -0.00000000000E+00 -0.00000000000E+00 -0.25985290310E+02  0.25985290310E+02  0.00000000000E+00 0.  1.
         23    2    1    2    0    0  0.89874563599E+01  0.14457945163E+02  0.12231281354E+03  0.15376685336E+03  0.91618853331E+02 0.  0.
         13    1    3    3    0    0  0.43807434409E+01  0.55090775153E+01 -0.14745624079E+02  0.16339347528E+02  0.00000000000E+00 0.  1.
        -13    1    3    3    0    0  0.46067129189E+01  0.89488676481E+01  0.13705843762E+03  0.13742750583E+03  0.00000000000E+00 0. -1.
         22    1    1    2    0    0 -0.89874563599E+01 -0.14457945163E+02 -0.31955166691E+01  0.17321024131E+02  0.00000000000E+00 0. -1.
<mgrwt>
<rscale>  0 0.60922834E+02</rscale>
<asrwt>0</asrwt>
<pdfrwt beam="1">  1        2 0.22323474E-01 0.93187021E+02</pdfrwt>
<pdfrwt beam="2">  1       -2 0.39977371E-02 0.93187021E+02</pdfrwt>
<totfact> 0.58312901E+04</totfact>
</mgrwt>
</event>
<event>
 6    1  0.1535419E-002  0.9722425E+02  0.7546771E-02  0.1398971E+00
         -2   -1    0    0    0  501 -0.00000000000E+00  0.00000000000E+00  0.63012581828E+01  0.63012581828E+01  0.00000000000E+00 0.  1.
          2   -1    0    0  501    0  0.00000000000E+00 -0.00000000000E+00 -0.49324485913E+03  0.49324485913E+03  0.00000000000E+00 0. -1.
         23    2    1    2    0    0 -0.94584307804E+01  0.10116291998E+02 -0.41034126186E+03  0.42170191631E+03  0.96232810181E+02 0.  0.
         13    1    3    3    0    0  0.18484791082E+02 -0.14494373717E+02 -0.24042646521E+02  0.33612843119E+02  0.00000000000E+00 0.  1.
        -13    1    3    3    0    0 -0.27943221862E+02  0.24610665716E+02 -0.38629861534E+03  0.38808907319E+03  0.00000000000E+00 0. -1.
         22    1    1    2    0    0  0.94584307804E+01 -0.10116291998E+02 -0.76602339082E+02  0.77844201001E+02  0.00000000000E+00 0.  1.
<mgrwt>
<rscale>  0 0.59729295E+02</rscale>
<asrwt>0</asrwt>
<pdfrwt beam="1">  1        2 0.75883834E-01 0.97224251E+02</pdfrwt>
<pdfrwt beam="2">  1       -2 0.96942421E-03 0.97224251E+02</pdfrwt>
<totfact> 0.12277734E+05</totfact>
</mgrwt>
</event>
<event>
 6    1  0.1535419E-002  0.9691393E+02  0.7546771E-02  0.1419716E+00
         -4   -1    0    0    0  501 -0.00000000000E+00  0.00000000000E+00  0.22955503553E+02  0.22955503553E+02  0.00000000000E+00 0.  1.
          4   -1    0    0  501    0  0.00000000000E+00 -0.00000000000E+00 -0.13525416003E+03  0.13525416003E+03  0.00000000000E+00 0. -1.
         23    2    1    2    0    0  0.56458552835E+01 -0.83895428280E+01 -0.84324090682E+02  0.12846346312E+03  0.96384900144E+02 0.  0.
         13    1    3    3    0    0  0.19582390880E+02 -0.18823237721E+02 -0.10085943680E+03  0.10445290950E+03  0.00000000000E+00 0. -1.
        -13    1    3    3    0    0 -0.13936535597E+02  0.10433694893E+02  0.16535346122E+02  0.24010553616E+02  0.00000000000E+00 0.  1.
         22    1    1    2    0    0 -0.56458552835E+01  0.83895428280E+01 -0.27974565795E+02  0.29746200466E+02  0.00000000000E+00 0. -1.
<mgrwt>
<rscale>  0 0.55081140E+02</rscale>
<asrwt>0</asrwt>
<pdfrwt beam="1">  1        4 0.20808333E-01 0.96913926E+02</pdfrwt>
<pdfrwt beam="2">  1       -4 0.35316159E-02 0.96913926E+02</pdfrwt>
<totfact> 0.12920099E+04</totfact>
</mgrwt>
</event>
<event>
 6    1  0.1535419E-002  0.1010344E+03  0.7546771E-02  0.1324770E+00
         -2   -1    0    0    0  501 -0.00000000000E+00  0.00000000000E+00  0.10168466481E+02  0.10168466481E+02  0.00000000000E+00 0.  1.
          2   -1    0    0  501    0  0.00000000000E+00 -0.00000000000E+00 -0.54225302832E+03  0.54225302832E+03  0.00000000000E+00 0. -1.
         23    2    1    2    0    0 -0.14598081165E+02 -0.40273096101E+02 -0.43006083604E+03  0.44176948683E+03  0.91503718784E+02 0.  0.
         13    1    3    3    0    0 -0.36472137546E+02 -0.60384871570E+02 -0.27628201554E+03  0.28514610578E+03  0.00000000000E+00 0. -1.
        -13    1    3    3    0    0  0.21874056381E+02  0.20111775470E+02 -0.15377882050E+03  0.15662338105E+03  0.00000000000E+00 0.  1.
         22    1    1    2    0    0  0.14598081165E+02  0.40273096101E+02 -0.10202372579E+03  0.11065200797E+03  0.00000000000E+00 0.  1.
<mgrwt>
<rscale>  0 0.81528104E+02</rscale>
<asrwt>0</asrwt>
<pdfrwt beam="1">  1        2 0.83423533E-01 0.10103443E+03</pdfrwt>
<pdfrwt beam="2">  1       -2 0.15643796E-02 0.10103443E+03</pdfrwt>
<totfact> 0.56294964E+04</totfact>
</mgrwt>
</event>
<event>
 6    1  0.1535419E-002  0.9261522E+02  0.7546771E-02  0.1427575E+00
          2   -1    0    0  501    0  0.00000000000E+00  0.00000000000E+00  0.21867802325E+03  0.21867802325E+03  0.00000000000E+00 0. -1.
         -2   -1    0    0    0  501 -0.00000000000E+00 -0.00000000000E+00 -0.21028110377E+02  0.21028110377E+02  0.00000000000E+00 0.  1.
         23    2    1    2    0    0 -0.88570870314E+01  0.52063705753E+01  0.20638991847E+03  0.22621754649E+03  0.92043607103E+02 0.  0.
         11    1    3    3    0    0  0.51729639669E+01  0.47015705113E+02  0.88460672685E+02  0.10031214630E+03  0.00000000000E+00 0. -1.
        -11    1    3    3    0    0 -0.14030050998E+02 -0.41809334538E+02  0.11792924578E+03  0.12590540019E+03  0.00000000000E+00 0.  1.
         22    1    1    2    0    0  0.88570870314E+01 -0.52063705753E+01 -0.87400055935E+01  0.13488587140E+02  0.00000000000E+00 0.  1.
<mgrwt>
<rscale>  0 0.53449823E+02</rscale>
<asrwt>0</asrwt>
<pdfrwt beam="1">  1        2 0.33642771E-01 0.92615225E+02</pdfrwt>
<pdfrwt beam="2">  1       -2 0.32350940E-02 0.92615225E+02</pdfrwt>
<totfact> 0.51006585E+04</totfact>
</mgrwt>
</event>
<event>
 6    1  0.1535419E-002  0.9356684E+02  0.7546771E-02  0.1381719E+00
          1   -1    0    0  501    0  0.00000000000E+00  0.00000000000E+00  0.53539554205E+03  0.53539554205E+03  0.00000000000E+00 0. -1.
         -1   -1    0    0    0  501 -0.00000000000E+00 -0.00000000000E+00 -0.67126746253E+01  0.67126746253E+01  0.00000000000E+00 0.  1.
         23    2    1    2    0    0 -0.41413466632E+01 -0.20076309532E+02  0.48381227159E+03  0.49277689471E+03  0.91293728475E+02 0.  0.
         11    1    3    3    0    0 -0.29229464586E+02 -0.48915914751E+00  0.42414339418E+03  0.42514964390E+03  0.00000000000E+00 0. -1.
        -11    1    3    3    0    0  0.25088117923E+02 -0.19587150385E+02  0.59668877411E+02  0.67627250813E+02  0.00000000000E+00 0.  1.
         22    1    1    2    0    0  0.41413466632E+01  0.20076309532E+02  0.44870595833E+02  0.49331321967E+02  0.00000000000E+00 0. -1.
<mgrwt>
<rscale>  0 0.64013952E+02</rscale>
<asrwt>0</asrwt>
<pdfrwt beam="1">  1        1 0.82368511E-01 0.93566841E+02</pdfrwt>
<pdfrwt beam="2">  1       -1 0.10327196E-02 0.93566841E+02</pdfrwt>
<totfact> 0.65168912E+04</totfact>
</mgrwt>
</event>
<event>
 6    1  0.1535419E-002  0.9333179E+02  0.7546771E-02  0.1372528E+00
          1   -1    0    0  501    0  0.00000000000E+00  0.00000000000E+00  0.97143668101E+02  0.97143668101E+02  0.00000000000E+00 0. -1.
         -1   -1    0    0    0  501 -0.00000000000E+00 -0.00000000000E+00 -0.35670903907E+02  0.35670903907E+02  0.00000000000E+00 0.  1.
         23    2    1    2    0    0 -0.71706538515E+01  0.22914469025E+02  0.53139126070E+02  0.10739920871E+03  0.90190532452E+02 0.  0.
         13    1    3    3    0    0  0.26478293971E+02  0.41487960341E+02  0.11128942992E+02  0.50459927437E+02  0.00000000000E+00 0.  1.
        -13    1    3    3    0    0 -0.33648947822E+02 -0.18573491316E+02  0.42010183078E+02  0.56939281269E+02  0.00000000000E+00 0. -1.
         22    1    1    2    0    0  0.71706538515E+01 -0.22914469025E+02  0.83336381245E+01  0.25415363302E+02  0.00000000000E+00 0. -1.
<mgrwt>
<rscale>  0 0.66469327E+02</rscale>
<asrwt>0</asrwt>
<pdfrwt beam="1">  1        1 0.14945180E-01 0.93331792E+02</pdfrwt>
<pdfrwt beam="2">  1       -1 0.54878314E-02 0.93331792E+02</pdfrwt>
<totfact> 0.49549027E+04</totfact>
</mgrwt>
</event>
<event>
 6    1  0.1535419E-002  0.9477904E+02  0.7546771E-02  0.1376394E+00
          2   -1    0    0  501    0  0.00000000000E+00  0.00000000000E+00  0.17400927773E+02  0.17400927773E+02  0.00000000000E+00 0. -1.
         -2   -1    0    0    0  501 -0.00000000000E+00 -0.00000000000E+00 -0.23213373187E+03  0.23213373187E+03  0.00000000000E+00 0.  1.
         23    2    1    2    0    0 -0.15459098885E+02  0.14963415486E+02 -0.12282387752E+03  0.15514113059E+03  0.92304810124E+02 0.  0.
         11    1    3    3    0    0  0.35281626721E+02  0.18588945196E+02 -0.32365443835E+02  0.51360140403E+02  0.00000000000E+00 0. -1.
        -11    1    3    3    0    0 -0.50740725606E+02 -0.36255297100E+01 -0.90458433683E+02  0.10378099019E+03  0.00000000000E+00 0.  1.
         22    1    1    2    0    0  0.15459098885E+02 -0.14963415486E+02 -0.91908926584E+02  0.94393529053E+02  0.00000000000E+00 0. -1.
<mgrwt>
<rscale>  0 0.65421222E+02</rscale>
<asrwt>0</asrwt>
<pdfrwt beam="1">  1        2 0.26770659E-02 0.94779035E+02</pdfrwt>
<pdfrwt beam="2">  1       -2 0.35712880E-01 0.94779035E+02</pdfrwt>
<totfact> 0.23876495E+04</totfact>
</mgrwt>
</event>
<event>
 6    1  0.1535419E-002  0.9284478E+02  0.7546771E-02  0.1412417E+00
          1   -1    0    0  501    0  0.00000000000E+00  0.00000000000E+00  0.16056653740E+03  0.16056653740E+03  0.00000000000E+00 0. -1.
         -1   -1    0    0    0  501 -0.00000000000E+00 -0.00000000000E+00 -0.19639386207E+02  0.19639386207E+02  0.00000000000E+00 0.  1.
         23    2    1    2    0    0 -0.11437353649E+02  0.59135253490E+01  0.13904488520E+03  0.16719340018E+03  0.91947648820E+02 0.  0.
         11    1    3    3    0    0 -0.34532219154E+02  0.26270804834E+02  0.27249147372E+02  0.51236172562E+02  0.00000000000E+00 0.  1.
        -11    1    3    3    0    0  0.23094865504E+02 -0.20357279485E+02  0.11179573783E+03  0.11595722762E+03  0.00000000000E+00 0. -1.
         22    1    1    2    0    0  0.11437353649E+02 -0.59135253490E+01  0.18822659887E+01  0.13012523422E+02  0.00000000000E+00 0. -1.
<mgrwt>
<rscale>  0 0.56657912E+02</rscale>
<asrwt>0</asrwt>
<pdfrwt beam="1">  1        1 0.24702543E-01 0.92844779E+02</pdfrwt>
<pdfrwt beam="2">  1       -1 0.30214441E-02 0.92844779E+02</pdfrwt>
<totfact> 0.62625303E+04</totfact>
</mgrwt>
</event>
<event>
 6    1  0.1535419E-002  0.9174869E+02  0.7546771E-02  0.1400288E+00
          3   -1    0    0  501    0  0.00000000000E+00  0.00000000000E+00  0.20653620940E+02  0.20653620940E+02  0.00000000000E+00 0. -1.
         -3   -1    0    0    0  501 -0.00000000000E+00 -0.00000000000E+00 -0.19956774967E+03  0.19956774967E+03  0.00000000000E+00 0.  1.
         23    2    1    2    0    0  0.13858665816E+01  0.16079793953E+02 -0.18197360165E+03  0.20379453968E+03  0.90318006547E+02 0.  0.
         11    1    3    3    0    0  0.24657812919E+02 -0.19479944018E+02 -0.22224016229E+02  0.38488736719E+02  0.00000000000E+00 0. -1.
        -11    1    3    3    0    0 -0.23271946337E+02  0.35559737971E+02 -0.15974958542E+03  0.16530580296E+03  0.00000000000E+00 0.  1.
         22    1    1    2    0    0 -0.13858665816E+01 -0.16079793953E+02  0.30594729212E+01  0.16426830927E+02  0.00000000000E+00 0. -1.
<mgrwt>
<rscale>  0 0.59418515E+02</rscale>
<asrwt>0</asrwt>
<pdfrwt beam="1">  1        3 0.31774801E-02 0.91748693E+02</pdfrwt>
<pdfrwt beam="2">  1       -3 0.30702731E-01 0.91748693E+02</pdfrwt>
<totfact> 0.99256143E+03</totfact>
</mgrwt>
</event>
<event>
 6    1  0.1535419E-002  0.9170027E+02  0.7546771E-02  0.1402863E+00
         -1   -1    0    0    0  501 -0.00000000000E+00  0.00000000000E+00  0.33120776001E+02  0.33120776001E+02  0.00000000000E+00 0.  1.
          1   -1    0    0  501    0  0.00000000000E+00 -0.00000000000E+00 -0.90143004940E+02  0.90143004940E+02  0.00000000000E+00 0. -1.
         23    2    1    2    0    0 -0.15108856341E+02  0.35513130252E+01 -0.56551878802E+02  0.10773604468E+03  0.90377270169E+02 0.  0.
         11    1    3    3    0    0  0.95030076933E+01  0.42848321334E+02 -0.37038019596E+02  0.57429092731E+02  0.00000000000E+00 0. -1.
        -11    1    3    3    0    0 -0.24611864034E+02 -0.39297008309E+02 -0.19513859206E+02  0.50306951949E+02  0.00000000000E+00 0.  1.
         22    1    1    2    0    0  0.15108856341E+02 -0.35513130252E+01 -0.47035013737E+00  0.15527736261E+02  0.00000000000E+00 0. -1.
<mgrwt>
<rscale>  0 0.58817313E+02</rscale>
<asrwt>0</asrwt>
<pdfrwt beam="1">  1        1 0.13868155E-01 0.91700274E+02</pdfrwt>
<pdfrwt beam="2">  1       -1 0.50955040E-02 0.91700274E+02</pdfrwt>
<totfact> 0.60658213E+04</totfact>
</mgrwt>
</event>
<event>
 6    1  0.1535419E-002  0.9166134E+02  0.7546771E-02  0.1428488E+00
          1   -1    0    0  501    0  0.00000000000E+00  0.00000000000E+00  0.45476633626E+03  0.45476633626E+03  0.00000000000E+00 0. -1.
         -1   -1    0    0    0  501 -0.00000000000E+00 -0.00000000000E+00 -0.60249429050E+01  0.60249429050E+01  0.00000000000E+00 0.  1.
         23    2    1    2    0    0 -0.67582323609E+01  0.79730376387E+01  0.42619110315E+03  0.43593652867E+03  0.91063481107E+02 0.  0.
         13    1    3    3    0    0 -0.50037837267E+01 -0.39944883420E+02  0.13682043228E+03  0.14261999247E+03  0.00000000000E+00 0.  1.
        -13    1    3    3    0    0 -0.17544486342E+01  0.47917921059E+02  0.28937067087E+03  0.29331653620E+03  0.00000000000E+00 0. -1.
         22    1    1    2    0    0  0.67582323609E+01 -0.79730376387E+01  0.22550290210E+02  0.24854750499E+02  0.00000000000E+00 0.  1.
<mgrwt>
<rscale>  0 0.53264623E+02</rscale>
<asrwt>0</asrwt>
<pdfrwt beam="1">  1        1 0.69964025E-01 0.91661337E+02</pdfrwt>
<pdfrwt beam="2">  1       -1 0.92691465E-03 0.91661337E+02</pdfrwt>
<totfact> 0.93321165E+04</totfact>
</mgrwt>
</event>
<event>
 6    1  0.1535419E-002  0.1020837E+03  0.7546771E-02  0.1327749E+00
         -1   -1    0    0    0  501 -0.00000000000E+00  0.00000000000E+00  0.30027241864E+02  0.30027241864E+02  0.00000000000E+00 0.  1.
          1   -1    0    0  501    0  0.00000000000E+00 -0.00000000000E+00 -0.19793205872E+03  0.19793205872E+03  0.00000000000E+00 0. -1.
         23    2    1    2    0    0  0.38396621047E+02  0.88245851044E+01 -0.15666570180E+03  0.18698990326E+03  0.94174879822E+02 0.  0.
         13    1    3    3    0    0  0.12684734518E+02  0.28068494165E+02 -0.40914776945E+01  0.31072223033E+02  0.00000000000E+00 0.  1.
        -13    1    3    3    0    0  0.25711886529E+02 -0.19243909061E+02 -0.15257422411E+03  0.15591768023E+03  0.00000000000E+00 0. -1.
         22    1    1    2    0    0 -0.38396621047E+02 -0.88245851044E+01 -0.11239115056E+02  0.40969397327E+02  0.00000000000E+00 0. -1.
<mgrwt>
<rscale>  0 0.80460893E+02</rscale>
<asrwt>0</asrwt>
<pdfrwt beam="1">  1        1 0.30451085E-01 0.10208370E+03</pdfrwt>
<pdfrwt beam="2">  1       -1 0.46195759E-02 0.10208370E+03</pdfrwt>
<totfact> 0.26416272E+04</totfact>
</mgrwt>
</event>
<event>
 6    1  0.1535419E-002  0.9988757E+02  0.7546771E-02  0.1329901E+00
          2   -1    0    0  501    0  0.00000000000E+00  0.00000000000E+00  0.11091142703E+03  0.11091142703E+03  0.00000000000E+00 0. -1.
         -2   -1    0    0    0  501 -0.00000000000E+00 -0.00000000000E+00 -0.55873702469E+02  0.55873702469E+02  0.00000000000E+00 0.  1.
         23    2    1    2    0    0  0.27185181419E+02  0.30003938487E+02  0.71747412953E+02  0.12298462609E+03  0.91314054638E+02 0.  0.
         13    1    3    3    0    0 -0.26388152444E+02  0.26363838023E+02  0.54943195121E+01  0.37703767605E+02  0.00000000000E+00 0.  1.
        -13    1    3    3    0    0  0.53573333863E+02  0.36401004636E+01  0.66253093441E+02  0.85280858480E+02  0.00000000000E+00 0. -1.
         22    1    1    2    0    0 -0.27185181419E+02 -0.30003938487E+02 -0.16709688388E+02  0.43800503416E+02  0.00000000000E+00 0. -1.
<mgrwt>
<rscale>  0 0.79701210E+02</rscale>
<asrwt>0</asrwt>
<pdfrwt beam="1">  1        2 0.17063296E-01 0.99887572E+02</pdfrwt>
<pdfrwt beam="2">  1       -2 0.85959542E-02 0.99887572E+02</pdfrwt>
<totfact> 0.25177152E+04</totfact>
</mgrwt>
</event>
<event>
 6    1  0.1535419E-002  0.1280625E+03  0.7546771E-02  0.1249581E+00
          2   -1    0    0  501    0  0.00000000000E+00  0.00000000000E+00  0.65556909764E+03  0.65556909764E+03  0.00000000000E+00 0. -1.
         -2   -1    0    0    0  501 -0.00000000000E+00 -0.00000000000E+00 -0.22967610216E+02  0.22967610216E+02  0.00000000000E+00 0.  1.
         23    2    1    2    0    0 -0.11918873087E+02 -0.85844827804E+02  0.52488920488E+03  0.54028574111E+03  0.94279428549E+02 0.  0.
         11    1    3    3    0    0  0.22113036376E+01  0.11513162044E+02  0.21135030034E+03  0.21167520454E+03  0.00000000000E+00 0. -1.
        -11    1    3    3    0    0 -0.14130176725E+02 -0.97357989848E+02  0.31353890454E+03  0.32861053657E+03  0.00000000000E+00 0.  1.
         22    1    1    2    0    0  0.11918873087E+02  0.85844827804E+02  0.10771228254E+03  0.13825096675E+03  0.00000000000E+00 0. -1.
<mgrwt>
<rscale>  0 0.11615330E+03</rscale>
<asrwt>0</asrwt>
<pdfrwt beam="1">  1        2 0.10085677E+00 0.12806250E+03</pdfrwt>
<pdfrwt beam="2">  1       -2 0.35334790E-02 0.12806250E+03</pdfrwt>
<totfact> 0.14243636E+04</totfact>
</mgrwt>
</event>
<event>
 6    1  0.1535419E-002  0.9925305E+02  0.7546771E-02  0.1330583E+00
          2   -1    0    0  501    0  0.00000000000E+00  0.00000000000E+00  0.33451174147E+03  0.33451174147E+03  0.00000000000E+00 0. -1.
         -2   -1    0    0    0  501 -0.00000000000E+00 -0.00000000000E+00 -0.25621872766E+02  0.25621872766E+02  0.00000000000E+00 0.  1.
         23    2    1    2    0    0 -0.26995025211E+02 -0.30562604234E+02  0.30311256500E+03  0.31894889131E+03  0.90489579774E+02 0.  0.
         11    1    3    3    0    0 -0.45489655848E+02  0.14575707679E+02  0.18702775733E+03  0.19303145354E+03  0.00000000000E+00 0. -1.
        -11    1    3    3    0    0  0.18494630637E+02 -0.45138311913E+02  0.11608480766E+03  0.12591743777E+03  0.00000000000E+00 0.  1.
         22    1    1    2    0    0  0.26995025211E+02  0.30562604234E+02  0.57773037029E+01  0.41184722918E+02  0.00000000000E+00 0. -1.
<mgrwt>
<rscale>  0 0.79462649E+02</rscale>
<asrwt>0</asrwt>
<pdfrwt beam="1">  1        2 0.51463342E-01 0.99253051E+02</pdfrwt>
<pdfrwt beam="2">  1       -2 0.39418268E-02 0.99253051E+02</pdfrwt>
<totfact> 0.24626115E+04</totfact>
</mgrwt>
</event>
<event>
 6    1  0.1535419E-002  0.8650841E+02  0.7546771E-02  0.1438166E+00
          2   -1    0    0  501    0  0.00000000000E+00  0.00000000000E+00  0.76748466882E+03  0.76748466882E+03  0.00000000000E+00 0. -1.
         -2   -1    0    0    0  501 -0.00000000000E+00 -0.00000000000E+00 -0.38746834636E+01  0.38746834636E+01  0.00000000000E+00 0.  1.
         23    2    1    2    0    0  0.68743991188E+01  0.82568224361E+01  0.74388370984E+03  0.74889697428E+03  0.85838638354E+02 0.  0.
         13    1    3    3    0    0 -0.35900879760E+02 -0.83151714555E+01  0.22591270371E+03  0.22889859096E+03  0.00000000000E+00 0.  1.
        -13    1    3    3    0    0  0.42775278878E+02  0.16571993892E+02  0.51797100613E+03  0.51999838332E+03  0.00000000000E+00 0. -1.
         22    1    1    2    0    0 -0.68743991188E+01 -0.82568224361E+01  0.19726275513E+02  0.22462378004E+02  0.00000000000E+00 0.  1.
<mgrwt>
<rscale>  0 0.51355237E+02</rscale>
<asrwt>0</asrwt>
<pdfrwt beam="1">  1        2 0.11807444E+00 0.86508406E+02</pdfrwt>
<pdfrwt beam="2">  1       -2 0.59610576E-03 0.86508406E+02</pdfrwt>
<totfact> 0.14526448E+05</totfact>
</mgrwt>
</event>
<event>
 6    1  0.1535419E-002  0.9273572E+02  0.7546771E-02  0.1402431E+00
          2   -1    0    0  501    0  0.00000000000E+00  0.00000000000E+00  0.56003119995E+03  0.56003119995E+03  0.00000000000E+00 0. -1.
         -2   -1    0    0    0  501 -0.00000000000E+00 -0.00000000000E+00 -0.55927672361E+01  0.55927672361E+01  0.00000000000E+00 0.  1.
         23    2    1    2    0    0  0.48031389736E+01 -0.14325231910E+02  0.51700755731E+03  0.52525872413E+03  0.91496614958E+02 0.  0.
         13    1    3    3    0    0  0.44510951035E+02  0.50968851125E+01  0.33384534920E+03  0.33683812163E+03  0.00000000000E+00 0. -1.
        -13    1    3    3    0    0 -0.39707812061E+02 -0.19422117022E+02  0.18316220811E+03  0.18842060250E+03  0.00000000000E+00 0.  1.
         22    1    1    2    0    0 -0.48031389736E+01  0.14325231910E+02  0.37430875407E+02  0.40365243056E+02  0.00000000000E+00 0. -1.
<mgrwt>
<rscale>  0 0.58917502E+02</rscale>
<asrwt>0</asrwt>
<pdfrwt beam="1">  1        2 0.86158602E-01 0.92735716E+02</pdfrwt>
<pdfrwt beam="2">  1       -2 0.86042617E-03 0.92735716E+02</pdfrwt>
<totfact> 0.12565905E+05</totfact>
</mgrwt>
</event>
<event>
 6    1  0.1535419E-002  0.9382288E+02  0.7546771E-02  0.1425208E+00
         -2   -1    0    0    0  501 -0.00000000000E+00  0.00000000000E+00  0.34523833309E+02  0.34523833309E+02  0.00000000000E+00 0.  1.
          2   -1    0    0  501    0  0.00000000000E+00 -0.00000000000E+00 -0.88695659378E+02  0.88695659378E+02  0.00000000000E+00 0. -1.
         23    2    1    2    0    0 -0.18301869893E+01 -0.10080480720E+02 -0.60062715549E+02  0.11140136023E+03  0.93261822765E+02 0.  0.
         11    1    3    3    0    0 -0.28284380427E+02 -0.11554326409E+02 -0.75000685089E+02  0.80985254206E+02  0.00000000000E+00 0. -1.
        -11    1    3    3    0    0  0.26454193437E+02  0.14738456884E+01  0.14937969540E+02  0.30416106022E+02  0.00000000000E+00 0.  1.
         22    1    1    2    0    0  0.18301869893E+01  0.10080480720E+02  0.58908894796E+01  0.11818132460E+02  0.00000000000E+00 0.  1.
<mgrwt>
<rscale>  0 0.53933983E+02</rscale>
<asrwt>0</asrwt>
<pdfrwt beam="1">  1        2 0.13645486E-01 0.93822882E+02</pdfrwt>
<pdfrwt beam="2">  1       -2 0.53113590E-02 0.93822882E+02</pdfrwt>
<totfact> 0.67051383E+04</totfact>
</mgrwt>
</event>
<event>
 6    1  0.1535419E-002  0.9135830E+02  0.7546771E-02  0.1416372E+00
         -2   -1    0    0    0  501 -0.00000000000E+00  0.00000000000E+00  0.30300885002E+02  0.30300885002E+02  0.00000000000E+00 0.  1.
          2   -1    0    0  501    0  0.00000000000E+00 -0.00000000000E+00 -0.10893636707E+03  0.10893636707E+03  0.00000000000E+00 0. -1.
         23    2    1    2    0    0  0.69628228165E+00 -0.12691538447E+02 -0.85208822020E+02  0.12492750870E+03  0.90469769106E+02 0.  0.
         11    1    3    3    0    0  0.10713577913E+02 -0.18708067410E+02 -0.10212060635E+03  0.10437140786E+03  0.00000000000E+00 0. -1.
        -11    1    3    3    0    0 -0.10017295631E+02  0.60165289631E+01  0.16911784327E+02  0.20556100838E+02  0.00000000000E+00 0.  1.
         22    1    1    2    0    0 -0.69628228165E+00  0.12691538447E+02  0.65733399551E+01  0.14309743371E+02  0.00000000000E+00 0.  1.
<mgrwt>
<rscale>  0 0.55795956E+02</rscale>
<asrwt>0</asrwt>
<pdfrwt beam="1">  1        2 0.16759441E-01 0.91358301E+02</pdfrwt>
<pdfrwt beam="2">  1       -2 0.46616746E-02 0.91358301E+02</pdfrwt>
<totfact> 0.63941356E+04</totfact>
</mgrwt>
</event>
<event>
 6    1  0.1535419E-002  0.9483712E+02  0.7546771E-02  0.1371303E+00
          1   -1    0    0  501    0  0.00000000000E+00  0.00000000000E+00  0.17865564722E+04  0.17865564722E+04  0.00000000000E+00 0. -1.
         -1   -1    0    0    0  501 -0.00000000000E+00 -0.00000000000E+00 -0.28431150860E+01  0.28431150860E+01  0.00000000000E+00 0.  1.
         23    2    1    2    0    0 -0.24720635909E+01 -0.23221404561E+02  0.16954131412E+04  0.16980635437E+04  0.91916997045E+02 0.  0.
         13    1    3    3    0    0 -0.42606086281E+02  0.29545781697E+01  0.55336100033E+03  0.55500667095E+03  0.00000000000E+00 0.  1.
        -13    1    3    3    0    0  0.40134022690E+02 -0.26175982730E+02  0.11420521409E+04  0.11430568728E+04  0.00000000000E+00 0. -1.
         22    1    1    2    0    0  0.24720635909E+01  0.23221404561E+02  0.88300215886E+02  0.91336043562E+02  0.00000000000E+00 0. -1.
<mgrwt>
<rscale>  0 0.66806336E+02</rscale>
<asrwt>0</asrwt>
<pdfrwt beam="1">  1        1 0.27485395E+00 0.94837119E+02</pdfrwt>
<pdfrwt beam="2">  1       -1 0.43740375E-03 0.94837119E+02</pdfrwt>
<totfact> 0.26882295E+04</totfact>
</mgrwt>
</event>
<event>
 6    1  0.1535419E-002  0.9921681E+02  0.7546771E-02  0.1413842E+00
         -2   -1    0    0    0  501 -0.00000000000E+00  0.00000000000E+00  0.33375536699E+02  0.33375536699E+02  0.00000000000E+00 0.  1.
          2   -1    0    0  501    0  0.00000000000E+00 -0.00000000000E+00 -0.11698251085E+03  0.11698251085E+03  0.00000000000E+00 0. -1.
         23    2    1    2    0    0  0.72056768875E+01 -0.73876555368E+01 -0.93304127434E+02  0.13619704421E+03  0.98678647243E+02 0.  0.
         13    1    3    3    0    0 -0.13939489705E+02 -0.19778783705E+02  0.12747912292E+02  0.27349934660E+02  0.00000000000E+00 0.  1.
        -13    1    3    3    0    0  0.21145166593E+02  0.12391128168E+02 -0.10605203973E+03  0.10884710955E+03  0.00000000000E+00 0. -1.
         22    1    1    2    0    0 -0.72056768875E+01  0.73876555368E+01  0.96971532829E+01  0.14161003338E+02  0.00000000000E+00 0.  1.
<mgrwt>
<rscale>  0 0.56345241E+02</rscale>
<asrwt>0</asrwt>
<pdfrwt beam="1">  1        2 0.17997309E-01 0.99216806E+02</pdfrwt>
<pdfrwt beam="2">  1       -2 0.51346979E-02 0.99216806E+02</pdfrwt>
<totfact> 0.51654762E+04</totfact>
</mgrwt>
</event>
<event>
 6    1  0.1535419E-002  0.9258965E+02  0.7546771E-02  0.1389418E+00
          2   -1    0    0  501    0  0.00000000000E+00  0.00000000000E+00  0.12465936683E+03  0.12465936683E+03  0.00000000000E+00 0. -1.
         -2   -1    0    0    0  501 -0.00000000000E+00 -0.00000000000E+00 -0.24834183034E+02  0.24834183034E+02  0.00000000000E+00 0.  1.
         23    2    1    2    0    0  0.14811728187E+02 -0.11378620244E+02  0.83902147853E+02  0.12494964300E+03  0.90686176347E+02 0.  0.
         13    1    3    3    0    0 -0.28489166396E+02 -0.22464758408E+02  0.68781678287E+02  0.77763855615E+02  0.00000000000E+00 0. -1.
        -13    1    3    3    0    0  0.43300894583E+02  0.11086138164E+02  0.15120469567E+02  0.47185787383E+02  0.00000000000E+00 0.  1.
         22    1    1    2    0    0 -0.14811728187E+02  0.11378620244E+02  0.15923035937E+02  0.24543906861E+02  0.00000000000E+00 0. -1.
<mgrwt>
<rscale>  0 0.62051640E+02</rscale>
<asrwt>0</asrwt>
<pdfrwt beam="1">  1        2 0.19178364E-01 0.92589648E+02</pdfrwt>
<pdfrwt beam="2">  1       -2 0.38206436E-02 0.92589648E+02</pdfrwt>
<totfact> 0.73739150E+04</totfact>
</mgrwt>
</event>
<event>
 6    1  0.1535419E-002  0.9418792E+02  0.7546771E-02  0.1371485E+00
         -2   -1    0    0    0  501 -0.00000000000E+00  0.00000000000E+00  0.24640747365E+02  0.24640747365E+02  0.00000000000E+00 0.  1.
          2   -1    0    0  501    0  0.00000000000E+00 -0.00000000000E+00 -0.16550080958E+03  0.16550080958E+03  0.00000000000E+00 0. -1.
         23    2    1    2    0    0 -0.22525340079E+02 -0.75822358156E+01 -0.13670952978E+03  0.16601463909E+03  0.91139912309E+02 0.  0.
         11    1    3    3    0    0 -0.68149684277E+01  0.41764750951E+02 -0.58014335738E+02  0.71808087064E+02  0.00000000000E+00 0.  1.
        -11    1    3    3    0    0 -0.15710371651E+02 -0.49346986767E+02 -0.78695194037E+02  0.94206552028E+02  0.00000000000E+00 0. -1.
         22    1    1    2    0    0  0.22525340079E+02  0.75822358156E+01 -0.41505324404E+01  0.24126917855E+02  0.00000000000E+00 0. -1.
<mgrwt>
<rscale>  0 0.66756116E+02</rscale>
<asrwt>0</asrwt>
<pdfrwt beam="1">  1        2 0.25461663E-01 0.94187923E+02</pdfrwt>
<pdfrwt beam="2">  1       -2 0.37908843E-02 0.94187923E+02</pdfrwt>
<totfact> 0.54663569E+04</totfact>
</mgrwt>
</event>
<event>
 6    1  0.1535419E-002  0.9121064E+02  0.7546771E-02  0.1428611E+00
          2   -1    0    0  501    0  0.00000000000E+00  0.00000000000E+00  0.11697009327E+03  0.11697009327E+03  0.00000000000E+00 0. -1.
         -2   -1    0    0    0  501 -0.00000000000E+00 -0.00000000000E+00 -0.29282277478E+02  0.29282277478E+02  0.00000000000E+00 0.  1.
         23    2    1    2    0    0 -0.10587509382E+02  0.89556677608E-01  0.96274423760E+02  0.13262030518E+03  0.90594024646E+02 0.  0.
         11    1    3    3    0    0  0.86306551770E+01  0.26489260498E+02  0.96004555610E+02  0.99965213091E+02  0.00000000000E+00 0. -1.
        -11    1    3    3    0    0 -0.19218164559E+02 -0.26399703820E+02  0.26986815026E+00  0.32655092093E+02  0.00000000000E+00 0.  1.
         22    1    1    2    0    0  0.10587509382E+02 -0.89556677608E-01 -0.85866079645E+01  0.13632065568E+02  0.00000000000E+00 0.  1.
<mgrwt>
<rscale>  0 0.53239805E+02</rscale>
<asrwt>0</asrwt>
<pdfrwt beam="1">  1        2 0.17995399E-01 0.91210639E+02</pdfrwt>
<pdfrwt beam="2">  1       -2 0.45049658E-02 0.91210639E+02</pdfrwt>
<totfact> 0.62020674E+04</totfact>
</mgrwt>
</event>
<event>
 6    1  0.1535419E-002  0.9185121E+02  0.7546771E-02  0.1422658E+00
          2   -1    0    0  501    0  0.00000000000E+00  0.00000000000E+00  0.54255394982E+03  0.54255394982E+03  0.00000000000E+00 0. -1.
         -2   -1    0    0    0  501 -0.00000000000E+00 -0.00000000000E+00 -0.85971005020E+01  0.85971005020E+01  0.00000000000E+00 0.  1.
         23    2    1    2    0    0  0.18824455601E+01  0.11196449183E+02  0.53169999524E+03  0.53957532287E+03  0.91146804886E+02 0.  0.
         11    1    3    3    0    0  0.19118949502E+02  0.29427023743E+02  0.82221846087E+02  0.89397516355E+02  0.00000000000E+00 0.  1.
        -11    1    3    3    0    0 -0.17236503942E+02 -0.18230574560E+02  0.44947814915E+03  0.45017780652E+03  0.00000000000E+00 0. -1.
         22    1    1    2    0    0 -0.18824455601E+01 -0.11196449183E+02  0.22568540762E+01  0.11575727446E+02  0.00000000000E+00 0.  1.
<mgrwt>
<rscale>  0 0.54462426E+02</rscale>
<asrwt>0</asrwt>
<pdfrwt beam="1">  1        2 0.83469812E-01 0.91851206E+02</pdfrwt>
<pdfrwt beam="2">  1       -2 0.13226313E-02 0.91851206E+02</pdfrwt>
<totfact> 0.70634997E+04</totfact>
</mgrwt>
</event>
<event>
 6    1  0.1535419E-002  0.9062349E+02  0.7546771E-02  0.1420285E+00
          2   -1    0    0  501    0  0.00000000000E+00  0.00000000000E+00  0.42175992779E+02  0.42175992779E+02  0.00000000000E+00 0. -1.
         -2   -1    0    0    0  501 -0.00000000000E+00 -0.00000000000E+00 -0.63266771637E+02  0.63266771637E+02  0.00000000000E+00 0.  1.
         23    2    1    2    0    0  0.11506437859E+02  0.42313355711E+01 -0.15384592458E+02  0.91920084350E+02  0.89790388734E+02 0.  0.
         11    1    3    3    0    0  0.12113106813E+02 -0.17768137250E+02 -0.47986883486E+02  0.52584931727E+02  0.00000000000E+00 0.  1.
        -11    1    3    3    0    0 -0.60666895436E+00  0.21999472822E+02  0.32602291028E+02  0.39335152623E+02  0.00000000000E+00 0. -1.
         22    1    1    2    0    0 -0.11506437859E+02 -0.42313355711E+01 -0.57061863998E+01  0.13522680065E+02  0.00000000000E+00 0.  1.
<mgrwt>
<rscale>  0 0.54960577E+02</rscale>
<asrwt>0</asrwt>
<pdfrwt beam="1">  1        2 0.64886143E-02 0.90623486E+02</pdfrwt>
<pdfrwt beam="2">  1       -2 0.97333495E-02 0.90623486E+02</pdfrwt>
<totfact> 0.65806027E+04</totfact>
</mgrwt>
</event>
<event>
 6    1  0.1535419E-002  0.9381425E+02  0.7546771E-02  0.1369218E+00
          2   -1    0    0  501    0  0.00000000000E+00  0.00000000000E+00  0.65294835517E+03  0.65294835517E+03  0.00000000000E+00 0. -1.
         -2   -1    0    0    0  501 -0.00000000000E+00 -0.00000000000E+00 -0.58751761143E+01  0.58751761143E+01  0.00000000000E+00 0.  1.
         23    2    1    2    0    0  0.11598431690E+02 -0.22114669074E+02  0.57363742314E+03  0.58125812370E+03  0.90429701653E+02 0.  0.
         13    1    3    3    0    0  0.42393266441E+02 -0.22147500560E+02  0.48637935407E+03  0.48872546167E+03  0.00000000000E+00 0. -1.
        -13    1    3    3    0    0 -0.30794834750E+02  0.32831486268E-01  0.87258069064E+02  0.92532662028E+02  0.00000000000E+00 0.  1.
         22    1    1    2    0    0 -0.11598431690E+02  0.22114669074E+02  0.73435755914E+02  0.77565407577E+02  0.00000000000E+00 0.  1.
<mgrwt>
<rscale>  0 0.67385013E+02</rscale>
<asrwt>0</asrwt>
<pdfrwt beam="1">  1        2 0.10045354E+00 0.93814248E+02</pdfrwt>
<pdfrwt beam="2">  1       -2 0.90387376E-03 0.93814248E+02</pdfrwt>
<totfact> 0.98811978E+04</totfact>
</mgrwt>
</event>
<event>
 6    1  0.1535419E-002  0.8682851E+02  0.7546771E-02  0.1395782E+00
          1   -1    0    0  501    0  0.00000000000E+00  0.00000000000E+00  0.37861842105E+02  0.37861842105E+02  0.00000000000E+00 0. -1.
         -1   -1    0    0    0  501 -0.00000000000E+00 -0.00000000000E+00 -0.88742213851E+02  0.88742213851E+02  0.00000000000E+00 0.  1.
         23    2    1    2    0    0  0.20028131319E+02 -0.41530430238E+01 -0.19250671496E+02  0.88936938355E+02  0.84384932543E+02 0.  0.
         13    1    3    3    0    0  0.25199869397E+02  0.32081597693E+02  0.10092371567E+02  0.42025210196E+02  0.00000000000E+00 0. -1.
        -13    1    3    3    0    0 -0.51717380784E+01 -0.36234640717E+02 -0.29343043063E+02  0.46911728159E+02  0.00000000000E+00 0.  1.
         22    1    1    2    0    0 -0.20028131319E+02  0.41530430238E+01 -0.31629700250E+02  0.37667117601E+02  0.00000000000E+00 0. -1.
<mgrwt>
<rscale>  0 0.60491219E+02</rscale>
<asrwt>0</asrwt>
<pdfrwt beam="1">  1        1 0.58248988E-02 0.86828513E+02</pdfrwt>
<pdfrwt beam="2">  1       -1 0.13652648E-01 0.86828513E+02</pdfrwt>
<totfact> 0.43085495E+04</totfact>
</mgrwt>
</event>
<event>
 6    1  0.1535419E-002  0.9392901E+02  0.7546771E-02  0.1414095E+00
         -2   -1    0    0    0  501 -0.00000000000E+00  0.00000000000E+00  0.57070589127E+01  0.57070589127E+01  0.00000000000E+00 0.  1.
          2   -1    0    0  501    0  0.00000000000E+00 -0.00000000000E+00 -0.58747083332E+03  0.58747083332E+03  0.00000000000E+00 0. -1.
         23    2    1    2    0    0 -0.26627600185E+01 -0.11818805606E+02 -0.56341094498E+03  0.57118696672E+03  0.93144423185E+02 0.  0.
         13    1    3    3    0    0 -0.34546836338E+02 -0.34793694296E+02 -0.21255455960E+03  0.21813648450E+03  0.00000000000E+00 0.  1.
        -13    1    3    3    0    0  0.31884076319E+02  0.22974888690E+02 -0.35085638539E+03  0.35305048222E+03  0.00000000000E+00 0. -1.
         22    1    1    2    0    0  0.26627600185E+01  0.11818805606E+02 -0.18352829420E+02  0.21990925505E+02  0.00000000000E+00 0.  1.
<mgrwt>
<rscale>  0 0.56289981E+02</rscale>
<asrwt>0</asrwt>
<pdfrwt beam="1">  1        2 0.90380111E-01 0.93929005E+02</pdfrwt>
<pdfrwt beam="2">  1       -2 0.87800923E-03 0.93929005E+02</pdfrwt>
<totfact> 0.11602384E+05</totfact>
</mgrwt>
</event>
<event>
 6    1  0.1535419E-002  0.9254152E+02  0.7546771E-02  0.1420725E+00
          2   -1    0    0  501    0  0.00000000000E+00  0.00000000000E+00  0.14809975283E+04  0.14809975283E+04  0.00000000000E+00 0. -1.
         -2   -1    0    0    0  501 -0.00000000000E+00 -0.00000000000E+00 -0.20178912907E+01  0.20178912907E+01  0.00000000000E+00 0.  1.
         23    2    1    2    0    0 -0.10089675072E+01 -0.11391140754E+02  0.14149188140E+04  0.14179418832E+04  0.91832225361E+02 0.  0.
         13    1    3    3    0    0  0.60154442521E+00 -0.12779320055E+02  0.14156391527E+04  0.14156969604E+04  0.00000000000E+00 0. -1.
        -13    1    3    3    0    0 -0.16105119324E+01  0.13881793007E+01 -0.72033869968E+00  0.22449227821E+01  0.00000000000E+00 0.  1.
         22    1    1    2    0    0  0.10089675072E+01  0.11391140754E+02  0.64060823008E+02  0.65073536461E+02  0.00000000000E+00 0. -1.
<mgrwt>
<rscale>  0 0.54867925E+02</rscale>
<asrwt>0</asrwt>
<pdfrwt beam="1">  1        2 0.22784490E+00 0.92541524E+02</pdfrwt>
<pdfrwt beam="2">  1       -2 0.31044600E-03 0.92541524E+02</pdfrwt>
<totfact> 0.14335623E+05</totfact>
</mgrwt>
</event>
<event>
 6    1  0.1535419E-002  0.8558567E+02  0.7546771E-02  0.1436146E+00
         -2   -1    0    0    0  501 -0.00000000000E+00  0.00000000000E+00  0.35208138307E+02  0.35208138307E+02  0.00000000000E+00 0. -1.
          2   -1    0    0  501    0  0.00000000000E+00 -0.00000000000E+00 -0.11667919566E+03  0.11667919566E+03  0.00000000000E+00 0.  1.
         23    2    1    2    0    0 -0.17583524900E+00 -0.11435386189E+02 -0.99057320892E+02  0.13090935408E+03  0.84818082901E+02 0.  0.
         11    1    3    3    0    0  0.19854843914E+02 -0.23052017088E+01  0.80610249411E+01  0.21552468649E+02  0.00000000000E+00 0. -1.
        -11    1    3    3    0    0 -0.20030679163E+02 -0.91301844803E+01 -0.10711834583E+03  0.10935688543E+03  0.00000000000E+00 0.  1.
         22    1    1    2    0    0  0.17583524900E+00  0.11435386189E+02  0.17586263536E+02  0.20977979895E+02  0.00000000000E+00 0. -1.
<mgrwt>
<rscale>  0 0.51745944E+02</rscale>
<asrwt>0</asrwt>
<pdfrwt beam="1">  1        2 0.17950645E-01 0.85585666E+02</pdfrwt>
<pdfrwt beam="2">  1       -2 0.54166367E-02 0.85585666E+02</pdfrwt>
<totfact> 0.46892205E+04</totfact>
</mgrwt>
</event>
<event>
 6    1  0.1535419E-002  0.1007729E+03  0.7546771E-02  0.1367462E+00
         -2   -1    0    0    0  501 -0.00000000000E+00  0.00000000000E+00  0.41234583587E+02  0.41234583587E+02  0.00000000000E+00 0.  1.
          2   -1    0    0  501    0  0.00000000000E+00 -0.00000000000E+00 -0.14247015920E+03  0.14247015920E+03  0.00000000000E+00 0. -1.
         23    2    1    2    0    0  0.20105781666E+02  0.51034509294E+01 -0.11932300365E+03  0.15618306550E+03  0.98614821816E+02 0.  0.
         13    1    3    3    0    0  0.14662180075E+01 -0.14795930477E+02  0.13806522923E+02  0.20290131324E+02  0.00000000000E+00 0.  1.
        -13    1    3    3    0    0  0.18639563659E+02  0.19899381407E+02 -0.13312952658E+03  0.13589293418E+03  0.00000000000E+00 0. -1.
         22    1    1    2    0    0 -0.20105781666E+02 -0.51034509294E+01  0.18087428035E+02  0.27521677288E+02  0.00000000000E+00 0.  1.
<mgrwt>
<rscale>  0 0.67877771E+02</rscale>
<asrwt>0</asrwt>
<pdfrwt beam="1">  1        2 0.21918486E-01 0.10077287E+03</pdfrwt>
<pdfrwt beam="2">  1       -2 0.63437820E-02 0.10077287E+03</pdfrwt>
<totfact> 0.30215606E+04</totfact>
</mgrwt>
</event>
<event>
 6    1  0.1535419E-002  0.9546801E+02  0.7546771E-02  0.1402902E+00
         -2   -1    0    0    0  501 -0.00000000000E+00  0.00000000000E+00  0.12927880691E+02  0.12927880691E+02  0.00000000000E+00 0.  1.
          2   -1    0    0  501    0  0.00000000000E+00 -0.00000000000E+00 -0.30276776137E+03  0.30276776137E+03  0.00000000000E+00 0. -1.
         23    2    1    2    0    0  0.13684412203E+02  0.13021513322E+01 -0.28586682705E+03  0.30138676752E+03  0.94473181872E+02 0.  0.
         11    1    3    3    0    0  0.15387418564E+01  0.35546853729E+02 -0.42975804306E+02  0.55793066704E+02  0.00000000000E+00 0.  1.
        -11    1    3    3    0    0  0.12145670346E+02 -0.34244702397E+02 -0.24289102275E+03  0.24559370082E+03  0.00000000000E+00 0. -1.
         22    1    1    2    0    0 -0.13684412203E+02 -0.13021513322E+01 -0.39730536248E+01  0.14308874538E+02  0.00000000000E+00 0.  1.
<mgrwt>
<rscale>  0 0.58808388E+02</rscale>
<asrwt>0</asrwt>
<pdfrwt beam="1">  1        2 0.46579657E-01 0.95468009E+02</pdfrwt>
<pdfrwt beam="2">  1       -2 0.19889047E-02 0.95468009E+02</pdfrwt>
<totfact> 0.73567186E+04</totfact>
</mgrwt>
</event>
<event>
 6    1  0.1535419E-002  0.9436434E+02  0.7546771E-02  0.1367423E+00
         -2   -1    0    0    0  501 -0.00000000000E+00  0.00000000000E+00  0.35420847966E+02  0.35420847966E+02  0.00000000000E+00 0.  1.
          2   -1    0    0  501    0  0.00000000000E+00 -0.00000000000E+00 -0.13619666958E+03  0.13619666958E+03  0.00000000000E+00 0. -1.
         23    2    1    2    0    0  0.17002279644E+02  0.18707663079E+02 -0.10979778434E+03  0.14477631820E+03  0.90915206067E+02 0.  0.
         11    1    3    3    0    0 -0.23417809739E+02  0.18366149496E+02 -0.98365706529E+02  0.10276926331E+03  0.00000000000E+00 0. -1.
        -11    1    3    3    0    0  0.40420089383E+02  0.34151358297E+00 -0.11432077808E+02  0.42007054887E+02  0.00000000000E+00 0.  1.
         22    1    1    2    0    0 -0.17002279644E+02 -0.18707663079E+02  0.90219627258E+01  0.26841199348E+02  0.00000000000E+00 0. -1.
<mgrwt>
<rscale>  0 0.67888802E+02</rscale>
<asrwt>0</asrwt>
<pdfrwt beam="1">  1        2 0.20953334E-01 0.94364341E+02</pdfrwt>
<pdfrwt beam="2">  1       -2 0.54493613E-02 0.94364341E+02</pdfrwt>
<totfact> 0.39588100E+04</totfact>
</mgrwt>
</event>
<event>
 6    1  0.1535419E-002  0.9266806E+02  0.7546771E-02  0.1375895E+00
         -2   -1    0    0    0  501 -0.00000000000E+00  0.00000000000E+00  0.51908777792E+01  0.51908777792E+01  0.00000000000E+00 0.  1.
          2   -1    0    0  501    0  0.00000000000E+00 -0.00000000000E+00 -0.98439180772E+03  0.98439180772E+03  0.00000000000E+00 0. -1.
         23    2    1    2    0    0  0.21962158443E+02 -0.75014176551E+01 -0.93570525266E+03  0.94028277057E+03  0.89714887818E+02 0.  0.
         13    1    3    3    0    0 -0.22292800320E+02 -0.29355936845E+02 -0.23839847340E+03  0.24123136631E+03  0.00000000000E+00 0.  1.
        -13    1    3    3    0    0  0.44254958763E+02  0.21854519190E+02 -0.69730677926E+03  0.69905140426E+03  0.00000000000E+00 0. -1.
         22    1    1    2    0    0 -0.21962158443E+02  0.75014176551E+01 -0.43495677276E+02  0.49299914929E+02  0.00000000000E+00 0.  1.
<mgrwt>
<rscale>  0 0.65555119E+02</rscale>
<asrwt>0</asrwt>
<pdfrwt beam="1">  1        2 0.15144475E+00 0.92668057E+02</pdfrwt>
<pdfrwt beam="2">  1       -2 0.79859736E-03 0.92668057E+02</pdfrwt>
<totfact> 0.70919653E+04</totfact>
</mgrwt>
</event>
<event>
 6    1  0.1535419E-002  0.9630272E+02  0.7546771E-02  0.1397794E+00
          2   -1    0    0  501    0  0.00000000000E+00  0.00000000000E+00  0.13687081603E+02  0.13687081603E+02  0.00000000000E+00 0. -1.
         -2   -1    0    0    0  501 -0.00000000000E+00 -0.00000000000E+00 -0.22902478520E+03  0.22902478520E+03  0.00000000000E+00 0.  1.
         23    2    1    2    0    0 -0.11748357310E+02 -0.85318416014E+01 -0.17362425898E+03  0.19854369181E+03  0.95201880389E+02 0.  0.
         11    1    3    3    0    0 -0.19556871002E+02 -0.49726066341E+02 -0.11082969668E+03  0.12303810200E+03  0.00000000000E+00 0.  1.
        -11    1    3    3    0    0  0.78085136915E+01  0.41194224740E+02 -0.62794562302E+02  0.75505589811E+02  0.00000000000E+00 0. -1.
         22    1    1    2    0    0  0.11748357310E+02  0.85318416014E+01 -0.41713444615E+02  0.44168174994E+02  0.00000000000E+00 0. -1.
<mgrwt>
<rscale>  0 0.60009074E+02</rscale>
<asrwt>0</asrwt>
<pdfrwt beam="1">  1        2 0.21057048E-02 0.96302722E+02</pdfrwt>
<pdfrwt beam="2">  1       -2 0.35234583E-01 0.96302722E+02</pdfrwt>
<totfact> 0.33856795E+04</totfact>
</mgrwt>
</event>
<event>
 6    1  0.1535419E-002  0.9303673E+02  0.7546771E-02  0.1391437E+00
         -2   -1    0    0    0  501 -0.00000000000E+00  0.00000000000E+00  0.14782870004E+03  0.14782870004E+03  0.00000000000E+00 0. -1.
          2   -1    0    0  501    0  0.00000000000E+00 -0.00000000000E+00 -0.46892086241E+02  0.46892086241E+02  0.00000000000E+00 0.  1.
         23    2    1    2    0    0 -0.13718130426E+02 -0.11377704566E+02  0.83039759490E+00  0.93040435247E+02  0.91313710730E+02 0.  0.
         13    1    3    3    0    0  0.39052625272E+02 -0.73618912293E+01 -0.37624733395E+01  0.39918181180E+02  0.00000000000E+00 0. -1.
        -13    1    3    3    0    0 -0.52770755698E+02 -0.40158133365E+01  0.45928709344E+01  0.53122254067E+02  0.00000000000E+00 0.  1.
         22    1    1    2    0    0  0.13718130426E+02  0.11377704566E+02  0.10010621621E+03  0.10168035103E+03  0.00000000000E+00 0. -1.
<mgrwt>
<rscale>  0 0.61550644E+02</rscale>
<asrwt>0</asrwt>
<pdfrwt beam="1">  1        2 0.72141672E-02 0.93036729E+02</pdfrwt>
<pdfrwt beam="2">  1       -2 0.22742877E-01 0.93036729E+02</pdfrwt>
<totfact> 0.14600410E+04</totfact>
</mgrwt>
</event>
<event>
 6    1  0.1535419E-002  0.9364582E+02  0.7546771E-02  0.1418409E+00
          3   -1    0    0  501    0  0.00000000000E+00  0.00000000000E+00  0.39237532263E+03  0.39237532263E+03  0.00000000000E+00 0. -1.
         -3   -1    0    0    0  501 -0.00000000000E+00 -0.00000000000E+00 -0.75602282234E+01  0.75602282234E+01  0.00000000000E+00 0.  1.
         23    2    1    2    0    0  0.14167228888E+01 -0.11348275504E+02  0.36704977478E+03  0.37880744062E+03  0.92944873128E+02 0.  0.
         13    1    3    3    0    0  0.43814281445E+00 -0.30387593643E+02  0.35590866699E+02  0.46800722312E+02  0.00000000000E+00 0.  1.
        -13    1    3    3    0    0  0.97858007434E+00  0.19039318138E+02  0.33145890808E+03  0.33200671831E+03  0.00000000000E+00 0. -1.
         22    1    1    2    0    0 -0.14167228888E+01  0.11348275504E+02  0.17765319623E+02  0.21128110232E+02  0.00000000000E+00 0.  1.
<mgrwt>
<rscale>  0 0.55359010E+02</rscale>
<asrwt>0</asrwt>
<pdfrwt beam="1">  1        3 0.60365418E-01 0.93645822E+02</pdfrwt>
<pdfrwt beam="2">  1       -3 0.11631123E-02 0.93645822E+02</pdfrwt>
<totfact> 0.12297758E+04</totfact>
</mgrwt>
</event>
<event>
 6    1  0.1535419E-002  0.9320164E+02  0.7546771E-02  0.1372954E+00
          2   -1    0    0  501    0  0.00000000000E+00  0.00000000000E+00  0.47742424701E+03  0.47742424701E+03  0.00000000000E+00 0. -1.
         -2   -1    0    0    0  501 -0.00000000000E+00 -0.00000000000E+00 -0.74944256093E+01  0.74944256093E+01  0.00000000000E+00 0.  1.
         23    2    1    2    0    0 -0.21935817025E+02  0.95940851436E+01  0.40828275001E+03  0.41878556480E+03  0.90073962909E+02 0.  0.
         13    1    3    3    0    0  0.25704579512E+02 -0.22946205499E+02  0.18420404223E+03  0.18739899394E+03  0.00000000000E+00 0.  1.
        -13    1    3    3    0    0 -0.47640396536E+02  0.32540290643E+02  0.22407870778E+03  0.23138657086E+03  0.00000000000E+00 0. -1.
         22    1    1    2    0    0  0.21935817025E+02 -0.95940851436E+01  0.61647071391E+02  0.66133107815E+02  0.00000000000E+00 0.  1.
<mgrwt>
<rscale>  0 0.66352676E+02</rscale>
<asrwt>0</asrwt>
<pdfrwt beam="1">  1        2 0.73449860E-01 0.93201638E+02</pdfrwt>
<pdfrwt beam="2">  1       -2 0.11529889E-02 0.93201638E+02</pdfrwt>
<totfact> 0.98829444E+04</totfact>
</mgrwt>
</event>
<event>
 6    1  0.1535419E-002  0.1057105E+03  0.7546771E-02  0.1313113E+00
         -2   -1    0    0    0  501 -0.00000000000E+00  0.00000000000E+00  0.40095938682E+01  0.40095938682E+01  0.00000000000E+00 0.  1.
          2   -1    0    0  501    0  0.00000000000E+00 -0.00000000000E+00 -0.19432384662E+04  0.19432384662E+04  0.00000000000E+00 0. -1.
         23    2    1    2    0    0  0.12568966908E+02  0.44329645220E+02 -0.17191720968E+04  0.17224190566E+04  0.95139957466E+02 0.  0.
         11    1    3    3    0    0 -0.35943662940E+01  0.67513692853E+02 -0.14865080077E+04  0.14880447154E+04  0.00000000000E+00 0.  1.
        -11    1    3    3    0    0  0.16163333202E+02 -0.23184047632E+02 -0.23266408914E+03  0.23437434113E+03  0.00000000000E+00 0. -1.
         22    1    1    2    0    0 -0.12568966908E+02 -0.44329645220E+02 -0.22005677552E+03  0.22482900352E+03  0.00000000000E+00 0.  1.
<mgrwt>
<rscale>  0 0.85893397E+02</rscale>
<asrwt>0</asrwt>
<pdfrwt beam="1">  1        2 0.29895998E+00 0.10571049E+03</pdfrwt>
<pdfrwt beam="2">  1       -2 0.61686015E-03 0.10571049E+03</pdfrwt>
<totfact> 0.32358880E+04</totfact>
</mgrwt>
</event>
<event>
 6    1  0.1535419E-002  0.1004747E+03  0.7546771E-02  0.1329641E+00
          2   -1    0    0  501    0  0.00000000000E+00  0.00000000000E+00  0.12937134015E+04  0.12937134015E+04  0.00000000000E+00 0.  1.
         -2   -1    0    0    0  501 -0.00000000000E+00 -0.00000000000E+00 -0.18656845043E+02  0.18656845043E+02  0.00000000000E+00 0. -1.
         23    2    1    2    0    0 -0.28012247251E+02  0.28504872079E+02  0.12677712686E+04  0.12717464955E+04  0.92184302837E+02 0.  0.
         13    1    3    3    0    0 -0.14599821821E+01  0.58528591888E+02  0.62893846209E+03  0.63165759452E+03  0.00000000000E+00 0. -1.
        -13    1    3    3    0    0 -0.26552265069E+02 -0.30023719809E+02  0.63883280648E+03  0.64008890098E+03  0.00000000000E+00 0.  1.
         22    1    1    2    0    0  0.28012247251E+02 -0.28504872079E+02  0.72852878801E+01  0.40623751030E+02  0.00000000000E+00 0. -1.
<mgrwt>
<rscale>  0 0.79792638E+02</rscale>
<asrwt>0</asrwt>
<pdfrwt beam="1">  1        2 0.19903276E+00 0.10047467E+03</pdfrwt>
<pdfrwt beam="2">  1       -2 0.28702849E-02 0.10047467E+03</pdfrwt>
<totfact> 0.76987232E+03</totfact>
</mgrwt>
</event>
<event>
 6    1  0.1535419E-002  0.8872897E+02  0.7546771E-02  0.1414377E+00
         -1   -1    0    0    0  501 -0.00000000000E+00  0.00000000000E+00  0.62981691968E+01  0.62981691968E+01  0.00000000000E+00 0.  1.
          1   -1    0    0  501    0  0.00000000000E+00 -0.00000000000E+00 -0.10846485988E+04  0.10846485988E+04  0.00000000000E+00 0. -1.
         23    2    1    2    0    0 -0.15777959542E+01  0.14222325071E+02 -0.10713475412E+04  0.10750155277E+04  0.87567498265E+02 0.  0.
         11    1    3    3    0    0 -0.38512723445E+02  0.27626725219E+02 -0.46936157644E+03  0.47174861447E+03  0.00000000000E+00 0.  1.
        -11    1    3    3    0    0  0.36934927491E+02 -0.13404400148E+02 -0.60198596481E+03  0.60326691326E+03  0.00000000000E+00 0. -1.
         22    1    1    2    0    0  0.15777959542E+01 -0.14222325071E+02 -0.70028883210E+01  0.15931240232E+02  0.00000000000E+00 0.  1.
<mgrwt>
<rscale>  0 0.56228408E+02</rscale>
<asrwt>0</asrwt>
<pdfrwt beam="1">  1        1 0.16686881E+00 0.88728973E+02</pdfrwt>
<pdfrwt beam="2">  1       -1 0.96895031E-03 0.88728973E+02</pdfrwt>
<totfact> 0.25007549E+04</totfact>
</mgrwt>
</event>
<event>
 6    1  0.1535419E-002  0.9493485E+02  0.7546771E-02  0.1364401E+00
         -1   -1    0    0    0  501 -0.00000000000E+00  0.00000000000E+00  0.43974842104E+01  0.43974842104E+01  0.00000000000E+00 0.  1.
          1   -1    0    0  501    0  0.00000000000E+00 -0.00000000000E+00 -0.13253300646E+04  0.13253300646E+04  0.00000000000E+00 0. -1.
         23    2    1    2    0    0  0.24988397957E+02  0.75644902305E+01 -0.12582328942E+04  0.12618092730E+04  0.91274222811E+02 0.  0.
         13    1    3    3    0    0  0.16852891148E+02 -0.23753155716E+01 -0.39523441602E+02  0.43032133345E+02  0.00000000000E+00 0.  1.
        -13    1    3    3    0    0  0.81355068083E+01  0.99398058021E+01 -0.12187094526E+04  0.12187771397E+04  0.00000000000E+00 0. -1.
         22    1    1    2    0    0 -0.24988397957E+02 -0.75644902305E+01 -0.62699686131E+02  0.67918275787E+02  0.00000000000E+00 0.  1.
<mgrwt>
<rscale>  0 0.68748583E+02</rscale>
<asrwt>0</asrwt>
<pdfrwt beam="1">  1        1 0.20389710E+00 0.94934848E+02</pdfrwt>
<pdfrwt beam="2">  1       -1 0.67653548E-03 0.94934848E+02</pdfrwt>
<totfact> 0.28717936E+04</totfact>
</mgrwt>
</event>
<event>
 6    1  0.1535419E-002  0.8839377E+02  0.7546771E-02  0.1424891E+00
          1   -1    0    0  501    0  0.00000000000E+00  0.00000000000E+00  0.15723304207E+02  0.15723304207E+02  0.00000000000E+00 0. -1.
         -1   -1    0    0    0  501 -0.00000000000E+00 -0.00000000000E+00 -0.17984843658E+03  0.17984843658E+03  0.00000000000E+00 0.  1.
         23    2    1    2    0    0  0.69861512623E+01 -0.10136639625E+02 -0.11567583727E+03  0.14558282233E+03  0.87532285801E+02 0.  0.
         13    1    3    3    0    0 -0.23773459834E+02 -0.39337948083E+02 -0.58730339689E+02  0.74578176109E+02  0.00000000000E+00 0. -1.
        -13    1    3    3    0    0  0.30759611096E+02  0.29201308458E+02 -0.56945497581E+02  0.71004646222E+02  0.00000000000E+00 0.  1.
         22    1    1    2    0    0 -0.69861512623E+01  0.10136639625E+02 -0.48449295107E+02  0.49988918459E+02  0.00000000000E+00 0.  1.
<mgrwt>
<rscale>  0 0.53999349E+02</rscale>
<asrwt>0</asrwt>
<pdfrwt beam="1">  1        1 0.24189699E-02 0.88393771E+02</pdfrwt>
<pdfrwt beam="2">  1       -1 0.27668990E-01 0.88393771E+02</pdfrwt>
<totfact> 0.46557064E+04</totfact>
</mgrwt>
</event>
<event>
 6    1  0.1535419E-002  0.9562038E+02  0.7546771E-02  0.1344131E+00
         -2   -1    0    0    0  501 -0.00000000000E+00  0.00000000000E+00  0.12855178016E+02  0.12855178016E+02  0.00000000000E+00 0. -1.
          2   -1    0    0  501    0  0.00000000000E+00 -0.00000000000E+00 -0.33706708543E+03  0.33706708543E+03  0.00000000000E+00 0.  1.
         23    2    1    2    0    0 -0.22339442655E+02 -0.28267349464E+02 -0.23452403706E+03  0.25326820076E+03  0.88572929367E+02 0.  0.
         13    1    3    3    0    0 -0.31903040749E+02 -0.55916220437E+02 -0.18332351877E+03  0.19429858530E+03  0.00000000000E+00 0.  1.
        -13    1    3    3    0    0  0.95635980941E+01  0.27648870973E+02 -0.51200518291E+02  0.58969615463E+02  0.00000000000E+00 0. -1.
         22    1    1    2    0    0  0.22339442655E+02  0.28267349464E+02 -0.89687870361E+02  0.96654062687E+02  0.00000000000E+00 0. -1.
<mgrwt>
<rscale>  0 0.74916265E+02</rscale>
<asrwt>0</asrwt>
<pdfrwt beam="1">  1        2 0.51856475E-01 0.95620383E+02</pdfrwt>
<pdfrwt beam="2">  1       -2 0.19777197E-02 0.95620383E+02</pdfrwt>
<totfact> 0.66298527E+04</totfact>
</mgrwt>
</event>
<event>
 6    1  0.1535419E-002  0.1328288E+03  0.7546771E-02  0.1238396E+00
          2   -1    0    0  501    0  0.00000000000E+00  0.00000000000E+00  0.58395593885E+02  0.58395593885E+02  0.00000000000E+00 0. -1.
         -2   -1    0    0    0  501 -0.00000000000E+00 -0.00000000000E+00 -0.22704889262E+03  0.22704889262E+03  0.00000000000E+00 0.  1.
         23    2    1    2    0    0  0.91619329489E+02 -0.32859002036E+02 -0.10205632033E+03  0.16750817707E+03  0.90386289419E+02 0.  0.
         11    1    3    3    0    0  0.10438936706E+03 -0.13752489909E+02 -0.98633603773E+02  0.14427355519E+03  0.00000000000E+00 0.  1.
        -11    1    3    3    0    0 -0.12770037573E+02 -0.19106512127E+02 -0.34227165616E+01  0.23234621881E+02  0.00000000000E+00 0. -1.
         22    1    1    2    0    0 -0.91619329489E+02  0.32859002036E+02 -0.66596978399E+02  0.11793630943E+03  0.00000000000E+00 0. -1.
<mgrwt>
<rscale>  0 0.12289518E+03</rscale>
<asrwt>0</asrwt>
<pdfrwt beam="1">  1        2 0.89839377E-02 0.13282883E+03</pdfrwt>
<pdfrwt beam="2">  1       -2 0.34930598E-01 0.13282883E+03</pdfrwt>
<totfact> 0.53603297E+03</totfact>
</mgrwt>
</event>
<event>
 6    1  0.1535419E-002  0.9600957E+02  0.7546771E-02  0.1362389E+00
         -1   -1    0    0    0  501 -0.00000000000E+00  0.00000000000E+00  0.90776193047E+01  0.90776193047E+01  0.00000000000E+00 0.  1.
          1   -1    0    0  501    0  0.00000000000E+00 -0.00000000000E+00 -0.44161024123E+03  0.44161024123E+03  0.00000000000E+00 0. -1.
         23    2    1    2    0    0 -0.12192577272E+02 -0.23082442529E+02 -0.38112541901E+03  0.39303234384E+03  0.92392533226E+02 0.  0.
         13    1    3    3    0    0 -0.87263294335E+00 -0.43942997515E+02 -0.35510059148E+03  0.35781025501E+03  0.00000000000E+00 0. -1.
        -13    1    3    3    0    0 -0.11319944329E+02  0.20860554986E+02 -0.26024827536E+02  0.35222088839E+02  0.00000000000E+00 0.  1.
         22    1    1    2    0    0  0.12192577272E+02  0.23082442529E+02 -0.51407202912E+02  0.57655516690E+02  0.00000000000E+00 0.  1.
<mgrwt>
<rscale>  0 0.69329138E+02</rscale>
<asrwt>0</asrwt>
<pdfrwt beam="1">  1        1 0.67940040E-01 0.96009574E+02</pdfrwt>
<pdfrwt beam="2">  1       -1 0.13965568E-02 0.96009574E+02</pdfrwt>
<totfact> 0.54579138E+04</totfact>
</mgrwt>
</event>
<event>
 6    1  0.1535419E-002  0.1087622E+03  0.7546771E-02  0.1294621E+00
         -2   -1    0    0    0  501 -0.00000000000E+00  0.00000000000E+00  0.76234849271E+01  0.76234849271E+01  0.00000000000E+00 0.  1.
          2   -1    0    0  501    0  0.00000000000E+00 -0.00000000000E+00 -0.12207546911E+04  0.12207546911E+04  0.00000000000E+00 0. -1.
         23    2    1    2    0    0 -0.59021827427E+02 -0.64181849368E+01 -0.10331202572E+04  0.10388294727E+04  0.91128690027E+02 0.  0.
         13    1    3    3    0    0 -0.75536115041E+02  0.15960469725E+02 -0.62265797771E+03  0.62742601036E+03  0.00000000000E+00 0. -1.
        -13    1    3    3    0    0  0.16514287614E+02 -0.22378654662E+02 -0.41046227952E+03  0.41140346230E+03  0.00000000000E+00 0.  1.
         22    1    1    2    0    0  0.59021827427E+02  0.64181849368E+01 -0.18001094894E+03  0.18954870337E+03  0.00000000000E+00 0.  1.
<mgrwt>
<rscale>  0 0.93486673E+02</rscale>
<asrwt>0</asrwt>
<pdfrwt beam="1">  1        2 0.18780855E+00 0.10876216E+03</pdfrwt>
<pdfrwt beam="2">  1       -2 0.11728430E-02 0.10876216E+03</pdfrwt>
<totfact> 0.30725344E+04</totfact>
</mgrwt>
</event>
<event>
 6    1  0.1535419E-002  0.9336890E+02  0.7546771E-02  0.1387990E+00
         -2   -1    0    0    0  501 -0.00000000000E+00  0.00000000000E+00  0.38073069213E+03  0.38073069213E+03  0.00000000000E+00 0.  1.
          2   -1    0    0  501    0  0.00000000000E+00 -0.00000000000E+00 -0.82384704695E+01  0.82384704695E+01  0.00000000000E+00 0. -1.
         23    2    1    2    0    0  0.99560366764E+01 -0.15755561390E+02  0.30914546837E+03  0.32293756764E+03  0.91489844222E+02 0.  0.
         13    1    3    3    0    0  0.45885712370E+02 -0.29830705830E+02  0.18652157102E+03  0.19438535456E+03  0.00000000000E+00 0. -1.
        -13    1    3    3    0    0 -0.35929675693E+02  0.14075144440E+02  0.12262389735E+03  0.12855221308E+03  0.00000000000E+00 0.  1.
         22    1    1    2    0    0 -0.99560366764E+01  0.15755561390E+02  0.63346753289E+02  0.66031594962E+02  0.00000000000E+00 0.  1.
<mgrwt>
<rscale>  0 0.62409288E+02</rscale>
<asrwt>0</asrwt>
<pdfrwt beam="1">  1        2 0.12674573E-02 0.93368903E+02</pdfrwt>
<pdfrwt beam="2">  1       -2 0.58573939E-01 0.93368903E+02</pdfrwt>
<totfact> 0.25205524E+04</totfact>
</mgrwt>
</event>
<event>
 6    1  0.1535419E-002  0.9189867E+02  0.7546771E-02  0.1400708E+00
          2   -1    0    0  501    0  0.00000000000E+00  0.00000000000E+00  0.84731809758E+01  0.84731809758E+01  0.00000000000E+00 0. -1.
         -2   -1    0    0    0  501 -0.00000000000E+00 -0.00000000000E+00 -0.35385016519E+03  0.35385016519E+03  0.00000000000E+00 0.  1.
         23    2    1    2    0    0  0.14611126676E+02 -0.64068450181E+01 -0.26799296693E+03  0.28331183551E+03  0.90503221642E+02 0.  0.
         11    1    3    3    0    0 -0.10469172035E+01  0.16681129005E+02 -0.31555587127E+01  0.17009222537E+02  0.00000000000E+00 0. -1.
        -11    1    3    3    0    0  0.15658043879E+02 -0.23087974023E+02 -0.26483740822E+03  0.26630261297E+03  0.00000000000E+00 0.  1.
         22    1    1    2    0    0 -0.14611126676E+02  0.64068450181E+01 -0.77384017280E+02  0.79011510657E+02  0.00000000000E+00 0.  1.
<mgrwt>
<rscale>  0 0.59319826E+02</rscale>
<asrwt>0</asrwt>
<pdfrwt beam="1">  1        2 0.13035664E-02 0.91898671E+02</pdfrwt>
<pdfrwt beam="2">  1       -2 0.54438481E-01 0.91898671E+02</pdfrwt>
<totfact> 0.28047071E+04</totfact>
</mgrwt>
</event>
<event>
 6    1  0.1535419E-002  0.1008659E+03  0.7546771E-02  0.1328242E+00
          2   -1    0    0  501    0  0.00000000000E+00  0.00000000000E+00  0.45079335339E+03  0.45079335339E+03  0.00000000000E+00 0. -1.
         -2   -1    0    0    0  501 -0.00000000000E+00 -0.00000000000E+00 -0.32076557191E+02  0.32076557191E+02  0.00000000000E+00 0.  1.
         23    2    1    2    0    0 -0.22696572891E+02 -0.33527724794E+02  0.42932587740E+03  0.44101545616E+03  0.92383336262E+02 0.  0.
         11    1    3    3    0    0 -0.93360704154E+01 -0.44584692731E+02  0.86585730705E+02  0.97836832524E+02  0.00000000000E+00 0.  1.
        -11    1    3    3    0    0 -0.13360502476E+02  0.11056967936E+02  0.34274014669E+03  0.34317862364E+03  0.00000000000E+00 0. -1.
         22    1    1    2    0    0  0.22696572891E+02  0.33527724794E+02 -0.10609081199E+02  0.41854454420E+02  0.00000000000E+00 0.  1.
<mgrwt>
<rscale>  0 0.80285772E+02</rscale>
<asrwt>0</asrwt>
<pdfrwt beam="1">  1        2 0.69352819E-01 0.10086587E+03</pdfrwt>
<pdfrwt beam="2">  1       -2 0.49348553E-02 0.10086587E+03</pdfrwt>
<totfact> 0.12903039E+04</totfact>
</mgrwt>
</event>
<event>
 6    1  0.1535419E-002  0.5731089E+02  0.7546771E-02  0.1503526E+00
         -2   -1    0    0    0  501 -0.00000000000E+00  0.00000000000E+00  0.13593755758E+01  0.13593755758E+01  0.00000000000E+00 0.  1.
          2   -1    0    0  501    0  0.00000000000E+00 -0.00000000000E+00 -0.13526037497E+04  0.13526037497E+04  0.00000000000E+00 0. -1.
         23    2    1    2    0    0  0.13926869118E+02 -0.40242739455E+01 -0.12787438187E+04  0.12800274573E+04  0.55447137699E+02 0.  0.
         11    1    3    3    0    0  0.67799881519E+01 -0.46361134457E+01 -0.26073260667E+02  0.27336362395E+02  0.00000000000E+00 0.  1.
        -11    1    3    3    0    0  0.71468809661E+01  0.61183950014E+00 -0.12526705581E+04  0.12526910949E+04  0.00000000000E+00 0. -1.
         22    1    1    2    0    0 -0.13926869118E+02  0.40242739455E+01 -0.72500555414E+02  0.73935667980E+02  0.00000000000E+00 0.  1.
<mgrwt>
<rscale>  0 0.40643832E+02</rscale>
<asrwt>0</asrwt>
<pdfrwt beam="1">  1        2 0.20809227E+00 0.57310885E+02</pdfrwt>
<pdfrwt beam="2">  1       -2 0.20913532E-03 0.57310885E+02</pdfrwt>
<totfact> 0.26813520E+05</totfact>
</mgrwt>
</event>
<event>
 6    1  0.1535419E-002  0.8816828E+02  0.7546771E-02  0.1437733E+00
         -1   -1    0    0    0  501 -0.00000000000E+00  0.00000000000E+00  0.62362210406E+01  0.62362210406E+01  0.00000000000E+00 0.  1.
          1   -1    0    0  501    0  0.00000000000E+00 -0.00000000000E+00 -0.43312537322E+03  0.43312537322E+03  0.00000000000E+00 0. -1.
         23    2    1    2    0    0  0.63672182114E+01  0.79871519642E+01 -0.41184899710E+03  0.42118077115E+03  0.87574593963E+02 0.  0.
         11    1    3    3    0    0 -0.34353792568E+02  0.62694747906E+01 -0.86412006998E+02  0.93201525371E+02  0.00000000000E+00 0.  1.
        -11    1    3    3    0    0  0.40721010779E+02  0.17176771735E+01 -0.32543699011E+03  0.32797924578E+03  0.00000000000E+00 0. -1.
         22    1    1    2    0    0 -0.63672182114E+01 -0.79871519642E+01 -0.15040155077E+02  0.18180823111E+02  0.00000000000E+00 0.  1.
<mgrwt>
<rscale>  0 0.51438534E+02</rscale>
<asrwt>0</asrwt>
<pdfrwt beam="1">  1        1 0.66634689E-01 0.88168280E+02</pdfrwt>
<pdfrwt beam="2">  1       -1 0.95941839E-03 0.88168280E+02</pdfrwt>
<totfact> 0.93982867E+04</totfact>
</mgrwt>
</event>
<event>
 6    1  0.1535419E-002  0.9220214E+02  0.7546771E-02  0.1413340E+00
         -2   -1    0    0    0  501 -0.00000000000E+00  0.00000000000E+00  0.17187342452E+02  0.17187342452E+02  0.00000000000E+00 0.  1.
          2   -1    0    0  501    0  0.00000000000E+00 -0.00000000000E+00 -0.10955040261E+04  0.10955040261E+04  0.00000000000E+00 0. -1.
         23    2    1    2    0    0  0.10483367834E+02 -0.76190700441E+01 -0.10908044402E+04  0.10946942774E+04  0.91286817528E+02 0.  0.
         11    1    3    3    0    0 -0.18137472065E+02 -0.42631483008E+02 -0.61682229506E+03  0.61855974240E+03  0.00000000000E+00 0. -1.
        -11    1    3    3    0    0  0.28620839899E+02  0.35012412964E+02 -0.47398214511E+03  0.47613453501E+03  0.00000000000E+00 0.  1.
         22    1    1    2    0    0 -0.10483367834E+02  0.76190700441E+01  0.12487756480E+02  0.17997091192E+02  0.00000000000E+00 0.  1.
<mgrwt>
<rscale>  0 0.56455160E+02</rscale>
<asrwt>0</asrwt>
<pdfrwt beam="1">  1        2 0.16853912E+00 0.92202138E+02</pdfrwt>
<pdfrwt beam="2">  1       -2 0.26442059E-02 0.92202138E+02</pdfrwt>
<totfact> 0.11074161E+04</totfact>
</mgrwt>
</event>
<event>
 6    1  0.1535419E-002  0.9589229E+02  0.7546771E-02  0.1392279E+00
         -2   -1    0    0    0  501 -0.00000000000E+00  0.00000000000E+00  0.10637519477E+02  0.10637519477E+02  0.00000000000E+00 0. -1.
          2   -1    0    0  501    0  0.00000000000E+00 -0.00000000000E+00 -0.32407550209E+03  0.32407550209E+03  0.00000000000E+00 0.  1.
         23    2    1    2    0    0  0.15711295707E+02 -0.33239258331E+01 -0.29533985257E+03  0.31051724494E+03  0.94538021931E+02 0.  0.
         13    1    3    3    0    0  0.27528292600E+02  0.40857356057E+02 -0.17417179928E+03  0.18100537589E+03  0.00000000000E+00 0. -1.
        -13    1    3    3    0    0 -0.11816996893E+02 -0.44181281890E+02 -0.12116805329E+03  0.12951186904E+03  0.00000000000E+00 0.  1.
         22    1    1    2    0    0 -0.15711295707E+02  0.33239258331E+01 -0.18098130038E+02  0.24195776628E+02  0.00000000000E+00 0.  1.
<mgrwt>
<rscale>  0 0.61343389E+02</rscale>
<asrwt>0</asrwt>
<pdfrwt beam="1">  1        2 0.49857766E-01 0.95892288E+02</pdfrwt>
<pdfrwt beam="2">  1       -2 0.16365416E-02 0.95892288E+02</pdfrwt>
<totfact> 0.90684468E+04</totfact>
</mgrwt>
</event>
<event>
 6    1  0.1535419E-002  0.9674970E+02  0.7546771E-02  0.1344630E+00
         -1   -1    0    0    0  501 -0.00000000000E+00  0.00000000000E+00  0.15770814360E+03  0.15770814360E+03  0.00000000000E+00 0.  1.
          1   -1    0    0  501    0  0.00000000000E+00 -0.00000000000E+00 -0.32254704365E+02  0.32254704365E+02  0.00000000000E+00 0. -1.
         23    2    1    2    0    0  0.49365936467E+01 -0.34128938768E+02  0.54427943113E+02  0.11100858578E+03  0.90395523707E+02 0.  0.
         11    1    3    3    0    0  0.21181781418E+02 -0.55323887255E+02  0.11339172726E+02  0.60315646420E+02  0.00000000000E+00 0. -1.
        -11    1    3    3    0    0 -0.16245187772E+02  0.21194948486E+02  0.43088770387E+02  0.50692939356E+02  0.00000000000E+00 0.  1.
         22    1    1    2    0    0 -0.49365936467E+01  0.34128938768E+02  0.71025496121E+02  0.78954262187E+02  0.00000000000E+00 0. -1.
<mgrwt>
<rscale>  0 0.74755304E+02</rscale>
<asrwt>0</asrwt>
<pdfrwt beam="1">  1        1 0.49622623E-02 0.96749703E+02</pdfrwt>
<pdfrwt beam="2">  1       -1 0.24262791E-01 0.96749703E+02</pdfrwt>
<totfact> 0.21900377E+04</totfact>
</mgrwt>
</event>
<event>
 6    1  0.1535419E-002  0.9604160E+02  0.7546771E-02  0.1368953E+00
         -2   -1    0    0    0  501 -0.00000000000E+00  0.00000000000E+00  0.62429938689E+01  0.62429938689E+01  0.00000000000E+00 0. -1.
          2   -1    0    0  501    0  0.00000000000E+00 -0.00000000000E+00 -0.85023358036E+03  0.85023358036E+03  0.00000000000E+00 0.  1.
         23    2    1    2    0    0 -0.20629665030E+02  0.10995312628E+02 -0.80715821182E+03  0.81285199626E+03  0.93153147758E+02 0.  0.
         13    1    3    3    0    0 -0.28407803481E+02 -0.32900028891E+02 -0.23695971031E+03  0.24091351043E+03  0.00000000000E+00 0. -1.
        -13    1    3    3    0    0  0.77781384509E+01  0.43895341519E+02 -0.57019850151E+03  0.57193848582E+03  0.00000000000E+00 0.  1.
         22    1    1    2    0    0  0.20629665030E+02 -0.10995312628E+02 -0.36832374673E+02  0.43624577970E+02  0.00000000000E+00 0.  1.
<mgrwt>
<rscale>  0 0.67459221E+02</rscale>
<asrwt>0</asrwt>
<pdfrwt beam="1">  1        2 0.13080523E+00 0.96041600E+02</pdfrwt>
<pdfrwt beam="2">  1       -2 0.96046016E-03 0.96041600E+02</pdfrwt>
<totfact> 0.66335974E+04</totfact>
</mgrwt>
</event>
<event>
 6    1  0.1535419E-002  0.1081873E+03  0.7546771E-02  0.1309379E+00
          2   -1    0    0  501    0  0.00000000000E+00  0.00000000000E+00  0.62532241473E+03  0.62532241473E+03  0.00000000000E+00 0. -1.
         -2   -1    0    0    0  501 -0.00000000000E+00 -0.00000000000E+00 -0.14613985507E+02  0.14613985507E+02  0.00000000000E+00 0.  1.
         23    2    1    2    0    0 -0.24286719300E+02  0.39055822728E+02  0.56438088829E+03  0.57465667082E+03  0.97924972466E+02 0.  0.
         13    1    3    3    0    0 -0.44711746426E+02  0.58074277504E+02  0.48513319208E+03  0.49063833527E+03  0.00000000000E+00 0. -1.
        -13    1    3    3    0    0  0.20425027126E+02 -0.19018454775E+02  0.79247696205E+02  0.84018335552E+02  0.00000000000E+00 0.  1.
         22    1    1    2    0    0  0.24286719300E+02 -0.39055822728E+02  0.46327540938E+02  0.65279729417E+02  0.00000000000E+00 0.  1.
<mgrwt>
<rscale>  0 0.87357729E+02</rscale>
<asrwt>0</asrwt>
<pdfrwt beam="1">  1        2 0.96203428E-01 0.10818735E+03</pdfrwt>
<pdfrwt beam="2">  1       -2 0.22483059E-02 0.10818735E+03</pdfrwt>
<totfact> 0.28694396E+04</totfact>
</mgrwt>
</event>
<event>
 6    1  0.1535419E-002  0.9376011E+02  0.7546771E-02  0.1383114E+00
          2   -1    0    0  501    0  0.00000000000E+00  0.00000000000E+00  0.14469395435E+03  0.14469395435E+03  0.00000000000E+00 0. -1.
         -2   -1    0    0    0  501 -0.00000000000E+00 -0.00000000000E+00 -0.30367363503E+02  0.30367363503E+02  0.00000000000E+00 0.  1.
         23    2    1    2    0    0  0.19914295608E+02  0.26520062281E+00  0.12187079369E+03  0.15376426412E+03  0.91620462041E+02 0.  0.
         13    1    3    3    0    0  0.41370968361E+02 -0.29333523630E+02  0.97278216959E+02  0.10970443987E+03  0.00000000000E+00 0. -1.
        -13    1    3    3    0    0 -0.21456672753E+02  0.29598724252E+02  0.24592576734E+02  0.44059824256E+02  0.00000000000E+00 0.  1.
         22    1    1    2    0    0 -0.19914295608E+02 -0.26520062281E+00 -0.75442028487E+01  0.21297053729E+02  0.00000000000E+00 0.  1.
<mgrwt>
<rscale>  0 0.63652351E+02</rscale>
<asrwt>0</asrwt>
<pdfrwt beam="1">  1        2 0.22260608E-01 0.93760112E+02</pdfrwt>
<pdfrwt beam="2">  1       -2 0.46719022E-02 0.93760112E+02</pdfrwt>
<totfact> 0.46509646E+04</totfact>
</mgrwt>
</event>
<event>
 6    1  0.1535419E-002  0.1273936E+03  0.7546771E-02  0.1248427E+00
          2   -1    0    0  501    0  0.00000000000E+00  0.00000000000E+00  0.15852674393E+04  0.15852674393E+04  0.00000000000E+00 0. -1.
         -2   -1    0    0    0  501 -0.00000000000E+00 -0.00000000000E+00 -0.25730338733E+02  0.25730338733E+02  0.00000000000E+00 0.  1.
         23    2    1    2    0    0  0.90064370509E+02 -0.24717709496E+01  0.14943991392E+04  0.14998192977E+04  0.90063521737E+02 0.  0.
         13    1    3    3    0    0  0.12267121087E+02  0.22827178075E+02  0.82974024704E+03  0.83014483066E+03  0.00000000000E+00 0. -1.
        -13    1    3    3    0    0  0.77797249422E+02 -0.25298949024E+02  0.66465889215E+03  0.66967446700E+03  0.00000000000E+00 0.  1.
         22    1    1    2    0    0 -0.90064370509E+02  0.24717709496E+01  0.65137961400E+02  0.11117848039E+03  0.00000000000E+00 0.  1.
<mgrwt>
<rscale>  0 0.11682611E+03</rscale>
<asrwt>0</asrwt>
<pdfrwt beam="1">  1        2 0.24388722E+00 0.12739364E+03</pdfrwt>
<pdfrwt beam="2">  1       -2 0.39585149E-02 0.12739364E+03</pdfrwt>
<totfact> 0.34071658E+03</totfact>
</mgrwt>
</event>
<event>
 6    1  0.1535419E-002  0.9526591E+02  0.7546771E-02  0.1369878E+00
         -2   -1    0    0    0  501 -0.00000000000E+00  0.00000000000E+00  0.29528378979E+01  0.29528378979E+01  0.00000000000E+00 0.  1.
          2   -1    0    0  501    0  0.00000000000E+00 -0.00000000000E+00 -0.13324503052E+04  0.13324503052E+04  0.00000000000E+00 0. -1.
         23    2    1    2    0    0  0.13555555691E+02  0.19304085692E+02 -0.11999494206E+04  0.12037251372E+04  0.92299476084E+02 0.  0.
         11    1    3    3    0    0  0.19646705170E+02  0.36707368696E+02 -0.23903211532E+03  0.24263094628E+03  0.00000000000E+00 0.  1.
        -11    1    3    3    0    0 -0.60911494788E+01 -0.17403283004E+02 -0.96091730525E+03  0.96109419096E+03  0.00000000000E+00 0. -1.
         22    1    1    2    0    0 -0.13555555691E+02 -0.19304085692E+02 -0.12954804678E+03  0.13167800590E+03  0.00000000000E+00 0.  1.
<mgrwt>
<rscale>  0 0.67201137E+02</rscale>
<asrwt>0</asrwt>
<pdfrwt beam="1">  1        2 0.20499233E+00 0.95265913E+02</pdfrwt>
<pdfrwt beam="2">  1       -2 0.45428281E-03 0.95265913E+02</pdfrwt>
<totfact> 0.10092301E+05</totfact>
</mgrwt>
</event>
<event>
 6    1  0.1535419E-002  0.9232721E+02  0.7546771E-02  0.1413288E+00
          2   -1    0    0  501    0  0.00000000000E+00  0.00000000000E+00  0.31595908526E+03  0.31595908526E+03  0.00000000000E+00 0. -1.
         -2   -1    0    0    0  501 -0.00000000000E+00 -0.00000000000E+00 -0.11994549373E+02  0.11994549373E+02  0.00000000000E+00 0.  1.
         23    2    1    2    0    0 -0.98182263987E+00  0.12880077592E+02  0.30080513250E+03  0.31465543159E+03  0.91419103658E+02 0.  0.
         11    1    3    3    0    0 -0.16211362901E+01  0.32947886233E+02  0.28997008476E+03  0.29184043816E+03  0.00000000000E+00 0. -1.
        -11    1    3    3    0    0  0.63931365028E+00 -0.20067808641E+02  0.10835047747E+02  0.22814993431E+02  0.00000000000E+00 0.  1.
         22    1    1    2    0    0  0.98182263987E+00 -0.12880077592E+02  0.31594033846E+01  0.13298203045E+02  0.00000000000E+00 0.  1.
<mgrwt>
<rscale>  0 0.56466572E+02</rscale>
<asrwt>0</asrwt>
<pdfrwt beam="1">  1        2 0.48609084E-01 0.92327206E+02</pdfrwt>
<pdfrwt beam="2">  1       -2 0.18453155E-02 0.92327206E+02</pdfrwt>
<totfact> 0.77986790E+04</totfact>
</mgrwt>
</event>
<event>
 6    1  0.1535419E-002  0.9351539E+02  0.7546771E-02  0.1398895E+00
         -2   -1    0    0    0  501 -0.00000000000E+00  0.00000000000E+00  0.27756788289E+03  0.27756788289E+03  0.00000000000E+00 0.  1.
          2   -1    0    0  501    0  0.00000000000E+00 -0.00000000000E+00 -0.10940531501E+02  0.10940531501E+02  0.00000000000E+00 0. -1.
         23    2    1    2    0    0 -0.11731358862E+02  0.10255547597E+02  0.24110485329E+03  0.25860525491E+03  0.92208061222E+02 0.  0.
         13    1    3    3    0    0  0.33985398444E+02  0.19319838463E+02  0.16325682089E+03  0.16787213298E+03  0.00000000000E+00 0.  1.
        -13    1    3    3    0    0 -0.45716757306E+02 -0.90642908658E+01  0.77848032400E+02  0.90733121935E+02  0.00000000000E+00 0. -1.
         22    1    1    2    0    0  0.11731358862E+02 -0.10255547597E+02  0.25522498105E+02  0.29903159478E+02  0.00000000000E+00 0.  1.
<mgrwt>
<rscale>  0 0.59747347E+02</rscale>
<asrwt>0</asrwt>
<pdfrwt beam="1">  1        2 0.16831589E-02 0.93515387E+02</pdfrwt>
<pdfrwt beam="2">  1       -2 0.42702746E-01 0.93515387E+02</pdfrwt>
<totfact> 0.31878251E+04</totfact>
</mgrwt>
</event>
<event>
 6    1  0.1535419E-002  0.1029991E+03  0.7546771E-02  0.1318985E+00
          2   -1    0    0  501    0  0.00000000000E+00  0.00000000000E+00  0.38460774879E+03  0.38460774879E+03  0.00000000000E+00 0.  1.
         -2   -1    0    0    0  501 -0.00000000000E+00 -0.00000000000E+00 -0.31454028047E+02  0.31454028047E+02  0.00000000000E+00 0. -1.
         23    2    1    2    0    0  0.28320271683E+01  0.44732445352E+02  0.35653293740E+03  0.37111257050E+03  0.92735066144E+02 0.  0.
         11    1    3    3    0    0 -0.39393458245E+02  0.35533413036E+02  0.25985648277E+03  0.26521662774E+03  0.00000000000E+00 0.  1.
        -11    1    3    3    0    0  0.42225485413E+02  0.91990323160E+01  0.96676454627E+02  0.10589594276E+03  0.00000000000E+00 0. -1.
         22    1    1    2    0    0 -0.28320271683E+01 -0.44732445352E+02 -0.33792166496E+01  0.44949206336E+02  0.00000000000E+00 0. -1.
<mgrwt>
<rscale>  0 0.83656123E+02</rscale>
<asrwt>0</asrwt>
<pdfrwt beam="1">  1        2 0.59170419E-01 0.10299905E+03</pdfrwt>
<pdfrwt beam="2">  1       -2 0.48390815E-02 0.10299905E+03</pdfrwt>
<totfact> 0.15753407E+04</totfact>
</mgrwt>
</event>
<event>
 6    1  0.1535419E-002  0.9163531E+02  0.7546771E-02  0.1425614E+00
          2   -1    0    0  501    0  0.00000000000E+00  0.00000000000E+00  0.23541661917E+03  0.23541661917E+03  0.00000000000E+00 0.  1.
         -2   -1    0    0    0  501 -0.00000000000E+00 -0.00000000000E+00 -0.11784813735E+02  0.11784813735E+02  0.00000000000E+00 0. -1.
         23    2    1    2    0    0 -0.10026982994E+02 -0.43471017961E+01  0.17709121426E+03  0.19939490292E+03  0.90981269840E+02 0.  0.
         11    1    3    3    0    0 -0.24184999981E+02  0.18213287850E+02  0.12653187022E+02  0.32813735236E+02  0.00000000000E+00 0. -1.
        -11    1    3    3    0    0  0.14158016987E+02 -0.22560389646E+02  0.16443802724E+03  0.16658116769E+03  0.00000000000E+00 0.  1.
         22    1    1    2    0    0  0.10026982994E+02  0.43471017961E+01  0.46540591172E+02  0.47806529979E+02  0.00000000000E+00 0.  1.
<mgrwt>
<rscale>  0 0.53850507E+02</rscale>
<asrwt>0</asrwt>
<pdfrwt beam="1">  1        2 0.36217938E-01 0.91635305E+02</pdfrwt>
<pdfrwt beam="2">  1       -2 0.18130484E-02 0.91635305E+02</pdfrwt>
<totfact> 0.10876206E+05</totfact>
</mgrwt>
</event>
<event>
 6    1  0.1535419E-002  0.8915096E+02  0.7546771E-02  0.1378541E+00
          2   -1    0    0  501    0  0.00000000000E+00  0.00000000000E+00  0.59059422525E+03  0.59059422525E+03  0.00000000000E+00 0. -1.
         -2   -1    0    0    0  501 -0.00000000000E+00 -0.00000000000E+00 -0.55215217668E+01  0.55215217668E+01  0.00000000000E+00 0.  1.
         23    2    1    2    0    0 -0.17684886862E+01  0.24896589738E+02  0.44651499925E+03  0.45532794522E+03  0.85585778075E+02 0.  0.
         13    1    3    3    0    0  0.19679057580E+01  0.45877718733E+02  0.12602722123E+03  0.13413239064E+03  0.00000000000E+00 0.  1.
        -13    1    3    3    0    0 -0.37363944442E+01 -0.20981128995E+02  0.32048777802E+03  0.32119555457E+03  0.00000000000E+00 0. -1.
         22    1    1    2    0    0  0.17684886862E+01 -0.24896589738E+02  0.13855770423E+03  0.14078780180E+03  0.00000000000E+00 0.  1.
<mgrwt>
<rscale>  0 0.64848913E+02</rscale>
<asrwt>0</asrwt>
<pdfrwt beam="1">  1        2 0.90860600E-01 0.89150957E+02</pdfrwt>
<pdfrwt beam="2">  1       -2 0.84946536E-03 0.89150957E+02</pdfrwt>
<totfact> 0.11993609E+05</totfact>
</mgrwt>
</event>
<event>
 6    1  0.1535419E-002  0.1426727E+03  0.7546771E-02  0.1222846E+00
         -4   -1    0    0    0  501 -0.00000000000E+00  0.00000000000E+00  0.60026191697E+02  0.60026191697E+02  0.00000000000E+00 0.  1.
          4   -1    0    0  501    0  0.00000000000E+00 -0.00000000000E+00 -0.34433945180E+03  0.34433945180E+03  0.00000000000E+00 0. -1.
         23    2    1    2    0    0  0.44724936251E+02  0.98578601498E+02 -0.58987182813E+02  0.15438584091E+03  0.92937826209E+02 0.  0.
         13    1    3    3    0    0 -0.16482939825E+02  0.55245471896E+02  0.20553689045E+01  0.57688595161E+02  0.00000000000E+00 0.  1.
        -13    1    3    3    0    0  0.61207876075E+02  0.43333129602E+02 -0.61042551718E+02  0.96697245746E+02  0.00000000000E+00 0. -1.
         22    1    1    2    0    0 -0.44724936251E+02 -0.98578601498E+02 -0.22532607729E+03  0.24997980259E+03  0.00000000000E+00 0. -1.
<mgrwt>
<rscale>  0 0.13315658E+03</rscale>
<asrwt>0</asrwt>
<pdfrwt beam="1">  1        4 0.52975300E-01 0.14267270E+03</pdfrwt>
<pdfrwt beam="2">  1       -4 0.92347988E-02 0.14267270E+03</pdfrwt>
<totfact> 0.50082896E+02</totfact>
</mgrwt>
</event>
<event>
 6    1  0.1535419E-002  0.1030700E+03  0.7546771E-02  0.1313516E+00
         -1   -1    0    0    0  501 -0.00000000000E+00  0.00000000000E+00  0.36807480974E+02  0.36807480974E+02  0.00000000000E+00 0.  1.
          1   -1    0    0  501    0  0.00000000000E+00 -0.00000000000E+00 -0.55403744434E+03  0.55403744434E+03  0.00000000000E+00 0. -1.
         23    2    1    2    0    0  0.30388888735E+02 -0.38882373946E+02 -0.52995239145E+03  0.53988235338E+03  0.90488091611E+02 0.  0.
         11    1    3    3    0    0  0.13247344486E+02 -0.13042932082E+02 -0.48452157915E+03  0.48487809899E+03  0.00000000000E+00 0. -1.
        -11    1    3    3    0    0  0.17141544249E+02 -0.25839441863E+02 -0.45430812296E+02  0.55004254389E+02  0.00000000000E+00 0.  1.
         22    1    1    2    0    0 -0.30388888735E+02  0.38882373946E+02  0.12722428081E+02  0.50962571938E+02  0.00000000000E+00 0.  1.
<mgrwt>
<rscale>  0 0.85737080E+02</rscale>
<asrwt>0</asrwt>
<pdfrwt beam="1">  1        1 0.85236530E-01 0.10306997E+03</pdfrwt>
<pdfrwt beam="2">  1       -1 0.56626894E-02 0.10306997E+03</pdfrwt>
<totfact> 0.54382492E+03</totfact>
</mgrwt>
</event>
<event>
 6    1  0.1535419E-002  0.8998353E+02  0.7546771E-02  0.1393183E+00
          2   -1    0    0  501    0  0.00000000000E+00  0.00000000000E+00  0.90260560515E+03  0.90260560515E+03  0.00000000000E+00 0. -1.
         -2   -1    0    0    0  501 -0.00000000000E+00 -0.00000000000E+00 -0.71471058474E+01  0.71471058474E+01  0.00000000000E+00 0.  1.
         23    2    1    2    0    0  0.16324151231E+02 -0.10023195574E+02  0.88142568621E+03  0.88600692808E+03  0.87920952800E+02 0.  0.
         11    1    3    3    0    0 -0.15977337304E+02 -0.10305904666E+02  0.43678023641E+02  0.47636716170E+02  0.00000000000E+00 0.  1.
        -11    1    3    3    0    0  0.32301488535E+02  0.28270909196E+00  0.83774766257E+03  0.83837021191E+03  0.00000000000E+00 0. -1.
         22    1    1    2    0    0 -0.16324151231E+02  0.10023195574E+02  0.14032813098E+02  0.23745782917E+02  0.00000000000E+00 0.  1.
<mgrwt>
<rscale>  0 0.61121924E+02</rscale>
<asrwt>0</asrwt>
<pdfrwt beam="1">  1        2 0.13886231E+00 0.89983534E+02</pdfrwt>
<pdfrwt beam="2">  1       -2 0.10995555E-02 0.89983534E+02</pdfrwt>
<totfact> 0.50380974E+04</totfact>
</mgrwt>
</event>
<event>
 6    1  0.1535419E-002  0.1010207E+03  0.7546771E-02  0.1324518E+00
         -2   -1    0    0    0  501 -0.00000000000E+00  0.00000000000E+00  0.43964619624E+02  0.43964619624E+02  0.00000000000E+00 0.  1.
          2   -1    0    0  501    0  0.00000000000E+00 -0.00000000000E+00 -0.35821065653E+03  0.35821065653E+03  0.00000000000E+00 0. -1.
         23    2    1    2    0    0 -0.35821212070E+02  0.23871863967E+02 -0.33816355298E+03  0.35293024901E+03  0.91390081410E+02 0.  0.
         11    1    3    3    0    0 -0.94714906483E+01  0.56930877078E+02 -0.21951960933E+03  0.22697949859E+03  0.00000000000E+00 0. -1.
        -11    1    3    3    0    0 -0.26349721422E+02 -0.33059013111E+02 -0.11864394365E+03  0.12595075042E+03  0.00000000000E+00 0.  1.
         22    1    1    2    0    0  0.35821212070E+02 -0.23871863967E+02  0.23917516072E+02  0.49245027145E+02  0.00000000000E+00 0.  1.
<mgrwt>
<rscale>  0 0.81619285E+02</rscale>
<asrwt>0</asrwt>
<pdfrwt beam="1">  1        2 0.55109332E-01 0.10102065E+03</pdfrwt>
<pdfrwt beam="2">  1       -2 0.67637876E-02 0.10102065E+03</pdfrwt>
<totfact> 0.10252947E+04</totfact>
</mgrwt>
</event>
<event>
 6    1  0.1535419E-002  0.8713684E+02  0.7546771E-02  0.1436426E+00
          2   -1    0    0  501    0  0.00000000000E+00  0.00000000000E+00  0.70599331727E+03  0.70599331727E+03  0.00000000000E+00 0. -1.
         -2   -1    0    0    0  501 -0.00000000000E+00 -0.00000000000E+00 -0.17203653829E+02  0.17203653829E+02  0.00000000000E+00 0.  1.
         23    2    1    2    0    0  0.72376544079E+01 -0.80041722699E+01  0.70129019103E+03  0.70668292844E+03  0.86466056280E+02 0.  0.
         11    1    3    3    0    0  0.45375339219E+02  0.37367174723E+01  0.44222597989E+03  0.44456349576E+03  0.00000000000E+00 0. -1.
        -11    1    3    3    0    0 -0.38137684811E+02 -0.11740889742E+02  0.25906421114E+03  0.26211943268E+03  0.00000000000E+00 0.  1.
         22    1    1    2    0    0 -0.72376544079E+01  0.80041722699E+01 -0.12500527591E+02  0.16514042664E+02  0.00000000000E+00 0.  1.
<mgrwt>
<rscale>  0 0.51691483E+02</rscale>
<asrwt>0</asrwt>
<pdfrwt beam="1">  1        2 0.10861433E+00 0.87136842E+02</pdfrwt>
<pdfrwt beam="2">  1       -2 0.26467165E-02 0.87136842E+02</pdfrwt>
<totfact> 0.19294841E+04</totfact>
</mgrwt>
</event>
<event>
 6    1  0.1535419E-002  0.9401618E+02  0.7546771E-02  0.1383074E+00
         -4   -1    0    0    0  501 -0.00000000000E+00  0.00000000000E+00  0.13136405367E+03  0.13136405367E+03  0.00000000000E+00 0.  1.
          4   -1    0    0  501    0  0.00000000000E+00 -0.00000000000E+00 -0.26575634029E+02  0.26575634029E+02  0.00000000000E+00 0. -1.
         23    2    1    2    0    0  0.19314836823E+02  0.42018943490E+01  0.67506532663E+02  0.11574184493E+03  0.91914764202E+02 0.  0.
         11    1    3    3    0    0 -0.16797634005E+02  0.28155377605E+02 -0.30640053763E+01  0.32928314946E+02  0.00000000000E+00 0. -1.
        -11    1    3    3    0    0  0.36112470828E+02 -0.23953483256E+02  0.70570538039E+02  0.82813529985E+02  0.00000000000E+00 0.  1.
         22    1    1    2    0    0 -0.19314836823E+02 -0.42018943490E+01  0.37281886980E+02  0.42197842770E+02  0.00000000000E+00 0.  1.
<mgrwt>
<rscale>  0 0.63662693E+02</rscale>
<asrwt>0</asrwt>
<pdfrwt beam="1">  1        4 0.40885592E-02 0.94016183E+02</pdfrwt>
<pdfrwt beam="2">  1       -4 0.20209854E-01 0.94016183E+02</pdfrwt>
<totfact> 0.10717304E+04</totfact>
</mgrwt>
</event>
<event>
 6    1  0.1535419E-002  0.7692953E+02  0.7546771E-02  0.1445500E+00
          3   -1    0    0  501    0  0.00000000000E+00  0.00000000000E+00  0.18999296368E+02  0.18999296368E+02  0.00000000000E+00 0. -1.
         -3   -1    0    0    0  501 -0.00000000000E+00 -0.00000000000E+00 -0.12505721657E+03  0.12505721657E+03  0.00000000000E+00 0.  1.
         23    2    1    2    0    0  0.11735285513E+02  0.70607560733E+01 -0.64798104123E+02  0.10058303108E+03  0.75700598677E+02 0.  0.
         13    1    3    3    0    0  0.24898867430E+02 -0.23397213986E+02 -0.57067125062E+02  0.66513457168E+02  0.00000000000E+00 0.  1.
        -13    1    3    3    0    0 -0.13163581917E+02  0.30457970059E+02 -0.77309790616E+01  0.34069573908E+02  0.00000000000E+00 0. -1.
         22    1    1    2    0    0 -0.11735285513E+02 -0.70607560733E+01 -0.41259816083E+02  0.43473481867E+02  0.00000000000E+00 0.  1.
<mgrwt>
<rscale>  0 0.49970714E+02</rscale>
<asrwt>0</asrwt>
<pdfrwt beam="1">  1        3 0.29229689E-02 0.76929525E+02</pdfrwt>
<pdfrwt beam="2">  1       -3 0.19239571E-01 0.76929525E+02</pdfrwt>
<totfact> 0.24772481E+04</totfact>
</mgrwt>
</event>
<event>
 6    1  0.1535419E-002  0.9611963E+02  0.7546771E-02  0.1359119E+00
          1   -1    0    0  501    0  0.00000000000E+00  0.00000000000E+00  0.83516054979E+03  0.83516054979E+03  0.00000000000E+00 0. -1.
         -1   -1    0    0    0  501 -0.00000000000E+00 -0.00000000000E+00 -0.16713836907E+02  0.16713836907E+02  0.00000000000E+00 0.  1.
         23    2    1    2    0    0  0.25882121065E+02  0.92442411921E+01  0.81876636708E+03  0.82438907490E+03  0.92106692258E+02 0.  0.
         11    1    3    3    0    0 -0.29408533911E+01  0.47850308501E+02  0.40936352330E+03  0.41216112729E+03  0.00000000000E+00 0.  1.
        -11    1    3    3    0    0  0.28822974456E+02 -0.38606067308E+02  0.40940284379E+03  0.41222794761E+03  0.00000000000E+00 0. -1.
         22    1    1    2    0    0 -0.25882121065E+02 -0.92442411921E+01 -0.31965419657E+00  0.27485311802E+02  0.00000000000E+00 0.  1.
<mgrwt>
<rscale>  0 0.70287304E+02</rscale>
<asrwt>0</asrwt>
<pdfrwt beam="1">  1        1 0.12848621E+00 0.96119628E+02</pdfrwt>
<pdfrwt beam="2">  1       -1 0.25713602E-02 0.96119628E+02</pdfrwt>
<totfact> 0.95934030E+03</totfact>
</mgrwt>
</event>
<event>
 6    1  0.1535419E-002  0.9577240E+02  0.7546771E-02  0.1408417E+00
          2   -1    0    0  501    0  0.00000000000E+00  0.00000000000E+00  0.55592531636E+02  0.55592531636E+02  0.00000000000E+00 0. -1.
         -2   -1    0    0    0  501 -0.00000000000E+00 -0.00000000000E+00 -0.83893723017E+02  0.83893723017E+02  0.00000000000E+00 0.  1.
         23    2    1    2    0    0  0.13755336530E+01  0.12409891238E+02  0.12714051556E+02  0.96612630518E+02  0.94955019747E+02 0.  0.
         13    1    3    3    0    0 -0.69191839065E+01  0.48962319938E+02 -0.13035614974E+02  0.51138157353E+02  0.00000000000E+00 0.  1.
        -13    1    3    3    0    0  0.82947175595E+01 -0.36552428700E+02  0.25749666530E+02  0.45474473165E+02  0.00000000000E+00 0. -1.
         22    1    1    2    0    0 -0.13755336530E+01 -0.12409891238E+02 -0.41015242937E+02  0.42873624136E+02  0.00000000000E+00 0.  1.
<mgrwt>
<rscale>  0 0.57548655E+02</rscale>
<asrwt>0</asrwt>
<pdfrwt beam="1">  1        2 0.85526972E-02 0.95772403E+02</pdfrwt>
<pdfrwt beam="2">  1       -2 0.12906727E-01 0.95772403E+02</pdfrwt>
<totfact> 0.30132035E+04</totfact>
</mgrwt>
</event>
<event>
 6    1  0.1535419E-002  0.9497054E+02  0.7546771E-02  0.1376164E+00
          2   -1    0    0  501    0  0.00000000000E+00  0.00000000000E+00  0.59759519186E+02  0.59759519186E+02  0.00000000000E+00 0. -1.
         -2   -1    0    0    0  501 -0.00000000000E+00 -0.00000000000E+00 -0.59100955978E+02  0.59100955978E+02  0.00000000000E+00 0.  1.
         23    2    1    2    0    0 -0.10811449659E+02 -0.18544136298E+02  0.99098301056E+01  0.95486165035E+02  0.92512866919E+02 0.  0.
         13    1    3    3    0    0 -0.94505020625E+01  0.18592923479E+02 -0.32801592005E+02  0.38870981860E+02  0.00000000000E+00 0.  1.
        -13    1    3    3    0    0 -0.13609475967E+01 -0.37137059777E+02  0.42711422110E+02  0.56615183175E+02  0.00000000000E+00 0. -1.
         22    1    1    2    0    0  0.10811449659E+02  0.18544136298E+02 -0.92512668980E+01  0.23374310129E+02  0.00000000000E+00 0. -1.
<mgrwt>
<rscale>  0 0.65482836E+02</rscale>
<asrwt>0</asrwt>
<pdfrwt beam="1">  1        2 0.91937722E-02 0.94970537E+02</pdfrwt>
<pdfrwt beam="2">  1       -2 0.90924547E-02 0.94970537E+02</pdfrwt>
<totfact> 0.47707013E+04</totfact>
</mgrwt>
</event>
<event>
 6    1  0.1535419E-002  0.9906759E+02  0.7546771E-02  0.1338813E+00
         -2   -1    0    0    0  501 -0.00000000000E+00  0.00000000000E+00  0.18376398836E+03  0.18376398836E+03  0.00000000000E+00 0.  1.
          2   -1    0    0  501    0  0.00000000000E+00 -0.00000000000E+00 -0.25820720434E+02  0.25820720434E+02  0.00000000000E+00 0. -1.
         23    2    1    2    0    0 -0.13092017733E+02  0.33015611701E+02  0.13442838815E+03  0.16698915603E+03  0.92482188266E+02 0.  0.
         13    1    3    3    0    0  0.91723881975E+01  0.31997833286E+02  0.27080286306E+01  0.33396518671E+02  0.00000000000E+00 0. -1.
        -13    1    3    3    0    0 -0.22264405930E+02  0.10177784147E+01  0.13172035952E+03  0.13359263736E+03  0.00000000000E+00 0.  1.
         22    1    1    2    0    0  0.13092017733E+02 -0.33015611701E+02  0.23514879768E+02  0.42595552758E+02  0.00000000000E+00 0.  1.
<mgrwt>
<rscale>  0 0.76657852E+02</rscale>
<asrwt>0</asrwt>
<pdfrwt beam="1">  1        2 0.39724186E-02 0.99067586E+02</pdfrwt>
<pdfrwt beam="2">  1       -2 0.28271382E-01 0.99067586E+02</pdfrwt>
<totfact> 0.21688608E+04</totfact>
</mgrwt>
</event>
<event>
 6    1  0.1535419E-002  0.9768578E+02  0.7546771E-02  0.1383312E+00
          2   -1    0    0  501    0  0.00000000000E+00  0.00000000000E+00  0.51545353318E+03  0.51545353318E+03  0.00000000000E+00 0.  1.
         -2   -1    0    0    0  501 -0.00000000000E+00 -0.00000000000E+00 -0.86250095885E+01  0.86250095885E+01  0.00000000000E+00 0. -1.
         23    2    1    2    0    0 -0.19582142375E+01 -0.17444000246E+02  0.49040585143E+03  0.50004040830E+03  0.96095697466E+02 0.  0.
         13    1    3    3    0    0  0.20095970385E+02 -0.14226864248E+02  0.28773652369E+02  0.37870499900E+02  0.00000000000E+00 0. -1.
        -13    1    3    3    0    0 -0.22054184622E+02 -0.32171359987E+01  0.46163219906E+03  0.46216990840E+03  0.00000000000E+00 0.  1.
         22    1    1    2    0    0  0.19582142375E+01  0.17444000246E+02  0.16422672157E+02  0.24038134461E+02  0.00000000000E+00 0. -1.
<mgrwt>
<rscale>  0 0.63601133E+02</rscale>
<asrwt>0</asrwt>
<pdfrwt beam="1">  1        2 0.79300520E-01 0.97685776E+02</pdfrwt>
<pdfrwt beam="2">  1       -2 0.13269250E-02 0.97685776E+02</pdfrwt>
<totfact> 0.74965335E+04</totfact>
</mgrwt>
</event>
<event>
 6    1  0.1535419E-002  0.9382745E+02  0.7546771E-02  0.1409800E+00
         -3   -1    0    0    0  501 -0.00000000000E+00  0.00000000000E+00  0.28741209555E+03  0.28741209555E+03  0.00000000000E+00 0.  1.
          3   -1    0    0  501    0  0.00000000000E+00 -0.00000000000E+00 -0.99393905850E+01  0.99393905850E+01  0.00000000000E+00 0. -1.
         23    2    1    2    0    0 -0.11066076848E+02  0.68117250645E+01  0.24719893341E+03  0.26440670051E+03  0.92923263744E+02 0.  0.
         13    1    3    3    0    0 -0.49855735205E+02  0.18318439499E+02  0.13062051566E+03  0.14100666179E+03  0.00000000000E+00 0.  1.
        -13    1    3    3    0    0  0.38789658357E+02 -0.11506714435E+02  0.11657841774E+03  0.12340003872E+03  0.00000000000E+00 0. -1.
         22    1    1    2    0    0  0.11066076848E+02 -0.68117250645E+01  0.30273771562E+02  0.32944785623E+02  0.00000000000E+00 0.  1.
<mgrwt>
<rscale>  0 0.57238406E+02</rscale>
<asrwt>0</asrwt>
<pdfrwt beam="1">  1        3 0.15291372E-02 0.93827451E+02</pdfrwt>
<pdfrwt beam="2">  1       -3 0.44217239E-01 0.93827451E+02</pdfrwt>
<totfact> 0.15188674E+04</totfact>
</mgrwt>
</event>
<event>
 6    1  0.1535419E-002  0.9689546E+02  0.7546771E-02  0.1343723E+00
         -2   -1    0    0    0  501 -0.00000000000E+00  0.00000000000E+00  0.22873205405E+02  0.22873205405E+02  0.00000000000E+00 0.  1.
          2   -1    0    0  501    0  0.00000000000E+00 -0.00000000000E+00 -0.21163917504E+03  0.21163917504E+03  0.00000000000E+00 0. -1.
         23    2    1    2    0    0 -0.30340266233E+02 -0.17184935129E+02 -0.16796651718E+03  0.19391101381E+03  0.90403963582E+02 0.  0.
         13    1    3    3    0    0 -0.20115078924E+02  0.43987303466E+00  0.41910862664E+01  0.20551766165E+02  0.00000000000E+00 0.  1.
        -13    1    3    3    0    0 -0.10225187309E+02 -0.17624808163E+02 -0.17215760345E+03  0.17335924764E+03  0.00000000000E+00 0. -1.
         22    1    1    2    0    0  0.30340266233E+02  0.17184935129E+02 -0.20799452456E+02  0.40601366639E+02  0.00000000000E+00 0. -1.
<mgrwt>
<rscale>  0 0.75047761E+02</rscale>
<asrwt>0</asrwt>
<pdfrwt beam="1">  1        2 0.32559872E-01 0.96895461E+02</pdfrwt>
<pdfrwt beam="2">  1       -2 0.35189548E-02 0.96895461E+02</pdfrwt>
<totfact> 0.46974688E+04</totfact>
</mgrwt>
</event>
<event>
 6    1  0.1535419E-002  0.9136128E+02  0.7546771E-02  0.1392438E+00
         -2   -1    0    0    0  501 -0.00000000000E+00  0.00000000000E+00  0.24669192248E+01  0.24669192248E+01  0.00000000000E+00 0.  1.
          2   -1    0    0  501    0  0.00000000000E+00 -0.00000000000E+00 -0.19058566497E+04  0.19058566497E+04  0.00000000000E+00 0. -1.
         23    2    1    2    0    0  0.17836138896E+02 -0.49920542764E+01 -0.18404239866E+04  0.18426902439E+04  0.89464159942E+02 0.  0.
         11    1    3    3    0    0  0.16365427544E+02  0.41382635757E+02 -0.80866728597E+03  0.80989081311E+03  0.00000000000E+00 0.  1.
        -11    1    3    3    0    0  0.14707113528E+01 -0.46374690033E+02 -0.10317567007E+04  0.10327994308E+04  0.00000000000E+00 0. -1.
         22    1    1    2    0    0 -0.17836138896E+02  0.49920542764E+01 -0.62965743789E+02  0.65633324977E+02  0.00000000000E+00 0.  1.
<mgrwt>
<rscale>  0 0.61304320E+02</rscale>
<asrwt>0</asrwt>
<pdfrwt beam="1">  1        2 0.29320787E+00 0.91361285E+02</pdfrwt>
<pdfrwt beam="2">  1       -2 0.37952713E-03 0.91361285E+02</pdfrwt>
<totfact> 0.66025780E+04</totfact>
</mgrwt>
</event>
<event>
 6    1  0.1535419E-002  0.9769511E+02  0.7546771E-02  0.1410570E+00
         -2   -1    0    0    0  501 -0.00000000000E+00  0.00000000000E+00  0.24452504725E+03  0.24452504725E+03  0.00000000000E+00 0.  1.
          2   -1    0    0  501    0  0.00000000000E+00 -0.00000000000E+00 -0.12701379740E+02  0.12701379740E+02  0.00000000000E+00 0. -1.
         23    2    1    2    0    0  0.43531737202E+01  0.10508064982E+02  0.18699588027E+03  0.21097818313E+03  0.97030742390E+02 0.  0.
         13    1    3    3    0    0  0.28572565660E+02  0.32626812909E+02  0.35714877736E+02  0.56182318577E+02  0.00000000000E+00 0. -1.
        -13    1    3    3    0    0 -0.24219391940E+02 -0.22118747927E+02  0.15128100253E+03  0.15479586455E+03  0.00000000000E+00 0.  1.
         22    1    1    2    0    0 -0.43531737202E+01 -0.10508064982E+02  0.44827787238E+02  0.46248243856E+02  0.00000000000E+00 0.  1.
<mgrwt>
<rscale>  0 0.57066814E+02</rscale>
<asrwt>0</asrwt>
<pdfrwt beam="1">  1        2 0.19540586E-02 0.97695110E+02</pdfrwt>
<pdfrwt beam="2">  1       -2 0.37619234E-01 0.97695110E+02</pdfrwt>
<totfact> 0.33254383E+04</totfact>
</mgrwt>
</event>
<event>
 6    1  0.1535419E-002  0.1042458E+03  0.7546771E-02  0.1323908E+00
         -2   -1    0    0    0  501 -0.00000000000E+00  0.00000000000E+00  0.68074390260E+01  0.68074390260E+01  0.00000000000E+00 0. -1.
          2   -1    0    0  501    0  0.00000000000E+00 -0.00000000000E+00 -0.15424689974E+04  0.15424689974E+04  0.00000000000E+00 0.  1.
         23    2    1    2    0    0 -0.26216918861E+02  0.29678831172E+02 -0.14614250374E+04  0.14651383304E+04  0.96431463493E+02 0.  0.
         13    1    3    3    0    0  0.11955531153E+01  0.22475465204E+02 -0.13492588299E+04  0.13494465406E+04  0.00000000000E+00 0.  1.
        -13    1    3    3    0    0 -0.27412471976E+02  0.72033659685E+01 -0.11216620756E+03  0.11569178977E+03  0.00000000000E+00 0. -1.
         22    1    1    2    0    0  0.26216918861E+02 -0.29678831172E+02 -0.74236520971E+02  0.84138106113E+02  0.00000000000E+00 0. -1.
<mgrwt>
<rscale>  0 0.81840395E+02</rscale>
<asrwt>0</asrwt>
<pdfrwt beam="1">  1        2 0.23730313E+00 0.10424580E+03</pdfrwt>
<pdfrwt beam="2">  1       -2 0.10472974E-02 0.10424580E+03</pdfrwt>
<totfact> 0.24378502E+04</totfact>
</mgrwt>
</event>
<event>
 6    1  0.1535419E-002  0.9213436E+02  0.7546771E-02  0.1418598E+00
         -1   -1    0    0    0  501 -0.00000000000E+00  0.00000000000E+00  0.17103644212E+03  0.17103644212E+03  0.00000000000E+00 0.  1.
          1   -1    0    0  501    0  0.00000000000E+00 -0.00000000000E+00 -0.17323921351E+02  0.17323921351E+02  0.00000000000E+00 0. -1.
         23    2    1    2    0    0 -0.11674339947E+02  0.26595501353E+01  0.11233645105E+03  0.14528667585E+03  0.91353032376E+02 0.  0.
         11    1    3    3    0    0  0.15276507777E+02 -0.28212427510E+02  0.95914381474E+02  0.10113793220E+03  0.00000000000E+00 0.  1.
        -11    1    3    3    0    0 -0.26950847723E+02  0.30871977645E+02  0.16422069577E+02  0.44148743650E+02  0.00000000000E+00 0. -1.
         22    1    1    2    0    0  0.11674339947E+02 -0.26595501353E+01  0.41376069717E+02  0.43073687622E+02  0.00000000000E+00 0.  1.
<mgrwt>
<rscale>  0 0.55318578E+02</rscale>
<asrwt>0</asrwt>
<pdfrwt beam="1">  1        1 0.26652188E-02 0.92134358E+02</pdfrwt>
<pdfrwt beam="2">  1       -1 0.26313298E-01 0.92134358E+02</pdfrwt>
<totfact> 0.44521807E+04</totfact>
</mgrwt>
</event>
<event>
 6    1  0.1535419E-002  0.9377460E+02  0.7546771E-02  0.1372292E+00
          2   -1    0    0  501    0  0.00000000000E+00  0.00000000000E+00  0.13694701509E+03  0.13694701509E+03  0.00000000000E+00 0. -1.
         -2   -1    0    0    0  501 -0.00000000000E+00 -0.00000000000E+00 -0.32989530056E+02  0.32989530056E+02  0.00000000000E+00 0.  1.
         23    2    1    2    0    0  0.19475045816E+02  0.13617933573E+02  0.11084891768E+03  0.14519351849E+03  0.90713558722E+02 0.  0.
         13    1    3    3    0    0  0.43028617411E+02  0.29057505715E+02  0.30879229207E+02  0.60409662730E+02  0.00000000000E+00 0.  1.
        -13    1    3    3    0    0 -0.23553571595E+02 -0.15439572142E+02  0.79969688477E+02  0.84783855762E+02  0.00000000000E+00 0. -1.
         22    1    1    2    0    0 -0.19475045816E+02 -0.13617933573E+02 -0.68914326453E+01  0.24743026659E+02  0.00000000000E+00 0.  1.
<mgrwt>
<rscale>  0 0.66533993E+02</rscale>
<asrwt>0</asrwt>
<pdfrwt beam="1">  1        2 0.21068771E-01 0.93774598E+02</pdfrwt>
<pdfrwt beam="2">  1       -2 0.50753124E-02 0.93774598E+02</pdfrwt>
<totfact> 0.43712663E+04</totfact>
</mgrwt>
</event>
<event>
 6    1  0.1535419E-002  0.9218429E+02  0.7546771E-02  0.1417782E+00
          2   -1    0    0  501    0  0.00000000000E+00  0.00000000000E+00  0.14910453334E+03  0.14910453334E+03  0.00000000000E+00 0. -1.
         -2   -1    0    0    0  501 -0.00000000000E+00 -0.00000000000E+00 -0.27419971973E+02  0.27419971973E+02  0.00000000000E+00 0.  1.
         23    2    1    2    0    0 -0.12146027909E+01 -0.12044388363E+02  0.13173837464E+03  0.16078850479E+03  0.91386002051E+02 0.  0.
         13    1    3    3    0    0  0.40216596770E+01  0.14469727176E+02 -0.89800758657E+01  0.17498243159E+02  0.00000000000E+00 0.  1.
        -13    1    3    3    0    0 -0.52362624679E+01 -0.26514115540E+02  0.14071845050E+03  0.14329026163E+03  0.00000000000E+00 0. -1.
         22    1    1    2    0    0  0.12146027909E+01  0.12044388363E+02 -0.10053813271E+02  0.15736000517E+02  0.00000000000E+00 0.  1.
<mgrwt>
<rscale>  0 0.55492995E+02</rscale>
<asrwt>0</asrwt>
<pdfrwt beam="1">  1        2 0.22939158E-01 0.92184293E+02</pdfrwt>
<pdfrwt beam="2">  1       -2 0.42184573E-02 0.92184293E+02</pdfrwt>
<totfact> 0.52208473E+04</totfact>
</mgrwt>
</event>
<event>
 6    1  0.1535419E-002  0.9248180E+02  0.7546771E-02  0.1389810E+00
          2   -1    0    0  501    0  0.00000000000E+00  0.00000000000E+00  0.44255460659E+04  0.44255460659E+04  0.00000000000E+00 0. -1.
         -2   -1    0    0    0  501 -0.00000000000E+00 -0.00000000000E+00 -0.32389160458E+01  0.32389160458E+01  0.00000000000E+00 0.  1.
         23    2    1    2    0    0  0.13685796059E+02 -0.12633522311E+02  0.43935487773E+04  0.43945220152E+04  0.90586845087E+02 0.  0.
         11    1    3    3    0    0 -0.39855607643E+01 -0.49504358238E+02  0.19563441823E+04  0.19569744826E+04  0.00000000000E+00 0. -1.
        -11    1    3    3    0    0  0.17671356824E+02  0.36870835927E+02  0.24372045951E+04  0.24375475326E+04  0.00000000000E+00 0.  1.
         22    1    1    2    0    0 -0.13685796059E+02  0.12633522311E+02  0.28758372577E+02  0.34262966787E+02  0.00000000000E+00 0.  1.
<mgrwt>
<rscale>  0 0.61953925E+02</rscale>
<asrwt>0</asrwt>
<pdfrwt beam="1">  1        2 0.68084840E+00 0.92481800E+02</pdfrwt>
<pdfrwt beam="2">  1       -2 0.49829832E-03 0.92481800E+02</pdfrwt>
<totfact> 0.12419820E+03</totfact>
</mgrwt>
</event>
<event>
 6    1  0.1535419E-002  0.9192942E+02  0.7546771E-02  0.1403908E+00
          2   -1    0    0  501    0  0.00000000000E+00  0.00000000000E+00  0.15724668182E+04  0.15724668182E+04  0.00000000000E+00 0. -1.
         -2   -1    0    0    0  501 -0.00000000000E+00 -0.00000000000E+00 -0.12230059656E+02  0.12230059656E+02  0.00000000000E+00 0.  1.
         23    2    1    2    0    0  0.57524631742E+01  0.14018854973E+02  0.15658434711E+04  0.15685397014E+04  0.90671935169E+02 0.  0.
         11    1    3    3    0    0  0.40675585105E+02  0.31364953497E+02  0.74338591916E+03  0.74515829751E+03  0.00000000000E+00 0.  1.
        -11    1    3    3    0    0 -0.34923121931E+02 -0.17346098524E+02  0.82245755192E+03  0.82338140390E+03  0.00000000000E+00 0. -1.
         22    1    1    2    0    0 -0.57524631742E+01 -0.14018854973E+02 -0.56067124935E+01  0.16157176496E+02  0.00000000000E+00 0.  1.
<mgrwt>
<rscale>  0 0.58575622E+02</rscale>
<asrwt>0</asrwt>
<pdfrwt beam="1">  1        2 0.24191781E+00 0.91929424E+02</pdfrwt>
<pdfrwt beam="2">  1       -2 0.18815489E-02 0.91929424E+02</pdfrwt>
<totfact> 0.10118149E+04</totfact>
</mgrwt>
</event>
<event>
 6    1  0.1535419E-002  0.9190640E+02  0.7546771E-02  0.1396370E+00
         -1   -1    0    0    0  501 -0.00000000000E+00  0.00000000000E+00  0.25700848356E+01  0.25700848356E+01  0.00000000000E+00 0.  1.
          1   -1    0    0  501    0  0.00000000000E+00 -0.00000000000E+00 -0.13794447021E+04  0.13794447021E+04  0.00000000000E+00 0. -1.
         23    2    1    2    0    0 -0.67757143573E+01  0.15686119493E+02 -0.13008969906E+04  0.13041394737E+04  0.90304054161E+02 0.  0.
         13    1    3    3    0    0  0.22742532982E+02 -0.25659700060E+02 -0.78468348234E+03  0.78543224435E+03  0.00000000000E+00 0.  1.
        -13    1    3    3    0    0 -0.29518247339E+02  0.41345819552E+02 -0.51621350824E+03  0.51870722938E+03  0.00000000000E+00 0. -1.
         22    1    1    2    0    0  0.67757143573E+01 -0.15686119493E+02 -0.75977626664E+02  0.77875313183E+02  0.00000000000E+00 0.  1.
<mgrwt>
<rscale>  0 0.60349769E+02</rscale>
<asrwt>0</asrwt>
<pdfrwt beam="1">  1        1 0.21222225E+00 0.91906403E+02</pdfrwt>
<pdfrwt beam="2">  1       -1 0.39539768E-03 0.91906403E+02</pdfrwt>
<totfact> 0.55991980E+04</totfact>
</mgrwt>
</event>
<event>
 6    1  0.1535419E-002  0.9318920E+02  0.7546771E-02  0.1366320E+00
         -2   -1    0    0    0  501 -0.00000000000E+00  0.00000000000E+00  0.31195375014E+01  0.31195375014E+01  0.00000000000E+00 0.  1.
          2   -1    0    0  501    0  0.00000000000E+00 -0.00000000000E+00 -0.12606971741E+04  0.12606971741E+04  0.00000000000E+00 0. -1.
         23    2    1    2    0    0 -0.23395387303E+02  0.12937054861E+02 -0.11043073540E+04  0.11082323581E+04  0.89272144828E+02 0.  0.
         13    1    3    3    0    0 -0.26440255674E+02  0.19278104338E+02 -0.10988300242E+04  0.10993171310E+04  0.00000000000E+00 0. -1.
        -13    1    3    3    0    0  0.30448683708E+01 -0.63410494772E+01 -0.54773297819E+01  0.89152270531E+01  0.00000000000E+00 0.  1.
         22    1    1    2    0    0  0.23395387303E+02 -0.12937054861E+02 -0.15327028260E+03  0.15558435353E+03  0.00000000000E+00 0.  1.
<mgrwt>
<rscale>  0 0.68200969E+02</rscale>
<asrwt>0</asrwt>
<pdfrwt beam="1">  1        2 0.19395286E+00 0.93189202E+02</pdfrwt>
<pdfrwt beam="2">  1       -2 0.47993020E-03 0.93189202E+02</pdfrwt>
<totfact> 0.10173478E+05</totfact>
</mgrwt>
</event>
<event>
 6    1  0.1535419E-002  0.9713561E+02  0.7546771E-02  0.1337359E+00
         -2   -1    0    0    0  501 -0.00000000000E+00  0.00000000000E+00  0.23605936087E+02  0.23605936087E+02  0.00000000000E+00 0.  1.
          2   -1    0    0  501    0  0.00000000000E+00 -0.00000000000E+00 -0.22078342531E+03  0.22078342531E+03  0.00000000000E+00 0. -1.
         23    2    1    2    0    0  0.31820157059E+02 -0.21924597418E+02 -0.17414531243E+03  0.19940390225E+03  0.89118550389E+02 0.  0.
         11    1    3    3    0    0  0.61313216269E+02 -0.13416491334E+02 -0.89085685238E+02  0.10897509827E+03  0.00000000000E+00 0.  1.
        -11    1    3    3    0    0 -0.29493059210E+02 -0.85081060834E+01 -0.85059627191E+02  0.90428803976E+02  0.00000000000E+00 0. -1.
         22    1    1    2    0    0 -0.31820157059E+02  0.21924597418E+02 -0.23032176798E+02  0.44985459154E+02  0.00000000000E+00 0. -1.
<mgrwt>
<rscale>  0 0.77143435E+02</rscale>
<asrwt>0</asrwt>
<pdfrwt beam="1">  1        2 0.33966679E-01 0.97135608E+02</pdfrwt>
<pdfrwt beam="2">  1       -2 0.36316826E-02 0.97135608E+02</pdfrwt>
<totfact> 0.42893765E+04</totfact>
</mgrwt>
</event>
<event>
 6    1  0.1535419E-002  0.9039601E+02  0.7546771E-02  0.1398679E+00
          2   -1    0    0  501    0  0.00000000000E+00  0.00000000000E+00  0.45586327076E+03  0.45586327076E+03  0.00000000000E+00 0. -1.
         -2   -1    0    0    0  501 -0.00000000000E+00 -0.00000000000E+00 -0.63907094368E+01  0.63907094368E+01  0.00000000000E+00 0.  1.
         23    2    1    2    0    0 -0.15869033209E+02  0.69160335699E+01  0.38795771086E+03  0.39834987577E+03  0.88723054351E+02 0.  0.
         11    1    3    3    0    0 -0.17110562674E+02 -0.59437919352E+01  0.38456616710E+03  0.38499251538E+03  0.00000000000E+00 0. -1.
        -11    1    3    3    0    0  0.12415294647E+01  0.12859825505E+02  0.33915437534E+01  0.13357360385E+02  0.00000000000E+00 0.  1.
         22    1    1    2    0    0  0.15869033209E+02 -0.69160335699E+01  0.61514850463E+02  0.63904104429E+02  0.00000000000E+00 0. -1.
<mgrwt>
<rscale>  0 0.59798477E+02</rscale>
<asrwt>0</asrwt>
<pdfrwt beam="1">  1        2 0.70132785E-01 0.90396007E+02</pdfrwt>
<pdfrwt beam="2">  1       -2 0.98318642E-03 0.90396007E+02</pdfrwt>
<totfact> 0.12956391E+05</totfact>
</mgrwt>
</event>
<event>
 6    1  0.1535419E-002  0.9382075E+02  0.7546771E-02  0.1411467E+00
          2   -1    0    0  501    0  0.00000000000E+00  0.00000000000E+00  0.22336230010E+03  0.22336230010E+03  0.00000000000E+00 0. -1.
         -2   -1    0    0    0  501 -0.00000000000E+00 -0.00000000000E+00 -0.14056954615E+02  0.14056954615E+02  0.00000000000E+00 0.  1.
         23    2    1    2    0    0 -0.12603725545E+02 -0.12338812728E+01  0.20218073301E+03  0.22288871916E+03  0.92962121137E+02 0.  0.
         11    1    3    3    0    0 -0.10002451243E+02 -0.16376098961E+02 -0.91659628298E+00  0.19211085259E+02  0.00000000000E+00 0.  1.
        -11    1    3    3    0    0 -0.26012743015E+01  0.15142217688E+02  0.20309732929E+03  0.20367763390E+03  0.00000000000E+00 0. -1.
         22    1    1    2    0    0  0.12603725545E+02  0.12338812728E+01  0.71246124710E+01  0.14530535553E+02  0.00000000000E+00 0. -1.
<mgrwt>
<rscale>  0 0.56867836E+02</rscale>
<asrwt>0</asrwt>
<pdfrwt beam="1">  1        2 0.34363428E-01 0.93820746E+02</pdfrwt>
<pdfrwt beam="2">  1       -2 0.21626086E-02 0.93820746E+02</pdfrwt>
<totfact> 0.89562844E+04</totfact>
</mgrwt>
</event>
<event>
 6    1  0.1535419E-002  0.9550157E+02  0.7546771E-02  0.1383325E+00
         -1   -1    0    0    0  501 -0.00000000000E+00  0.00000000000E+00  0.82747949993E+02  0.82747949993E+02  0.00000000000E+00 0.  1.
          1   -1    0    0  501    0  0.00000000000E+00 -0.00000000000E+00 -0.63576789650E+02  0.63576789650E+02  0.00000000000E+00 0. -1.
         23    2    1    2    0    0  0.11609486618E+02  0.14764017230E+02 -0.24664306220E+02  0.98635070814E+02  0.93636492933E+02 0.  0.
         13    1    3    3    0    0  0.23331853834E+02  0.48116118380E+02 -0.32293232526E+02  0.62469105310E+02  0.00000000000E+00 0.  1.
        -13    1    3    3    0    0 -0.11722367216E+02 -0.33352101150E+02  0.76289263062E+01  0.36165965504E+02  0.00000000000E+00 0. -1.
         22    1    1    2    0    0 -0.11609486618E+02 -0.14764017230E+02  0.43835466563E+02  0.47689668829E+02  0.00000000000E+00 0.  1.
<mgrwt>
<rscale>  0 0.63597820E+02</rscale>
<asrwt>0</asrwt>
<pdfrwt beam="1">  1        1 0.97810445E-02 0.95501566E+02</pdfrwt>
<pdfrwt beam="2">  1       -1 0.12730454E-01 0.95501566E+02</pdfrwt>
<totfact> 0.24401220E+04</totfact>
</mgrwt>
</event>
<event>
 6    1  0.1535419E-002  0.9306381E+02  0.7546771E-02  0.1390867E+00
          2   -1    0    0  501    0  0.00000000000E+00  0.00000000000E+00  0.58616074649E+03  0.58616074649E+03  0.00000000000E+00 0. -1.
         -2   -1    0    0    0  501 -0.00000000000E+00 -0.00000000000E+00 -0.60975473973E+01  0.60975473973E+01  0.00000000000E+00 0.  1.
         23    2    1    2    0    0 -0.13323686792E+02 -0.12059017875E+02  0.54467906207E+03  0.55257230524E+03  0.91312273666E+02 0.  0.
         11    1    3    3    0    0 -0.41690096737E+01  0.16039700486E+02  0.15895040427E+02  0.22963121380E+02  0.00000000000E+00 0.  1.
        -11    1    3    3    0    0 -0.91546771187E+01 -0.28098718361E+02  0.52878402164E+03  0.52960918386E+03  0.00000000000E+00 0. -1.
         22    1    1    2    0    0  0.13323686792E+02  0.12059017875E+02  0.35384137024E+02  0.39685988645E+02  0.00000000000E+00 0.  1.
<mgrwt>
<rscale>  0 0.61691585E+02</rscale>
<asrwt>0</asrwt>
<pdfrwt beam="1">  1        2 0.90178532E-01 0.93063805E+02</pdfrwt>
<pdfrwt beam="2">  1       -2 0.93808468E-03 0.93063805E+02</pdfrwt>
<totfact> 0.10578075E+05</totfact>
</mgrwt>
</event>
<event>
 6    1  0.1535419E-002  0.9603979E+02  0.7546771E-02  0.1365871E+00
          2   -1    0    0  501    0  0.00000000000E+00  0.00000000000E+00  0.96000527876E+03  0.96000527876E+03  0.00000000000E+00 0. -1.
         -2   -1    0    0    0  501 -0.00000000000E+00 -0.00000000000E+00 -0.41328999279E+01  0.41328999279E+01  0.00000000000E+00 0.  1.
         23    2    1    2    0    0  0.23669022999E+02 -0.67286223208E+01  0.85176255588E+03  0.85715989938E+03  0.92833962006E+02 0.  0.
         11    1    3    3    0    0 -0.27451805674E+02  0.13992841764E+02  0.51400372890E+03  0.51492643608E+03  0.00000000000E+00 0.  1.
        -11    1    3    3    0    0  0.51120828673E+02 -0.20721464085E+02  0.33775882698E+03  0.34223346330E+03  0.00000000000E+00 0. -1.
         22    1    1    2    0    0 -0.23669022999E+02  0.67286223208E+01  0.10410982295E+03  0.10697827930E+03  0.00000000000E+00 0.  1.
<mgrwt>
<rscale>  0 0.68328582E+02</rscale>
<asrwt>0</asrwt>
<pdfrwt beam="1">  1        2 0.14769294E+00 0.96039791E+02</pdfrwt>
<pdfrwt beam="2">  1       -2 0.63583152E-03 0.96039791E+02</pdfrwt>
<totfact> 0.10156170E+05</totfact>
</mgrwt>
</event>
<event>
 6    1  0.1535419E-002  0.1355198E+03  0.7546771E-02  0.1236278E+00
         -2   -1    0    0    0  501 -0.00000000000E+00  0.00000000000E+00  0.75204636077E+02  0.75204636077E+02  0.00000000000E+00 0.  1.
          2   -1    0    0  501    0  0.00000000000E+00 -0.00000000000E+00 -0.18476977422E+03  0.18476977422E+03  0.00000000000E+00 0. -1.
         23    2    1    2    0    0  0.95696469986E+02  0.12657890960E+00 -0.38829435251E+02  0.14097285546E+03  0.95957232894E+02 0.  0.
         11    1    3    3    0    0  0.39669441993E+02  0.46728831463E+02 -0.27653912943E+02  0.67245722682E+02  0.00000000000E+00 0.  1.
        -11    1    3    3    0    0  0.56027027993E+02 -0.46602252554E+02 -0.11175522308E+02  0.73727132778E+02  0.00000000000E+00 0. -1.
         22    1    1    2    0    0 -0.95696469986E+02 -0.12657890960E+00 -0.70735702890E+02  0.11900155484E+03  0.00000000000E+00 0. -1.
<mgrwt>
<rscale>  0 0.12422991E+03</rscale>
<asrwt>0</asrwt>
<pdfrwt beam="1">  1        2 0.28426119E-01 0.13551982E+03</pdfrwt>
<pdfrwt beam="2">  1       -2 0.11569944E-01 0.13551982E+03</pdfrwt>
<totfact> 0.92208560E+03</totfact>
</mgrwt>
</event>
<event>
 6    1  0.1535419E-002  0.1191094E+03  0.7546771E-02  0.1297533E+00
         -1   -1    0    0    0  501 -0.00000000000E+00  0.00000000000E+00  0.44624306840E+01  0.44624306840E+01  0.00000000000E+00 0.  1.
          1   -1    0    0  501    0  0.00000000000E+00 -0.00000000000E+00 -0.17817573364E+04  0.17817573364E+04  0.00000000000E+00 0. -1.
         23    2    1    2    0    0 -0.37757446790E+02 -0.20209184123E+02 -0.15719797441E+04  0.15764857653E+04  0.11114412467E+03 0.  0.
         11    1    3    3    0    0 -0.58418029951E+02 -0.17814033473E+02 -0.15074548538E+04  0.15086915331E+04  0.00000000000E+00 0. -1.
        -11    1    3    3    0    0  0.20660583161E+02 -0.23951506500E+01 -0.64524890318E+02  0.67794232157E+02  0.00000000000E+00 0.  1.
         22    1    1    2    0    0  0.37757446790E+02  0.20209184123E+02 -0.20531516158E+03  0.20973400174E+03  0.00000000000E+00 0.  1.
<mgrwt>
<rscale>  0 0.92232832E+02</rscale>
<asrwt>0</asrwt>
<pdfrwt beam="1">  1        1 0.27411643E+00 0.11910941E+03</pdfrwt>
<pdfrwt beam="2">  1       -1 0.68652800E-03 0.11910941E+03</pdfrwt>
<totfact> 0.14584644E+04</totfact>
</mgrwt>
</event>
<event>
 6    1  0.1535419E-002  0.1153097E+03  0.7546771E-02  0.1275304E+00
         -1   -1    0    0    0  501 -0.00000000000E+00  0.00000000000E+00  0.59115203119E+01  0.59115203119E+01  0.00000000000E+00 0. -1.
          1   -1    0    0  501    0  0.00000000000E+00 -0.00000000000E+00 -0.15622177582E+04  0.15622177582E+04  0.00000000000E+00 0.  1.
         23    2    1    2    0    0 -0.42414623275E+02 -0.57867542772E+02 -0.11252638504E+04  0.11311565189E+04  0.90270064849E+02 0.  0.
         13    1    3    3    0    0 -0.62043515921E+02 -0.42911852860E+02 -0.10296403427E+04  0.10324001455E+04  0.00000000000E+00 0.  1.
        -13    1    3    3    0    0  0.19628892647E+02 -0.14955689912E+02 -0.95623507636E+02  0.98756373465E+02  0.00000000000E+00 0. -1.
         22    1    1    2    0    0  0.42414623275E+02  0.57867542772E+02 -0.43104238752E+03  0.43697275957E+03  0.00000000000E+00 0. -1.
<mgrwt>
<rscale>  0 0.10241196E+03</rscale>
<asrwt>0</asrwt>
<pdfrwt beam="1">  1        1 0.24034099E+00 0.11530975E+03</pdfrwt>
<pdfrwt beam="2">  1       -1 0.90946542E-03 0.11530975E+03</pdfrwt>
<totfact> 0.13483575E+04</totfact>
</mgrwt>
</event>
<event>
 6    1  0.1535419E-002  0.3254978E+03  0.7546771E-02  0.1074688E+00
          2   -1    0    0  501    0  0.00000000000E+00  0.00000000000E+00  0.89506847392E+03  0.89506847392E+03  0.00000000000E+00 0. -1.
         -2   -1    0    0    0  501 -0.00000000000E+00 -0.00000000000E+00 -0.14576502717E+03  0.14576502717E+03  0.00000000000E+00 0.  1.
         23    2    1    2    0    0  0.71147866311E+02  0.30389252328E+03  0.13617071862E+03  0.35283319086E+03  0.92391078457E+02 0.  0.
         13    1    3    3    0    0  0.68573646682E+02  0.14499023402E+03  0.34156021718E+02  0.16398520299E+03  0.00000000000E+00 0.  1.
        -13    1    3    3    0    0  0.25742196285E+01  0.15890228926E+03  0.10201469690E+03  0.18884798787E+03  0.00000000000E+00 0. -1.
         22    1    1    2    0    0 -0.71147866311E+02 -0.30389252328E+03  0.61313272812E+03  0.68800031023E+03  0.00000000000E+00 0. -1.
<mgrwt>
<rscale>  0 0.32209794E+03</rscale>
<asrwt>0</asrwt>
<pdfrwt beam="1">  1        2 0.13770284E+00 0.32549777E+03</pdfrwt>
<pdfrwt beam="2">  1       -2 0.22425389E-01 0.32549777E+03</pdfrwt>
<totfact> 0.52787452E+02</totfact>
</mgrwt>
</event>
<event>
 6    1  0.1535419E-002  0.9381189E+02  0.7546771E-02  0.1399982E+00
         -2   -1    0    0    0  501 -0.00000000000E+00  0.00000000000E+00  0.22935081828E+01  0.22935081828E+01  0.00000000000E+00 0.  1.
          2   -1    0    0  501    0  0.00000000000E+00 -0.00000000000E+00 -0.16721827365E+04  0.16721827365E+04  0.00000000000E+00 0. -1.
         23    2    1    2    0    0  0.13462146629E+02  0.69953642435E+01 -0.16087465597E+04  0.16114794953E+04  0.92577026162E+02 0.  0.
         11    1    3    3    0    0 -0.98571353684E+00 -0.29377595846E+02 -0.12906012115E+04  0.12909359016E+04  0.00000000000E+00 0. -1.
        -11    1    3    3    0    0  0.14447860165E+02  0.36372960090E+02 -0.31814534818E+03  0.32054359370E+03  0.00000000000E+00 0.  1.
         22    1    1    2    0    0 -0.13462146629E+02 -0.69953642435E+01 -0.61142668644E+02  0.62996749453E+02  0.00000000000E+00 0. -1.
<mgrwt>
<rscale>  0 0.59490580E+02</rscale>
<asrwt>0</asrwt>
<pdfrwt beam="1">  1        2 0.25725849E+00 0.93811888E+02</pdfrwt>
<pdfrwt beam="2">  1       -2 0.35284796E-03 0.93811888E+02</pdfrwt>
<totfact> 0.96040416E+04</totfact>
</mgrwt>
</event>
<event>
 6    1  0.1535419E-002  0.9090785E+02  0.7546771E-02  0.1398933E+00
          2   -1    0    0  501    0  0.00000000000E+00  0.00000000000E+00  0.12782593632E+04  0.12782593632E+04  0.00000000000E+00 0. -1.
         -2   -1    0    0    0  501 -0.00000000000E+00 -0.00000000000E+00 -0.31657109309E+01  0.31657109309E+01  0.00000000000E+00 0.  1.
         23    2    1    2    0    0  0.38589218271E+01 -0.16506355668E+02  0.12282321694E+04  0.12315918559E+04  0.89313418408E+02 0.  0.
         11    1    3    3    0    0 -0.87648280125E+01 -0.32608213132E+02  0.11566559541E+04  0.11571487001E+04  0.00000000000E+00 0. -1.
        -11    1    3    3    0    0  0.12623749840E+02  0.16101857463E+02  0.71576215221E+02  0.74443155892E+02  0.00000000000E+00 0.  1.
         22    1    1    2    0    0 -0.38589218271E+01  0.16506355668E+02  0.46861482930E+02  0.49833218213E+02  0.00000000000E+00 0.  1.
<mgrwt>
<rscale>  0 0.59738271E+02</rscale>
<asrwt>0</asrwt>
<pdfrwt beam="1">  1        2 0.19665487E+00 0.90907853E+02</pdfrwt>
<pdfrwt beam="2">  1       -2 0.48703347E-03 0.90907853E+02</pdfrwt>
<totfact> 0.97242889E+04</totfact>
</mgrwt>
</event>
<event>
 6    1  0.1535419E-002  0.9301119E+02  0.7546771E-02  0.1370843E+00
         -2   -1    0    0    0  501 -0.00000000000E+00  0.00000000000E+00  0.11855810922E+03  0.11855810922E+03  0.00000000000E+00 0.  1.
          2   -1    0    0  501    0  0.00000000000E+00 -0.00000000000E+00 -0.21710939960E+04  0.21710939960E+04  0.00000000000E+00 0. -1.
         23    2    1    2    0    0 -0.24890561679E+02 -0.16345987854E+01 -0.21687740579E+04  0.21707676050E+04  0.89603954201E+02 0.  0.
         11    1    3    3    0    0 -0.97802415413E+01 -0.21624296684E+02 -0.20002473043E+04  0.20003880978E+04  0.00000000000E+00 0. -1.
        -11    1    3    3    0    0 -0.15110320138E+02  0.19989697899E+02 -0.16852675361E+03  0.17037950722E+03  0.00000000000E+00 0.  1.
         22    1    1    2    0    0  0.24890561679E+02  0.16345987854E+01  0.11623817112E+03  0.11888450025E+03  0.00000000000E+00 0.  1.
<mgrwt>
<rscale>  0 0.66933522E+02</rscale>
<asrwt>0</asrwt>
<pdfrwt beam="1">  1        2 0.33401444E+00 0.93011185E+02</pdfrwt>
<pdfrwt beam="2">  1       -2 0.18239710E-01 0.93011185E+02</pdfrwt>
<totfact> 0.16211257E+02</totfact>
</mgrwt>
</event>
<event>
 6    1  0.1535419E-002  0.9215253E+02  0.7546771E-02  0.1412173E+00
          1   -1    0    0  501    0  0.00000000000E+00  0.00000000000E+00  0.21203307753E+02  0.21203307753E+02  0.00000000000E+00 0. -1.
         -1   -1    0    0    0  501 -0.00000000000E+00 -0.00000000000E+00 -0.13095569719E+03  0.13095569719E+03  0.00000000000E+00 0.  1.
         23    2    1    2    0    0 -0.10033783300E+02 -0.86048864600E+01 -0.95040058576E+02  0.13238089690E+03  0.91199606644E+02 0.  0.
         11    1    3    3    0    0 -0.32500842863E+02 -0.41081810314E+02 -0.49057747236E+02  0.71768255443E+02  0.00000000000E+00 0.  1.
        -11    1    3    3    0    0  0.22467059563E+02  0.32476923854E+02 -0.45982311340E+02  0.60612641459E+02  0.00000000000E+00 0. -1.
         22    1    1    2    0    0  0.10033783300E+02  0.86048864600E+01 -0.14712330860E+02  0.19778108040E+02  0.00000000000E+00 0. -1.
<mgrwt>
<rscale>  0 0.56711816E+02</rscale>
<asrwt>0</asrwt>
<pdfrwt beam="1">  1        1 0.32620475E-02 0.92152532E+02</pdfrwt>
<pdfrwt beam="2">  1       -1 0.20147030E-01 0.92152532E+02</pdfrwt>
<totfact> 0.51912214E+04</totfact>
</mgrwt>
</event>
<event>
 6    1  0.1535419E-002  0.9765086E+02  0.7546771E-02  0.1339506E+00
          1   -1    0    0  501    0  0.00000000000E+00  0.00000000000E+00  0.11072594174E+02  0.11072594174E+02  0.00000000000E+00 0. -1.
         -1   -1    0    0    0  501 -0.00000000000E+00 -0.00000000000E+00 -0.41266778835E+03  0.41266778835E+03  0.00000000000E+00 0.  1.
         23    2    1    2    0    0 -0.23860264390E+02  0.27808066712E+02 -0.31259904443E+03  0.32749634135E+03  0.90515690522E+02 0.  0.
         11    1    3    3    0    0 -0.84349314599E+01  0.58432530061E+02 -0.24076567087E+03  0.24789840037E+03  0.00000000000E+00 0. -1.
        -11    1    3    3    0    0 -0.15425332930E+02 -0.30624463349E+02 -0.71833373564E+02  0.79597940984E+02  0.00000000000E+00 0.  1.
         22    1    1    2    0    0  0.23860264390E+02 -0.27808066712E+02 -0.88996149752E+02  0.96244041175E+02  0.00000000000E+00 0.  1.
<mgrwt>
<rscale>  0 0.76427636E+02</rscale>
<asrwt>0</asrwt>
<pdfrwt beam="1">  1        1 0.17034759E-02 0.97650863E+02</pdfrwt>
<pdfrwt beam="2">  1       -1 0.63487356E-01 0.97650863E+02</pdfrwt>
<totfact> 0.17765011E+04</totfact>
</mgrwt>
</event>
<event>
 6    1  0.1535419E-002  0.9719076E+02  0.7546771E-02  0.1350741E+00
          4   -1    0    0  501    0  0.00000000000E+00  0.00000000000E+00  0.46606403263E+02  0.46606403263E+02  0.00000000000E+00 0.  1.
         -4   -1    0    0    0  501 -0.00000000000E+00 -0.00000000000E+00 -0.13264682436E+03  0.13264682436E+03  0.00000000000E+00 0. -1.
         23    2    1    2    0    0  0.16503610183E+02  0.25812726520E+02 -0.10524505754E+02  0.97758936598E+02  0.92235451231E+02 0.  0.
         11    1    3    3    0    0 -0.16942475784E+02  0.38413609844E+02 -0.34818141631E+02  0.54543156248E+02  0.00000000000E+00 0. -1.
        -11    1    3    3    0    0  0.33446085967E+02 -0.12600883323E+02  0.24293635877E+02  0.43215780349E+02  0.00000000000E+00 0.  1.
         22    1    1    2    0    0 -0.16503610183E+02 -0.25812726520E+02 -0.75515915342E+02  0.81494291023E+02  0.00000000000E+00 0. -1.
<mgrwt>
<rscale>  0 0.72825358E+02</rscale>
<asrwt>0</asrwt>
<pdfrwt beam="1">  1        4 0.71702160E-02 0.97190763E+02</pdfrwt>
<pdfrwt beam="2">  1       -4 0.20407203E-01 0.97190763E+02</pdfrwt>
<totfact> 0.43194042E+03</totfact>
</mgrwt>
</event>
<event>
 6    1  0.1535419E-002  0.8968692E+02  0.7546771E-02  0.1404613E+00
          1   -1    0    0  501    0  0.00000000000E+00  0.00000000000E+00  0.78705154752E+03  0.78705154752E+03  0.00000000000E+00 0. -1.
         -1   -1    0    0    0  501 -0.00000000000E+00 -0.00000000000E+00 -0.49272041502E+01  0.49272041502E+01  0.00000000000E+00 0.  1.
         23    2    1    2    0    0  0.40274692705E+01 -0.15627910058E+02  0.75578903115E+03  0.76109184908E+03  0.88222962197E+02 0.  0.
         11    1    3    3    0    0  0.21935162362E+02 -0.47373331471E+02  0.50023619223E+03  0.50295291221E+03  0.00000000000E+00 0.  1.
        -11    1    3    3    0    0 -0.17907693092E+02  0.31745421413E+02  0.25555283891E+03  0.25813893687E+03  0.00000000000E+00 0. -1.
         22    1    1    2    0    0 -0.40274692705E+01  0.15627910058E+02  0.26335312225E+02  0.30886902589E+02  0.00000000000E+00 0. -1.
<mgrwt>
<rscale>  0 0.58413443E+02</rscale>
<asrwt>0</asrwt>
<pdfrwt beam="1">  1        1 0.12108475E+00 0.89686917E+02</pdfrwt>
<pdfrwt beam="2">  1       -1 0.75803203E-03 0.89686917E+02</pdfrwt>
<totfact> 0.58939898E+04</totfact>
</mgrwt>
</event>
<event>
 6    1  0.1535419E-002  0.9796118E+02  0.7546771E-02  0.1369774E+00
          2   -1    0    0  501    0  0.00000000000E+00  0.00000000000E+00  0.10904824632E+04  0.10904824632E+04  0.00000000000E+00 0.  1.
         -2   -1    0    0    0  501 -0.00000000000E+00 -0.00000000000E+00 -0.45937025650E+01  0.45937025650E+01  0.00000000000E+00 0. -1.
         23    2    1    2    0    0 -0.17032441007E+02  0.13496746565E+02  0.10364845860E+04  0.10411035923E+04  0.95520294570E+02 0.  0.
         13    1    3    3    0    0 -0.14454427493E+02  0.31074516918E+02  0.12990006073E+03  0.13434501053E+03  0.00000000000E+00 0. -1.
        -13    1    3    3    0    0 -0.25780135142E+01 -0.17577770352E+02  0.90658452528E+03  0.90675858179E+03  0.00000000000E+00 0.  1.
         22    1    1    2    0    0  0.17032441007E+02 -0.13496746565E+02  0.49404174602E+02  0.53972573430E+02  0.00000000000E+00 0. -1.
<mgrwt>
<rscale>  0 0.67230117E+02</rscale>
<asrwt>0</asrwt>
<pdfrwt beam="1">  1        2 0.16776633E+00 0.97961181E+02</pdfrwt>
<pdfrwt beam="2">  1       -2 0.70672434E-03 0.97961181E+02</pdfrwt>
<totfact> 0.73651299E+04</totfact>
</mgrwt>
</event>
<event>
 6    1  0.1535419E-002  0.9585872E+02  0.7546771E-02  0.1393161E+00
         -2   -1    0    0    0  501 -0.00000000000E+00  0.00000000000E+00  0.16236276472E+02  0.16236276472E+02  0.00000000000E+00 0.  1.
          2   -1    0    0  501    0  0.00000000000E+00 -0.00000000000E+00 -0.10992630223E+04  0.10992630223E+04  0.00000000000E+00 0. -1.
         23    2    1    2    0    0 -0.22201933533E+01  0.15694235934E+02 -0.10927221538E+04  0.10969186843E+04  0.94539177660E+02 0.  0.
         13    1    3    3    0    0  0.10834115387E+02 -0.38499552583E+02 -0.42965836398E+03  0.43151582051E+03  0.00000000000E+00 0. -1.
        -13    1    3    3    0    0 -0.13054308740E+02  0.54193788517E+02 -0.66306378985E+03  0.66540286376E+03  0.00000000000E+00 0.  1.
         22    1    1    2    0    0  0.22201933533E+01 -0.15694235934E+02  0.96954079869E+01  0.18580614524E+02  0.00000000000E+00 0.  1.
<mgrwt>
<rscale>  0 0.61127193E+02</rscale>
<asrwt>0</asrwt>
<pdfrwt beam="1">  1        2 0.16911742E+00 0.95858721E+02</pdfrwt>
<pdfrwt beam="2">  1       -2 0.24978882E-02 0.95858721E+02</pdfrwt>
<totfact> 0.11997612E+04</totfact>
</mgrwt>
</event>
<event>
 6    1  0.1535419E-002  0.9208632E+02  0.7546771E-02  0.1427654E+00
          2   -1    0    0  501    0  0.00000000000E+00  0.00000000000E+00  0.95073945711E+03  0.95073945711E+03  0.00000000000E+00 0. -1.
         -2   -1    0    0    0  501 -0.00000000000E+00 -0.00000000000E+00 -0.32351487314E+01  0.32351487314E+01  0.00000000000E+00 0.  1.
         23    2    1    2    0    0 -0.89858685518E+01  0.53138647124E+01  0.91929354362E+03  0.92389420957E+03  0.91492667117E+02 0.  0.
         13    1    3    3    0    0 -0.25420997033E+02  0.13468812383E+02  0.91909327072E+02  0.96306595828E+02  0.00000000000E+00 0.  1.
        -13    1    3    3    0    0  0.16435128481E+02 -0.81549476706E+01  0.82738421655E+03  0.82758761374E+03  0.00000000000E+00 0. -1.
         22    1    1    2    0    0  0.89858685518E+01 -0.53138647124E+01  0.28210764753E+02  0.30080396270E+02  0.00000000000E+00 0.  1.
<mgrwt>
<rscale>  0 0.53433816E+02</rscale>
<asrwt>0</asrwt>
<pdfrwt beam="1">  1        2 0.14626739E+00 0.92086324E+02</pdfrwt>
<pdfrwt beam="2">  1       -2 0.49771595E-03 0.92086324E+02</pdfrwt>
<totfact> 0.14429435E+05</totfact>
</mgrwt>
</event>
<event>
 6    1  0.1535419E-002  0.8443932E+02  0.7546771E-02  0.1444342E+00
         -2   -1    0    0    0  501 -0.00000000000E+00  0.00000000000E+00  0.45118105048E+02  0.45118105048E+02  0.00000000000E+00 0.  1.
          2   -1    0    0  501    0  0.00000000000E+00 -0.00000000000E+00 -0.10148758726E+03  0.10148758726E+03  0.00000000000E+00 0. -1.
         23    2    1    2    0    0 -0.59832540080E+01 -0.86726572971E+01 -0.82732902844E+02  0.11821477368E+03  0.83779384042E+02 0.  0.
         11    1    3    3    0    0  0.23308455284E+02  0.71182758601E+01  0.45600623966E+01  0.24794114383E+02  0.00000000000E+00 0.  1.
        -11    1    3    3    0    0 -0.29291709292E+02 -0.15790933157E+02 -0.87292965241E+02  0.93420659298E+02  0.00000000000E+00 0. -1.
         22    1    1    2    0    0  0.59832540080E+01  0.86726572971E+01  0.26363420631E+02  0.28390918627E+02  0.00000000000E+00 0.  1.
<mgrwt>
<rscale>  0 0.50185810E+02</rscale>
<asrwt>0</asrwt>
<pdfrwt beam="1">  1        2 0.15613475E-01 0.84439324E+02</pdfrwt>
<pdfrwt beam="2">  1       -2 0.69412469E-02 0.84439324E+02</pdfrwt>
<totfact> 0.37824743E+04</totfact>
</mgrwt>
</event>
<event>
 6    1  0.1535419E-002  0.1108541E+03  0.7546771E-02  0.1296870E+00
          2   -1    0    0  501    0  0.00000000000E+00  0.00000000000E+00  0.10235619755E+03  0.10235619755E+03  0.00000000000E+00 0. -1.
         -2   -1    0    0    0  501 -0.00000000000E+00 -0.00000000000E+00 -0.13262854824E+03  0.13262854824E+03  0.00000000000E+00 0.  1.
         23    2    1    2    0    0 -0.20813624936E+02 -0.49588271426E+02  0.62862829086E+02  0.12743770790E+03  0.96935186950E+02 0.  0.
         13    1    3    3    0    0  0.33506944745E-01  0.25414143260E+01  0.70703557002E+02  0.70749225312E+02  0.00000000000E+00 0. -1.
        -13    1    3    3    0    0 -0.20847131881E+02 -0.52129685752E+02 -0.78407279163E+01  0.56688482591E+02  0.00000000000E+00 0.  1.
         22    1    1    2    0    0  0.20813624936E+02  0.49588271426E+02 -0.93135179774E+02  0.10754703788E+03  0.00000000000E+00 0.  1.
<mgrwt>
<rscale>  0 0.92516131E+02</rscale>
<asrwt>0</asrwt>
<pdfrwt beam="1">  1        2 0.15747107E-01 0.11085411E+03</pdfrwt>
<pdfrwt beam="2">  1       -2 0.20404392E-01 0.11085411E+03</pdfrwt>
<totfact> 0.69570858E+03</totfact>
</mgrwt>
</event>
<event>
 6    1  0.1535419E-002  0.9657845E+02  0.7546771E-02  0.1413880E+00
          2   -1    0    0  501    0  0.00000000000E+00  0.00000000000E+00  0.11760374679E+03  0.11760374679E+03  0.00000000000E+00 0. -1.
         -2   -1    0    0    0  501 -0.00000000000E+00 -0.00000000000E+00 -0.26412579075E+02  0.26412579075E+02  0.00000000000E+00 0.  1.
         23    2    1    2    0    0  0.11162547568E+02  0.66639273712E+00  0.91200049644E+02  0.13283390098E+03  0.95928878062E+02 0.  0.
         13    1    3    3    0    0 -0.24306746909E+02 -0.24533841857E+02  0.81128424039E+02  0.88173400346E+02  0.00000000000E+00 0. -1.
        -13    1    3    3    0    0  0.35469294477E+02  0.25200234594E+02  0.10071625605E+02  0.44660500631E+02  0.00000000000E+00 0.  1.
         22    1    1    2    0    0 -0.11162547568E+02 -0.66639273712E+00 -0.88819293965E-02  0.11182424888E+02  0.00000000000E+00 0.  1.
<mgrwt>
<rscale>  0 0.56337053E+02</rscale>
<asrwt>0</asrwt>
<pdfrwt beam="1">  1        2 0.18092884E-01 0.96578446E+02</pdfrwt>
<pdfrwt beam="2">  1       -2 0.40634738E-02 0.96578446E+02</pdfrwt>
<totfact> 0.72361284E+04</totfact>
</mgrwt>
</event>
<event>
 6    1  0.1535419E-002  0.9285100E+02  0.7546771E-02  0.1428704E+00
          2   -1    0    0  501    0  0.00000000000E+00  0.00000000000E+00  0.10746367999E+04  0.10746367999E+04  0.00000000000E+00 0. -1.
         -2   -1    0    0    0  501 -0.00000000000E+00 -0.00000000000E+00 -0.25432755197E+01  0.25432755197E+01  0.00000000000E+00 0.  1.
         23    2    1    2    0    0 -0.10006535124E+02  0.56375214418E+00  0.10126159414E+04  0.10168639794E+04  0.92308500509E+02 0.  0.
         13    1    3    3    0    0 -0.16825912446E+02  0.60406803932E+01  0.10053062571E+04  0.10054652016E+04  0.00000000000E+00 0. -1.
        -13    1    3    3    0    0  0.68193773225E+01 -0.54769282490E+01  0.73096843319E+01  0.11398777792E+02  0.00000000000E+00 0.  1.
         22    1    1    2    0    0  0.10006535124E+02 -0.56375214418E+00  0.59477583006E+02  0.60316096043E+02  0.00000000000E+00 0.  1.
<mgrwt>
<rscale>  0 0.53220984E+02</rscale>
<asrwt>0</asrwt>
<pdfrwt beam="1">  1        2 0.16532838E+00 0.92850998E+02</pdfrwt>
<pdfrwt beam="2">  1       -2 0.39127401E-03 0.92850998E+02</pdfrwt>
<totfact> 0.17127708E+05</totfact>
</mgrwt>
</event>
<event>
 6    1  0.1535419E-002  0.9131445E+02  0.7546771E-02  0.1336773E+00
         -2   -1    0    0    0  501 -0.00000000000E+00  0.00000000000E+00  0.12662785244E+02  0.12662785244E+02  0.00000000000E+00 0.  1.
          2   -1    0    0  501    0  0.00000000000E+00 -0.00000000000E+00 -0.47781139404E+03  0.47781139404E+03  0.00000000000E+00 0. -1.
         23    2    1    2    0    0  0.46631785738E+02  0.57943281103E+01 -0.39911433707E+03  0.40942713910E+03  0.78295788540E+02 0.  0.
         11    1    3    3    0    0  0.30957537303E+02 -0.30904481144E+01 -0.44176161000E+02  0.54031964485E+02  0.00000000000E+00 0.  1.
        -11    1    3    3    0    0  0.15674248435E+02  0.88847762247E+01 -0.35493817607E+03  0.35539517462E+03  0.00000000000E+00 0. -1.
         22    1    1    2    0    0 -0.46631785738E+02 -0.57943281103E+01 -0.66034271734E+02  0.81047040185E+02  0.00000000000E+00 0.  1.
<mgrwt>
<rscale>  0 0.77340487E+02</rscale>
<asrwt>0</asrwt>
<pdfrwt beam="1">  1        2 0.73509438E-01 0.91314447E+02</pdfrwt>
<pdfrwt beam="2">  1       -2 0.19481210E-02 0.91314447E+02</pdfrwt>
<totfact> 0.46581069E+04</totfact>
</mgrwt>
</event>
<event>
 6    1  0.1535419E-002  0.9336001E+02  0.7546771E-02  0.1418347E+00
         -1   -1    0    0    0  501 -0.00000000000E+00  0.00000000000E+00  0.70237887990E+01  0.70237887990E+01  0.00000000000E+00 0.  1.
          1   -1    0    0  501    0  0.00000000000E+00 -0.00000000000E+00 -0.39281213670E+03  0.39281213670E+03  0.00000000000E+00 0. -1.
         23    2    1    2    0    0 -0.82765590211E+01 -0.80600702602E+01 -0.34938189312E+03  0.36164042693E+03  0.92642457773E+02 0.  0.
         11    1    3    3    0    0 -0.86555201620E+01  0.17675108178E+02 -0.11529623904E+02  0.22809202217E+02  0.00000000000E+00 0.  1.
        -11    1    3    3    0    0  0.37896114087E+00 -0.25735178439E+02 -0.33785226922E+03  0.33883122471E+03  0.00000000000E+00 0. -1.
         22    1    1    2    0    0  0.82765590211E+01  0.80600702602E+01 -0.36406454773E+02  0.38195498570E+02  0.00000000000E+00 0.  1.
<mgrwt>
<rscale>  0 0.55372236E+02</rscale>
<asrwt>0</asrwt>
<pdfrwt beam="1">  1        1 0.60432655E-01 0.93360008E+02</pdfrwt>
<pdfrwt beam="2">  1       -1 0.10805826E-02 0.93360008E+02</pdfrwt>
<totfact> 0.90520125E+04</totfact>
</mgrwt>
</event>
<event>
 6    1  0.1535419E-002  0.9369085E+02  0.7546771E-02  0.1375075E+00
          4   -1    0    0  501    0  0.00000000000E+00  0.00000000000E+00  0.19069383569E+03  0.19069383569E+03  0.00000000000E+00 0. -1.
         -4   -1    0    0    0  501 -0.00000000000E+00 -0.00000000000E+00 -0.28144673951E+02  0.28144673951E+02  0.00000000000E+00 0.  1.
         23    2    1    2    0    0  0.16521205941E+02 -0.15655804553E+02  0.17065115689E+03  0.19467869202E+03  0.90884109262E+02 0.  0.
         13    1    3    3    0    0  0.16452862996E+02  0.23311556525E+02  0.14556391217E+03  0.14833400788E+03  0.00000000000E+00 0. -1.
        -13    1    3    3    0    0  0.68342945851E-01 -0.38967361078E+02  0.25087244724E+02  0.46344684140E+02  0.00000000000E+00 0.  1.
         22    1    1    2    0    0 -0.16521205941E+02  0.15655804553E+02 -0.81019951542E+01  0.24159817620E+02  0.00000000000E+00 0.  1.
<mgrwt>
<rscale>  0 0.65776357E+02</rscale>
<asrwt>0</asrwt>
<pdfrwt beam="1">  1        4 0.29337512E-01 0.93690852E+02</pdfrwt>
<pdfrwt beam="2">  1       -4 0.43299499E-02 0.93690852E+02</pdfrwt>
<totfact> 0.49511047E+03</totfact>
</mgrwt>
</event>
<event>
 6    1  0.1535419E-002  0.1500452E+03  0.7546771E-02  0.1211133E+00
          2   -1    0    0  501    0  0.00000000000E+00  0.00000000000E+00  0.18218500342E+03  0.18218500342E+03  0.00000000000E+00 0. -1.
         -2   -1    0    0    0  501 -0.00000000000E+00 -0.00000000000E+00 -0.10409555685E+03  0.10409555685E+03  0.00000000000E+00 0.  1.
         23    2    1    2    0    0 -0.30460003947E+02 -0.11520196425E+03  0.73377906943E+02  0.16702661688E+03  0.91182614090E+02 0.  0.
         11    1    3    3    0    0 -0.15566257292E+02 -0.23824249638E+02 -0.20578429485E+02  0.35119439019E+02  0.00000000000E+00 0. -1.
        -11    1    3    3    0    0 -0.14893746655E+02 -0.91377714611E+02  0.93956336428E+02  0.13190717786E+03  0.00000000000E+00 0.  1.
         22    1    1    2    0    0  0.30460003947E+02  0.11520196425E+03  0.47115396248E+01  0.11925394339E+03  0.00000000000E+00 0. -1.
<mgrwt>
<rscale>  0 0.14164461E+03</rscale>
<asrwt>0</asrwt>
<pdfrwt beam="1">  1        2 0.28028462E-01 0.15004524E+03</pdfrwt>
<pdfrwt beam="2">  1       -2 0.16014701E-01 0.15004524E+03</pdfrwt>
<totfact> 0.55697382E+03</totfact>
</mgrwt>
</event>
<event>
 6    1  0.1535419E-002  0.9540409E+02  0.7546771E-02  0.1358893E+00
         -1   -1    0    0    0  501 -0.00000000000E+00  0.00000000000E+00  0.38759211045E+01  0.38759211045E+01  0.00000000000E+00 0.  1.
          1   -1    0    0  501    0  0.00000000000E+00 -0.00000000000E+00 -0.13360933395E+04  0.13360933395E+04  0.00000000000E+00 0. -1.
         23    2    1    2    0    0 -0.77560812118E+01  0.27126331403E+02 -0.12366405240E+04  0.12403151719E+04  0.91136959660E+02 0.  0.
         11    1    3    3    0    0  0.11596682330E+02 -0.36249899614E+01 -0.10553249626E+04  0.10553949025E+04  0.00000000000E+00 0. -1.
        -11    1    3    3    0    0 -0.19352763542E+02  0.30751321365E+02 -0.18131556142E+03  0.18492026940E+03  0.00000000000E+00 0.  1.
         22    1    1    2    0    0  0.77560812118E+01 -0.27126331403E+02 -0.95576894346E+02  0.99654088646E+02  0.00000000000E+00 0.  1.
<mgrwt>
<rscale>  0 0.70354035E+02</rscale>
<asrwt>0</asrwt>
<pdfrwt beam="1">  1        1 0.20555324E+00 0.95404088E+02</pdfrwt>
<pdfrwt beam="2">  1       -1 0.59629433E-03 0.95404088E+02</pdfrwt>
<totfact> 0.33751869E+04</totfact>
</mgrwt>
</event>
<event>
 6    1  0.1535419E-002  0.1144893E+03  0.7546771E-02  0.1319241E+00
         -2   -1    0    0    0  501 -0.00000000000E+00  0.00000000000E+00  0.63472151689E+01  0.63472151689E+01  0.00000000000E+00 0.  1.
          2   -1    0    0  501    0  0.00000000000E+00 -0.00000000000E+00 -0.10451738596E+04  0.10451738596E+04  0.00000000000E+00 0. -1.
         23    2    1    2    0    0  0.10559259235E+01  0.32469521321E+02 -0.95121519181E+03  0.95808044428E+03  0.10978347690E+03 0.  0.
         11    1    3    3    0    0 -0.35074376920E+02 -0.17949298345E+02 -0.61014775158E+03  0.61141857020E+03  0.00000000000E+00 0. -1.
        -11    1    3    3    0    0  0.36130302843E+02  0.50418819666E+02 -0.34106744023E+03  0.34666187408E+03  0.00000000000E+00 0.  1.
         22    1    1    2    0    0 -0.10559259235E+01 -0.32469521321E+02 -0.87611452603E+02  0.93440630464E+02  0.00000000000E+00 0.  1.
<mgrwt>
<rscale>  0 0.83560300E+02</rscale>
<asrwt>0</asrwt>
<pdfrwt beam="1">  1        2 0.16079608E+00 0.11448929E+03</pdfrwt>
<pdfrwt beam="2">  1       -2 0.97649400E-03 0.11448929E+03</pdfrwt>
<totfact> 0.50289849E+04</totfact>
</mgrwt>
</event>
<event>
 6    1  0.1535419E-002  0.9592642E+02  0.7546771E-02  0.1360066E+00
          2   -1    0    0  501    0  0.00000000000E+00  0.00000000000E+00  0.31858938616E+03  0.31858938616E+03  0.00000000000E+00 0. -1.
         -2   -1    0    0    0  501 -0.00000000000E+00 -0.00000000000E+00 -0.11934887321E+02  0.11934887321E+02  0.00000000000E+00 0.  1.
         23    2    1    2    0    0  0.21133812683E+02  0.17143918935E+02  0.24617224157E+03  0.26420191345E+03  0.91985469280E+02 0.  0.
         11    1    3    3    0    0  0.84652818927E+01 -0.98840697356E+01  0.22977842258E+03  0.23014664742E+03  0.00000000000E+00 0. -1.
        -11    1    3    3    0    0  0.12668530790E+02  0.27027988670E+02  0.16393818986E+02  0.34055266037E+02  0.00000000000E+00 0.  1.
         22    1    1    2    0    0 -0.21133812683E+02 -0.17143918935E+02  0.60482257267E+02  0.66322360023E+02  0.00000000000E+00 0. -1.
<mgrwt>
<rscale>  0 0.70008074E+02</rscale>
<asrwt>0</asrwt>
<pdfrwt beam="1">  1        2 0.49013745E-01 0.95926423E+02</pdfrwt>
<pdfrwt beam="2">  1       -2 0.18361368E-02 0.95926423E+02</pdfrwt>
<totfact> 0.78285817E+04</totfact>
</mgrwt>
</event>
<event>
 6    1  0.1535419E-002  0.9148140E+02  0.7546771E-02  0.1399332E+00
         -2   -1    0    0    0  501 -0.00000000000E+00  0.00000000000E+00  0.53143237522E+02  0.53143237522E+02  0.00000000000E+00 0. -1.
          2   -1    0    0  501    0  0.00000000000E+00 -0.00000000000E+00 -0.71071966674E+02  0.71071966674E+02  0.00000000000E+00 0.  1.
         23    2    1    2    0    0 -0.67827460697E+01  0.15074011826E+02 -0.37261837788E+02  0.98778998381E+02  0.89975632752E+02 0.  0.
         13    1    3    3    0    0  0.32335714894E+02  0.15493528797E+02 -0.46366148952E+02  0.58612862589E+02  0.00000000000E+00 0.  1.
        -13    1    3    3    0    0 -0.39118460963E+02 -0.41951697110E+00  0.91043111646E+01  0.40166135791E+02  0.00000000000E+00 0. -1.
         22    1    1    2    0    0  0.67827460697E+01 -0.15074011826E+02  0.19333108635E+02  0.25436205815E+02  0.00000000000E+00 0. -1.
<mgrwt>
<rscale>  0 0.59643886E+02</rscale>
<asrwt>0</asrwt>
<pdfrwt beam="1">  1        2 0.10934149E-01 0.91481397E+02</pdfrwt>
<pdfrwt beam="2">  1       -2 0.81758827E-02 0.91481397E+02</pdfrwt>
<totfact> 0.45297262E+04</totfact>
</mgrwt>
</event>
<event>
 6    1  0.1535419E-002  0.9309831E+02  0.7546771E-02  0.1399779E+00
         -2   -1    0    0    0  501 -0.00000000000E+00  0.00000000000E+00  0.26989581599E+01  0.26989581599E+01  0.00000000000E+00 0.  1.
          2   -1    0    0  501    0  0.00000000000E+00 -0.00000000000E+00 -0.11637738647E+04  0.11637738647E+04  0.00000000000E+00 0. -1.
         23    2    1    2    0    0  0.15435034947E+02 -0.20658146279E+01 -0.10730481868E+04  0.10770792477E+04  0.91786636888E+02 0.  0.
         11    1    3    3    0    0  0.34249877783E+02  0.34948594867E+02 -0.45101079566E+03  0.45365757595E+03  0.00000000000E+00 0.  1.
        -11    1    3    3    0    0 -0.18814842837E+02 -0.37014409495E+02 -0.62203739114E+03  0.62342167174E+03  0.00000000000E+00 0. -1.
         22    1    1    2    0    0 -0.15435034947E+02  0.20658146279E+01 -0.88026719759E+02  0.89393575190E+02  0.00000000000E+00 0.  1.
<mgrwt>
<rscale>  0 0.59538388E+02</rscale>
<asrwt>0</asrwt>
<pdfrwt beam="1">  1        2 0.17904197E+00 0.93098306E+02</pdfrwt>
<pdfrwt beam="2">  1       -2 0.41522470E-03 0.93098306E+02</pdfrwt>
<totfact> 0.14060423E+05</totfact>
</mgrwt>
</event>
<event>
 6    1  0.1535419E-002  0.9016962E+02  0.7546771E-02  0.1418506E+00
         -3   -1    0    0    0  501 -0.00000000000E+00  0.00000000000E+00  0.94687905330E+02  0.94687905330E+02  0.00000000000E+00 0.  1.
          3   -1    0    0  501    0  0.00000000000E+00 -0.00000000000E+00 -0.33972559088E+02  0.33972559088E+02  0.00000000000E+00 0. -1.
         23    2    1    2    0    0 -0.50820846887E+01  0.11738610056E+02  0.29413316707E+02  0.94845680613E+02  0.89257702079E+02 0.  0.
         13    1    3    3    0    0  0.39600090414E+02 -0.52396637651E+01  0.25769490017E+01  0.40028263806E+02  0.00000000000E+00 0. -1.
        -13    1    3    3    0    0 -0.44682175102E+02  0.16978273821E+02  0.26836367706E+02  0.54817416808E+02  0.00000000000E+00 0.  1.
         22    1    1    2    0    0  0.50820846887E+01 -0.11738610056E+02  0.31302029534E+02  0.33814783805E+02  0.00000000000E+00 0. -1.
<mgrwt>
<rscale>  0 0.55338268E+02</rscale>
<asrwt>0</asrwt>
<pdfrwt beam="1">  1        3 0.52265476E-02 0.90169618E+02</pdfrwt>
<pdfrwt beam="2">  1       -3 0.14567370E-01 0.90169618E+02</pdfrwt>
<totfact> 0.16929843E+04</totfact>
</mgrwt>
</event>
<event>
 6    1  0.1535419E-002  0.9090837E+02  0.7546771E-02  0.1413765E+00
         -1   -1    0    0    0  501 -0.00000000000E+00  0.00000000000E+00  0.97843914026E+01  0.97843914026E+01  0.00000000000E+00 0.  1.
          1   -1    0    0  501    0  0.00000000000E+00 -0.00000000000E+00 -0.56006747875E+03  0.56006747875E+03  0.00000000000E+00 0. -1.
         23    2    1    2    0    0 -0.12720318646E+02  0.43139664636E+01 -0.54886801521E+03  0.55634560338E+03  0.89910597088E+02 0.  0.
         11    1    3    3    0    0 -0.34844947415E+02  0.37303436903E+02 -0.32391068377E+03  0.32790829179E+03  0.00000000000E+00 0.  1.
        -11    1    3    3    0    0  0.22124628769E+02 -0.32989470440E+02 -0.22495733143E+03  0.22843731158E+03  0.00000000000E+00 0. -1.
         22    1    1    2    0    0  0.12720318646E+02 -0.43139664636E+01 -0.14150721447E+01  0.13506266778E+02  0.00000000000E+00 0. -1.
<mgrwt>
<rscale>  0 0.56362148E+02</rscale>
<asrwt>0</asrwt>
<pdfrwt beam="1">  1        1 0.86164248E-01 0.90908373E+02</pdfrwt>
<pdfrwt beam="2">  1       -1 0.15052906E-02 0.90908373E+02</pdfrwt>
<totfact> 0.35909028E+04</totfact>
</mgrwt>
</event>
<event>
 6    1  0.1535419E-002  0.9134043E+02  0.7546771E-02  0.1429362E+00
         -2   -1    0    0    0  501 -0.00000000000E+00  0.00000000000E+00  0.11004562240E+03  0.11004562240E+03  0.00000000000E+00 0.  1.
          2   -1    0    0  501    0  0.00000000000E+00 -0.00000000000E+00 -0.28033106619E+02  0.28033106619E+02  0.00000000000E+00 0. -1.
         23    2    1    2    0    0  0.33183100035E+01  0.98809706833E+01  0.49404818143E+02  0.10384560605E+03  0.90743755031E+02 0.  0.
         11    1    3    3    0    0  0.19694078833E+02  0.14858261397E+02  0.71649873427E+02  0.75778156714E+02  0.00000000000E+00 0.  1.
        -11    1    3    3    0    0 -0.16375768830E+02 -0.49772907138E+01 -0.22245055284E+02  0.28067449336E+02  0.00000000000E+00 0. -1.
         22    1    1    2    0    0 -0.33183100035E+01 -0.98809706833E+01  0.32607697644E+02  0.34233122974E+02  0.00000000000E+00 0. -1.
<mgrwt>
<rscale>  0 0.53088247E+02</rscale>
<asrwt>0</asrwt>
<pdfrwt beam="1">  1        2 0.43127857E-02 0.91340428E+02</pdfrwt>
<pdfrwt beam="2">  1       -2 0.16930095E-01 0.91340428E+02</pdfrwt>
<totfact> 0.46089534E+04</totfact>
</mgrwt>
</event>
<event>
 6    1  0.1535419E-002  0.9484649E+02  0.7546771E-02  0.1368776E+00
         -2   -1    0    0    0  501 -0.00000000000E+00  0.00000000000E+00  0.21967497215E+02  0.21967497215E+02  0.00000000000E+00 0.  1.
          2   -1    0    0  501    0  0.00000000000E+00 -0.00000000000E+00 -0.38651220205E+03  0.38651220205E+03  0.00000000000E+00 0. -1.
         23    2    1    2    0    0  0.51270174726E+01  0.23796781289E+02 -0.37129543500E+03  0.38321815803E+03  0.91669425003E+02 0.  0.
         13    1    3    3    0    0 -0.27866722368E+02  0.25984167861E+02 -0.31952667301E+03  0.32179034472E+03  0.00000000000E+00 0. -1.
        -13    1    3    3    0    0  0.32993739841E+02 -0.21873865719E+01 -0.51768761997E+02  0.61427813305E+02  0.00000000000E+00 0.  1.
         22    1    1    2    0    0 -0.51270174726E+01 -0.23796781289E+02  0.67507301678E+01  0.25261541238E+02  0.00000000000E+00 0.  1.
<mgrwt>
<rscale>  0 0.67508536E+02</rscale>
<asrwt>0</asrwt>
<pdfrwt beam="1">  1        2 0.59463407E-01 0.94846490E+02</pdfrwt>
<pdfrwt beam="2">  1       -2 0.33796155E-02 0.94846490E+02</pdfrwt>
<totfact> 0.26388913E+04</totfact>
</mgrwt>
</event>
<event>
 6    1  0.1535419E-002  0.9900600E+02  0.7546771E-02  0.1407905E+00
          2   -1    0    0  501    0  0.00000000000E+00  0.00000000000E+00  0.42681082315E+03  0.42681082315E+03  0.00000000000E+00 0. -1.
         -2   -1    0    0    0  501 -0.00000000000E+00 -0.00000000000E+00 -0.61646938389E+02  0.61646938389E+02  0.00000000000E+00 0.  1.
         23    2    1    2    0    0 -0.83943171992E+01 -0.77028566415E+01  0.42048095372E+03  0.43197965357E+03  0.98348310113E+02 0.  0.
         11    1    3    3    0    0 -0.26507106948E+02  0.90638679706E+01  0.31255664537E+02  0.41972574224E+02  0.00000000000E+00 0.  1.
        -11    1    3    3    0    0  0.18112789748E+02 -0.16766724612E+02  0.38922528918E+03  0.39000707935E+03  0.00000000000E+00 0. -1.
         22    1    1    2    0    0  0.83943171992E+01  0.77028566415E+01 -0.55317068954E+02  0.56478107965E+02  0.00000000000E+00 0.  1.
<mgrwt>
<rscale>  0 0.57664015E+02</rscale>
<asrwt>0</asrwt>
<pdfrwt beam="1">  1        2 0.65663202E-01 0.99006003E+02</pdfrwt>
<pdfrwt beam="2">  1       -2 0.94841446E-02 0.99006003E+02</pdfrwt>
<totfact> 0.50680685E+03</totfact>
</mgrwt>
</event>
<event>
 6    1  0.1535419E-002  0.9122141E+02  0.7546771E-02  0.1403823E+00
         -2   -1    0    0    0  501 -0.00000000000E+00  0.00000000000E+00  0.29048305487E+01  0.29048305487E+01  0.00000000000E+00 0.  1.
          2   -1    0    0  501    0  0.00000000000E+00 -0.00000000000E+00 -0.12725210429E+04  0.12725210429E+04  0.00000000000E+00 0. -1.
         23    2    1    2    0    0  0.14101784754E+02  0.65045906178E+01 -0.12207002231E+04  0.12241039089E+04  0.89889795185E+02 0.  0.
         13    1    3    3    0    0  0.36161209297E+01 -0.28081241319E+02 -0.14182425335E+03  0.14462278964E+03  0.00000000000E+00 0.  1.
        -13    1    3    3    0    0  0.10485663824E+02  0.34585831937E+02 -0.10788759697E+04  0.10794811193E+04  0.00000000000E+00 0. -1.
         22    1    1    2    0    0 -0.14101784754E+02 -0.65045906178E+01 -0.48915989289E+02  0.51321964503E+02  0.00000000000E+00 0.  1.
<mgrwt>
<rscale>  0 0.58595329E+02</rscale>
<asrwt>0</asrwt>
<pdfrwt beam="1">  1        2 0.19577278E+00 0.91221408E+02</pdfrwt>
<pdfrwt beam="2">  1       -2 0.44689630E-03 0.91221408E+02</pdfrwt>
<totfact> 0.11050666E+05</totfact>
</mgrwt>
</event>
<event>
 6    1  0.1535419E-002  0.1049899E+03  0.7546771E-02  0.1305969E+00
         -2   -1    0    0    0  501 -0.00000000000E+00  0.00000000000E+00  0.36056032858E+03  0.36056032858E+03  0.00000000000E+00 0.  1.
          2   -1    0    0  501    0  0.00000000000E+00 -0.00000000000E+00 -0.19502279635E+02  0.19502279635E+02  0.00000000000E+00 0. -1.
         23    2    1    2    0    0  0.31413615736E+02 -0.43365571734E+02  0.16097571126E+03  0.19218755290E+03  0.90307739464E+02 0.  0.
         11    1    3    3    0    0 -0.31258539555E+01  0.18021838898E+02  0.21166084227E+01  0.18412975627E+02  0.00000000000E+00 0. -1.
        -11    1    3    3    0    0  0.34539469691E+02 -0.61387410632E+02  0.15885910284E+03  0.17377457727E+03  0.00000000000E+00 0.  1.
         22    1    1    2    0    0 -0.31413615736E+02  0.43365571734E+02  0.18008233768E+03  0.18787505532E+03  0.00000000000E+00 0. -1.
<mgrwt>
<rscale>  0 0.88725081E+02</rscale>
<asrwt>0</asrwt>
<pdfrwt beam="1">  1        2 0.30003510E-02 0.10498988E+03</pdfrwt>
<pdfrwt beam="2">  1       -2 0.55470815E-01 0.10498988E+03</pdfrwt>
<totfact> 0.89051395E+03</totfact>
</mgrwt>
</event>
<event>
 6    1  0.1535419E-002  0.1011085E+03  0.7546771E-02  0.1350210E+00
         -4   -1    0    0    0  501 -0.00000000000E+00  0.00000000000E+00  0.23797066231E+02  0.23797066231E+02  0.00000000000E+00 0.  1.
          4   -1    0    0  501    0  0.00000000000E+00 -0.00000000000E+00 -0.20560324346E+03  0.20560324346E+03  0.00000000000E+00 0. -1.
         23    2    1    2    0    0  0.16268671337E+02  0.22121703410E+02 -0.17332591944E+03  0.20066089075E+03  0.97308166669E+02 0.  0.
         11    1    3    3    0    0  0.30993766084E+00  0.59634923231E+02 -0.91095095554E+02  0.10887945887E+03  0.00000000000E+00 0. -1.
        -11    1    3    3    0    0  0.15958733676E+02 -0.37513219821E+02 -0.82230823882E+02  0.91781431881E+02  0.00000000000E+00 0.  1.
         22    1    1    2    0    0 -0.16268671337E+02 -0.22121703410E+02 -0.84802577977E+01  0.28739418942E+02  0.00000000000E+00 0.  1.
<mgrwt>
<rscale>  0 0.72990249E+02</rscale>
<asrwt>0</asrwt>
<pdfrwt beam="1">  1        4 0.31631268E-01 0.10110845E+03</pdfrwt>
<pdfrwt beam="2">  1       -4 0.36610872E-02 0.10110845E+03</pdfrwt>
<totfact> 0.57181501E+03</totfact>
</mgrwt>
</event>
<event>
 6    1  0.1535419E-002  0.9998345E+02  0.7546771E-02  0.1369438E+00
         -2   -1    0    0    0  501 -0.00000000000E+00  0.00000000000E+00  0.61330687280E+02  0.61330687280E+02  0.00000000000E+00 0.  1.
          2   -1    0    0  501    0  0.00000000000E+00 -0.00000000000E+00 -0.59315410454E+02  0.59315410454E+02  0.00000000000E+00 0. -1.
         23    2    1    2    0    0  0.20273011993E+02 -0.33832656618E+01 -0.10630327563E+00  0.99983508255E+02  0.97848092065E+02 0.  0.
         13    1    3    3    0    0  0.41763924201E+02 -0.38453303799E+02 -0.10085043951E+02  0.57659258139E+02  0.00000000000E+00 0. -1.
        -13    1    3    3    0    0 -0.21490912207E+02  0.35070038137E+02  0.99787406755E+01  0.42324250116E+02  0.00000000000E+00 0.  1.
         22    1    1    2    0    0 -0.20273011993E+02  0.33832656618E+01  0.21215801017E+01  0.20662589478E+02  0.00000000000E+00 0.  1.
<mgrwt>
<rscale>  0 0.67323536E+02</rscale>
<asrwt>0</asrwt>
<pdfrwt beam="1">  1        2 0.91254478E-02 0.99983452E+02</pdfrwt>
<pdfrwt beam="2">  1       -2 0.94354903E-02 0.99983452E+02</pdfrwt>
<totfact> 0.45778080E+04</totfact>
</mgrwt>
</event>
<event>
 6    1  0.1535419E-002  0.1068324E+03  0.7546771E-02  0.1301153E+00
          2   -1    0    0  501    0  0.00000000000E+00  0.00000000000E+00  0.15884387580E+03  0.15884387580E+03  0.00000000000E+00 0. -1.
         -2   -1    0    0    0  501 -0.00000000000E+00 -0.00000000000E+00 -0.57169266718E+02  0.57169266718E+02  0.00000000000E+00 0.  1.
         23    2    1    2    0    0 -0.19541324360E+02  0.51963280703E+02  0.11698392260E+03  0.15842476713E+03  0.91274984491E+02 0.  0.
         13    1    3    3    0    0 -0.36626750329E+02  0.43310914289E+02  0.12530387491E+03  0.13754422999E+03  0.00000000000E+00 0. -1.
        -13    1    3    3    0    0  0.17085425969E+02  0.86523664145E+01 -0.83199523029E+01  0.20880537145E+02  0.00000000000E+00 0.  1.
         22    1    1    2    0    0  0.19541324360E+02 -0.51963280703E+02 -0.15309313521E+02  0.57588375387E+02  0.00000000000E+00 0.  1.
<mgrwt>
<rscale>  0 0.90705209E+02</rscale>
<asrwt>0</asrwt>
<pdfrwt beam="1">  1        2 0.24437519E-01 0.10683243E+03</pdfrwt>
<pdfrwt beam="2">  1       -2 0.87952719E-02 0.10683243E+03</pdfrwt>
<totfact> 0.16376584E+04</totfact>
</mgrwt>
</event>
<event>
 6    1  0.1535419E-002  0.9471573E+02  0.7546771E-02  0.1390176E+00
          2   -1    0    0  501    0  0.00000000000E+00  0.00000000000E+00  0.83326047114E+02  0.83326047114E+02  0.00000000000E+00 0. -1.
         -2   -1    0    0    0  501 -0.00000000000E+00 -0.00000000000E+00 -0.38739266511E+02  0.38739266511E+02  0.00000000000E+00 0.  1.
         23    2    1    2    0    0  0.15580933230E+02  0.73717175281E+01  0.44914286392E+02  0.10482539020E+03  0.93134105510E+02 0.  0.
         11    1    3    3    0    0  0.91763611357E+01 -0.59367826315E+01  0.72615211635E+02  0.73433098480E+02  0.00000000000E+00 0. -1.
        -11    1    3    3    0    0  0.64045720942E+01  0.13308500160E+02 -0.27700925242E+02  0.31392291721E+02  0.00000000000E+00 0.  1.
         22    1    1    2    0    0 -0.15580933230E+02 -0.73717175281E+01 -0.32750578947E+00  0.17239923424E+02  0.00000000000E+00 0. -1.
<mgrwt>
<rscale>  0 0.61862977E+02</rscale>
<asrwt>0</asrwt>
<pdfrwt beam="1">  1        2 0.12819392E-01 0.94715729E+02</pdfrwt>
<pdfrwt beam="2">  1       -2 0.59598872E-02 0.94715729E+02</pdfrwt>
<totfact> 0.60813230E+04</totfact>
</mgrwt>
</event>
<event>
 6    1  0.1535419E-002  0.1064508E+03  0.7546771E-02  0.1301746E+00
         -2   -1    0    0    0  501 -0.00000000000E+00  0.00000000000E+00  0.18283519200E+03  0.18283519200E+03  0.00000000000E+00 0.  1.
          2   -1    0    0  501    0  0.00000000000E+00 -0.00000000000E+00 -0.47799222080E+02  0.47799222080E+02  0.00000000000E+00 0. -1.
         23    2    1    2    0    0  0.34998626796E+02 -0.43082103733E+02  0.13889262709E+03  0.17499409288E+03  0.90833909641E+02 0.  0.
         13    1    3    3    0    0 -0.79499831349E+01 -0.56509447981E+01 -0.10963346158E+02  0.14674139428E+02  0.00000000000E+00 0.  1.
        -13    1    3    3    0    0  0.42948609931E+02 -0.37431158935E+02  0.14985597325E+03  0.16031995345E+03  0.00000000000E+00 0. -1.
         22    1    1    2    0    0 -0.34998626796E+02  0.43082103733E+02 -0.38566571696E+01  0.55640321209E+02  0.00000000000E+00 0.  1.
<mgrwt>
<rscale>  0 0.90458135E+02</rscale>
<asrwt>0</asrwt>
<pdfrwt beam="1">  1        2 0.73537266E-02 0.10645079E+03</pdfrwt>
<pdfrwt beam="2">  1       -2 0.28128491E-01 0.10645079E+03</pdfrwt>
<totfact> 0.99894845E+03</totfact>
</mgrwt>
</event>
<event>
 6    1  0.1535419E-002  0.8874152E+02  0.7546771E-02  0.1437432E+00
         -4   -1    0    0    0  501 -0.00000000000E+00  0.00000000000E+00  0.11832420767E+03  0.11832420767E+03  0.00000000000E+00 0.  1.
          4   -1    0    0  501    0  0.00000000000E+00 -0.00000000000E+00 -0.20729930540E+02  0.20729930540E+02  0.00000000000E+00 0. -1.
         23    2    1    2    0    0  0.96645980526E+01  0.28045021258E+01  0.84474474090E+02  0.12251935912E+03  0.88169081312E+02 0.  0.
         11    1    3    3    0    0 -0.15900806403E+02  0.38153156066E+02  0.58882671014E+02  0.71942114980E+02  0.00000000000E+00 0.  1.
        -11    1    3    3    0    0  0.25565404456E+02 -0.35348653940E+02  0.25591803076E+02  0.50577244143E+02  0.00000000000E+00 0. -1.
         22    1    1    2    0    0 -0.96645980526E+01 -0.28045021258E+01  0.13119803041E+02  0.16534779089E+02  0.00000000000E+00 0.  1.
<mgrwt>
<rscale>  0 0.51496779E+02</rscale>
<asrwt>0</asrwt>
<pdfrwt beam="1">  1        4 0.31892202E-02 0.88741516E+02</pdfrwt>
<pdfrwt beam="2">  1       -4 0.18203724E-01 0.88741516E+02</pdfrwt>
<totfact> 0.18707176E+04</totfact>
</mgrwt>
</event>
<event>
 6    1  0.1535419E-002  0.8896371E+02  0.7546771E-02  0.1427685E+00
          2   -1    0    0  501    0  0.00000000000E+00  0.00000000000E+00  0.93487899332E+01  0.93487899332E+01  0.00000000000E+00 0.  1.
         -2   -1    0    0    0  501 -0.00000000000E+00 -0.00000000000E+00 -0.27775521734E+03  0.27775521734E+03  0.00000000000E+00 0. -1.
         23    2    1    2    0    0  0.58699183778E+01  0.99731578477E+01 -0.21942050271E+03  0.23676971839E+03  0.88207838181E+02 0.  0.
         13    1    3    3    0    0  0.25585760632E+02 -0.46335929196E+01 -0.20815027523E+03  0.20976805860E+03  0.00000000000E+00 0. -1.
        -13    1    3    3    0    0 -0.19715842254E+02  0.14606750767E+02 -0.11270227477E+02  0.27001659785E+02  0.00000000000E+00 0.  1.
         22    1    1    2    0    0 -0.58699183778E+01 -0.99731578477E+01 -0.48985924694E+02  0.50334288883E+02  0.00000000000E+00 0.  1.
<mgrwt>
<rscale>  0 0.53427554E+02</rscale>
<asrwt>0</asrwt>
<pdfrwt beam="1">  1        2 0.14382754E-02 0.88963715E+02</pdfrwt>
<pdfrwt beam="2">  1       -2 0.42731571E-01 0.88963715E+02</pdfrwt>
<totfact> 0.39124648E+04</totfact>
</mgrwt>
</event>
<event>
 6    1  0.1535419E-002  0.9452279E+02  0.7546771E-02  0.1412501E+00
          2   -1    0    0  501    0  0.00000000000E+00  0.00000000000E+00  0.39832975092E+03  0.39832975092E+03  0.00000000000E+00 0. -1.
         -2   -1    0    0    0  501 -0.00000000000E+00 -0.00000000000E+00 -0.72140932495E+01  0.72140932495E+01  0.00000000000E+00 0.  1.
         23    2    1    2    0    0 -0.59997437040E+01 -0.10606822147E+02  0.35760130885E+03  0.36988275645E+03  0.93733963034E+02 0.  0.
         13    1    3    3    0    0 -0.24453990256E+02 -0.34313825085E+02  0.77838057705E+02  0.88511013206E+02  0.00000000000E+00 0.  1.
        -13    1    3    3    0    0  0.18454246552E+02  0.23707002938E+02  0.27976325115E+03  0.28137174325E+03  0.00000000000E+00 0. -1.
         22    1    1    2    0    0  0.59997437040E+01  0.10606822147E+02  0.33514348817E+02  0.35661087718E+02  0.00000000000E+00 0. -1.
<mgrwt>
<rscale>  0 0.56639418E+02</rscale>
<asrwt>0</asrwt>
<pdfrwt beam="1">  1        2 0.61281483E-01 0.94522788E+02</pdfrwt>
<pdfrwt beam="2">  1       -2 0.11098608E-02 0.94522788E+02</pdfrwt>
<totfact> 0.12674344E+05</totfact>
</mgrwt>
</event>
<event>
 6    1  0.1535419E-002  0.9373981E+02  0.7546771E-02  0.1372557E+00
         -2   -1    0    0    0  501 -0.00000000000E+00  0.00000000000E+00  0.44489609607E+01  0.44489609607E+01  0.00000000000E+00 0.  1.
          2   -1    0    0  501    0  0.00000000000E+00 -0.00000000000E+00 -0.91074741379E+03  0.91074741379E+03  0.00000000000E+00 0. -1.
         23    2    1    2    0    0 -0.31334899544E+01  0.23478484134E+02 -0.83074384981E+03  0.83601584675E+03  0.90697817222E+02 0.  0.
         11    1    3    3    0    0  0.11263170627E+02  0.22110300742E+02 -0.81181875548E+03  0.81219789224E+03  0.00000000000E+00 0. -1.
        -11    1    3    3    0    0 -0.14396660582E+02  0.13681833921E+01 -0.18925094325E+02  0.23817954507E+02  0.00000000000E+00 0.  1.
         22    1    1    2    0    0  0.31334899544E+01 -0.23478484134E+02 -0.75554603019E+02  0.79180527997E+02  0.00000000000E+00 0.  1.
<mgrwt>
<rscale>  0 0.66461329E+02</rscale>
<asrwt>0</asrwt>
<pdfrwt beam="1">  1        2 0.14011500E+00 0.93739810E+02</pdfrwt>
<pdfrwt beam="2">  1       -2 0.68445544E-03 0.93739810E+02</pdfrwt>
<totfact> 0.97777501E+04</totfact>
</mgrwt>
</event>
<event>
 6    1  0.1535419E-002  0.1150518E+03  0.7546771E-02  0.1380186E+00
          4   -1    0    0  501    0  0.00000000000E+00  0.00000000000E+00  0.57094479500E+03  0.57094479500E+03  0.00000000000E+00 0.  1.
         -4   -1    0    0    0  501 -0.00000000000E+00 -0.00000000000E+00 -0.10449602587E+02  0.10449602587E+02  0.00000000000E+00 0. -1.
         23    2    1    2    0    0 -0.45907814762E+01  0.10330724194E+02  0.55810400098E+03  0.56983944482E+03  0.11449505591E+03 0.  0.
         11    1    3    3    0    0 -0.29910146966E+02 -0.19833058823E+02  0.48889335700E+03  0.49020881431E+03  0.00000000000E+00 0.  1.
        -11    1    3    3    0    0  0.25319365490E+02  0.30163783017E+02  0.69210643978E+02  0.79630630505E+02  0.00000000000E+00 0. -1.
         22    1    1    2    0    0  0.45907814762E+01 -0.10330724194E+02  0.23911914331E+01  0.11554952765E+02  0.00000000000E+00 0. -1.
<mgrwt>
<rscale>  0 0.64414858E+02</rscale>
<asrwt>0</asrwt>
<pdfrwt beam="1">  1        4 0.87837636E-01 0.11505180E+03</pdfrwt>
<pdfrwt beam="2">  1       -4 0.16076316E-02 0.11505180E+03</pdfrwt>
<totfact> 0.25956525E+03</totfact>
</mgrwt>
</event>
<event>
 6    1  0.1535419E-002  0.8507556E+02  0.7546771E-02  0.1441195E+00
          2   -1    0    0  501    0  0.00000000000E+00  0.00000000000E+00  0.71188369014E+02  0.71188369014E+02  0.00000000000E+00 0. -1.
         -2   -1    0    0    0  501 -0.00000000000E+00 -0.00000000000E+00 -0.34871370972E+02  0.34871370972E+02  0.00000000000E+00 0.  1.
         23    2    1    2    0    0  0.58933464145E+01  0.90453015004E+01  0.40820991542E+02  0.94362091990E+02  0.84387807431E+02 0.  0.
         11    1    3    3    0    0 -0.34614713388E+00 -0.34183611539E+02  0.37220338773E+02  0.50537043187E+02  0.00000000000E+00 0. -1.
        -11    1    3    3    0    0  0.62394935484E+01  0.43228913039E+02  0.36006527691E+01  0.43825048804E+02  0.00000000000E+00 0.  1.
         22    1    1    2    0    0 -0.58933464145E+01 -0.90453015004E+01 -0.45039934991E+01  0.11697647996E+02  0.00000000000E+00 0.  1.
<mgrwt>
<rscale>  0 0.50777018E+02</rscale>
<asrwt>0</asrwt>
<pdfrwt beam="1">  1        2 0.10952057E-01 0.85075561E+02</pdfrwt>
<pdfrwt beam="2">  1       -2 0.53648263E-02 0.85075561E+02</pdfrwt>
<totfact> 0.84447879E+04</totfact>
</mgrwt>
</event>
<event>
 6    1  0.1535419E-002  0.8678932E+02  0.7546771E-02  0.1420503E+00
          3   -1    0    0  501    0  0.00000000000E+00  0.00000000000E+00  0.35435683509E+03  0.35435683509E+03  0.00000000000E+00 0. -1.
         -3   -1    0    0    0  501 -0.00000000000E+00 -0.00000000000E+00 -0.27952238594E+02  0.27952238594E+02  0.00000000000E+00 0.  1.
         23    2    1    2    0    0  0.15161976447E+01 -0.13827975892E+02  0.34687035648E+03  0.35756318303E+03  0.85667227587E+02 0.  0.
         11    1    3    3    0    0 -0.41213003571E+02 -0.15396549693E+02  0.18107414767E+03  0.18634219157E+03  0.00000000000E+00 0. -1.
        -11    1    3    3    0    0  0.42729201216E+02  0.15685738012E+01  0.16579620881E+03  0.17122099146E+03  0.00000000000E+00 0.  1.
         22    1    1    2    0    0 -0.15161976447E+01  0.13827975892E+02 -0.20465759983E+02  0.24745890654E+02  0.00000000000E+00 0.  1.
<mgrwt>
<rscale>  0 0.54914639E+02</rscale>
<asrwt>0</asrwt>
<pdfrwt beam="1">  1        3 0.54516433E-01 0.86789318E+02</pdfrwt>
<pdfrwt beam="2">  1       -3 0.43003447E-02 0.86789318E+02</pdfrwt>
<totfact> 0.20447217E+03</totfact>
</mgrwt>
</event>
<event>
 6    1  0.1535419E-002  0.9207816E+02  0.7546771E-02  0.1373707E+00
         -1   -1    0    0    0  501 -0.00000000000E+00  0.00000000000E+00  0.62395823267E+02  0.62395823267E+02  0.00000000000E+00 0.  1.
          1   -1    0    0  501    0  0.00000000000E+00 -0.00000000000E+00 -0.58304755981E+02  0.58304755981E+02  0.00000000000E+00 0. -1.
         23    2    1    2    0    0 -0.17841709034E+02  0.16824401753E+02 -0.96627424982E+01  0.92583780725E+02  0.88752469178E+02 0.  0.
         13    1    3    3    0    0  0.19914049134E+02  0.35632778945E+01  0.30037435001E+02  0.36214828506E+02  0.00000000000E+00 0.  1.
        -13    1    3    3    0    0 -0.37755758169E+02  0.13261123859E+02 -0.39700177499E+02  0.56368952220E+02  0.00000000000E+00 0. -1.
         22    1    1    2    0    0  0.17841709034E+02 -0.16824401753E+02  0.13753809783E+02  0.28116798523E+02  0.00000000000E+00 0.  1.
<mgrwt>
<rscale>  0 0.66147242E+02</rscale>
<asrwt>0</asrwt>
<pdfrwt beam="1">  1        1 0.89699625E-02 0.92078162E+02</pdfrwt>
<pdfrwt beam="2">  1       -1 0.95993574E-02 0.92078162E+02</pdfrwt>
<totfact> 0.41807568E+04</totfact>
</mgrwt>
</event>
<event>
 6    1  0.1535419E-002  0.9240946E+02  0.7546771E-02  0.1416179E+00
          4   -1    0    0  501    0  0.00000000000E+00  0.00000000000E+00  0.69385076401E+02  0.69385076401E+02  0.00000000000E+00 0. -1.
         -4   -1    0    0    0  501 -0.00000000000E+00 -0.00000000000E+00 -0.55227382138E+02  0.55227382138E+02  0.00000000000E+00 0.  1.
         23    2    1    2    0    0 -0.11103984582E+02 -0.53335775411E+01  0.36292555917E+02  0.99280707249E+02  0.91584735048E+02 0.  0.
         11    1    3    3    0    0 -0.26857761994E+02  0.36208080165E+02  0.59341433203E+01  0.45470633441E+02  0.00000000000E+00 0.  1.
        -11    1    3    3    0    0  0.15753777412E+02 -0.41541657707E+02  0.30358412596E+02  0.53810073807E+02  0.00000000000E+00 0. -1.
         22    1    1    2    0    0  0.11103984582E+02  0.53335775411E+01 -0.22134861654E+02  0.25331751290E+02  0.00000000000E+00 0.  1.
<mgrwt>
<rscale>  0 0.55837611E+02</rscale>
<asrwt>0</asrwt>
<pdfrwt beam="1">  1        4 0.10674627E-01 0.92409465E+02</pdfrwt>
<pdfrwt beam="2">  1       -4 0.84965204E-02 0.92409465E+02</pdfrwt>
<totfact> 0.98972002E+03</totfact>
</mgrwt>
</event>
<event>
 6    1  0.1535419E-002  0.8858008E+02  0.7546771E-02  0.1432542E+00
         -2   -1    0    0    0  501 -0.00000000000E+00  0.00000000000E+00  0.46788046377E+01  0.46788046377E+01  0.00000000000E+00 0.  1.
          2   -1    0    0  501    0  0.00000000000E+00 -0.00000000000E+00 -0.12228082658E+04  0.12228082658E+04  0.00000000000E+00 0. -1.
         23    2    1    2    0    0 -0.95422468816E+01 -0.52500748193E+01 -0.12115060269E+04  0.12147400064E+04  0.87907975368E+02 0.  0.
         13    1    3    3    0    0 -0.41948594720E+02 -0.18886733071E+02 -0.43224643630E+03  0.43468767521E+03  0.00000000000E+00 0.  1.
        -13    1    3    3    0    0  0.32406347838E+02  0.13636658251E+02 -0.77925959057E+03  0.78005233115E+03  0.00000000000E+00 0. -1.
         22    1    1    2    0    0  0.95422468816E+01  0.52500748193E+01 -0.66234343109E+01  0.12747064102E+02  0.00000000000E+00 0.  1.
<mgrwt>
<rscale>  0 0.52453051E+02</rscale>
<asrwt>0</asrwt>
<pdfrwt beam="1">  1        2 0.18812465E+00 0.88580076E+02</pdfrwt>
<pdfrwt beam="2">  1       -2 0.71981496E-03 0.88580076E+02</pdfrwt>
<totfact> 0.59984143E+04</totfact>
</mgrwt>
</event>
<event>
 6    1  0.1535419E-002  0.9456294E+02  0.7546771E-02  0.1371754E+00
         -2   -1    0    0    0  501 -0.00000000000E+00  0.00000000000E+00  0.12059720061E+03  0.12059720061E+03  0.00000000000E+00 0. -1.
          2   -1    0    0  501    0  0.00000000000E+00 -0.00000000000E+00 -0.13491101448E+03  0.13491101448E+03  0.00000000000E+00 0.  1.
         23    2    1    2    0    0 -0.13272234389E+02 -0.19249406352E+02 -0.11686145036E+03  0.15032879886E+03  0.91626728282E+02 0.  0.
         11    1    3    3    0    0 -0.12770127483E+02 -0.21273505949E+02  0.75225321806E+01  0.25927335029E+02  0.00000000000E+00 0. -1.
        -11    1    3    3    0    0 -0.50210690599E+00  0.20240995975E+01 -0.12438398254E+03  0.12440146383E+03  0.00000000000E+00 0.  1.
         22    1    1    2    0    0  0.13272234389E+02  0.19249406352E+02  0.10254763649E+03  0.10517941624E+03  0.00000000000E+00 0. -1.
<mgrwt>
<rscale>  0 0.66681988E+02</rscale>
<asrwt>0</asrwt>
<pdfrwt beam="1">  1        2 0.20755541E-01 0.94562938E+02</pdfrwt>
<pdfrwt beam="2">  1       -2 0.18553416E-01 0.94562938E+02</pdfrwt>
<totfact> 0.58892261E+03</totfact>
</mgrwt>
</event>
<event>
 6    1  0.1535419E-002  0.8643444E+02  0.7546771E-02  0.1435102E+00
          2   -1    0    0  501    0  0.00000000000E+00  0.00000000000E+00  0.13781322305E+03  0.13781322305E+03  0.00000000000E+00 0. -1.
         -2   -1    0    0    0  501 -0.00000000000E+00 -0.00000000000E+00 -0.17566683021E+02  0.17566683021E+02  0.00000000000E+00 0.  1.
         23    2    1    2    0    0 -0.75212055164E+01 -0.84049157550E+01  0.11165743617E+03  0.14120302890E+03  0.85695397643E+02 0.  0.
         11    1    3    3    0    0 -0.68979835049E+01  0.16895772700E+02 -0.72463594123E+01  0.19635657267E+02  0.00000000000E+00 0.  1.
        -11    1    3    3    0    0 -0.62322201149E+00 -0.25300688455E+02  0.11890379558E+03  0.12156737163E+03  0.00000000000E+00 0. -1.
         22    1    1    2    0    0  0.75212055164E+01  0.84049157550E+01  0.85891038646E+01  0.14176877176E+02  0.00000000000E+00 0.  1.
<mgrwt>
<rscale>  0 0.51949427E+02</rscale>
<asrwt>0</asrwt>
<pdfrwt beam="1">  1        2 0.21202034E-01 0.86434439E+02</pdfrwt>
<pdfrwt beam="2">  1       -2 0.27025667E-02 0.86434439E+02</pdfrwt>
<totfact> 0.10805151E+05</totfact>
</mgrwt>
</event>
<event>
 6    1  0.1535419E-002  0.9610938E+02  0.7546771E-02  0.1417786E+00
         -2   -1    0    0    0  501 -0.00000000000E+00  0.00000000000E+00  0.24757347792E+02  0.24757347792E+02  0.00000000000E+00 0.  1.
          2   -1    0    0  501    0  0.00000000000E+00 -0.00000000000E+00 -0.11902965311E+03  0.11902965311E+03  0.00000000000E+00 0. -1.
         23    2    1    2    0    0 -0.39957293318E+01 -0.99057769305E+01 -0.91616995537E+02  0.13278059643E+03  0.95513991891E+02 0.  0.
         13    1    3    3    0    0  0.54453206254E+01  0.24695962417E+02 -0.93504852437E+02  0.96864335571E+02  0.00000000000E+00 0. -1.
        -13    1    3    3    0    0 -0.94410499573E+01 -0.34601739348E+02  0.18878568999E+01  0.35916260856E+02  0.00000000000E+00 0.  1.
         22    1    1    2    0    0  0.39957293318E+01  0.99057769305E+01 -0.26553097850E+01  0.11006404479E+02  0.00000000000E+00 0.  1.
<mgrwt>
<rscale>  0 0.55492004E+02</rscale>
<asrwt>0</asrwt>
<pdfrwt beam="1">  1        2 0.18312254E-01 0.96109380E+02</pdfrwt>
<pdfrwt beam="2">  1       -2 0.38088228E-02 0.96109380E+02</pdfrwt>
<totfact> 0.78457807E+04</totfact>
</mgrwt>
</event>
<event>
 6    1  0.1535419E-002  0.9085463E+02  0.7546771E-02  0.1413391E+00
          2   -1    0    0  501    0  0.00000000000E+00  0.00000000000E+00  0.13784281984E+02  0.13784281984E+02  0.00000000000E+00 0. -1.
         -2   -1    0    0    0  501 -0.00000000000E+00 -0.00000000000E+00 -0.27506516125E+03  0.27506516125E+03  0.00000000000E+00 0.  1.
         23    2    1    2    0    0  0.12000654935E+02 -0.62574911667E+01 -0.25980752691E+03  0.27523538132E+03  0.89840927080E+02 0.  0.
         11    1    3    3    0    0 -0.30076118437E+02 -0.19899599270E+02 -0.55451993977E+02  0.66147491164E+02  0.00000000000E+00 0. -1.
        -11    1    3    3    0    0  0.42076773372E+02  0.13642108103E+02 -0.20435553293E+03  0.20908789016E+03  0.00000000000E+00 0.  1.
         22    1    1    2    0    0 -0.12000654935E+02  0.62574911667E+01 -0.14733523585E+01  0.13614061912E+02  0.00000000000E+00 0.  1.
<mgrwt>
<rscale>  0 0.56443985E+02</rscale>
<asrwt>0</asrwt>
<pdfrwt beam="1">  1        2 0.21206589E-02 0.90854632E+02</pdfrwt>
<pdfrwt beam="2">  1       -2 0.42317715E-01 0.90854632E+02</pdfrwt>
<totfact> 0.23640079E+04</totfact>
</mgrwt>
</event>
<event>
 6    1  0.1535419E-002  0.1003316E+03  0.7546771E-02  0.1339354E+00
         -2   -1    0    0    0  501 -0.00000000000E+00  0.00000000000E+00  0.14393007828E+02  0.14393007828E+02  0.00000000000E+00 0.  1.
          2   -1    0    0  501    0  0.00000000000E+00 -0.00000000000E+00 -0.34378881156E+03  0.34378881156E+03  0.00000000000E+00 0. -1.
         23    2    1    2    0    0  0.33473986518E+02  0.51752582431E+01 -0.28628019488E+03  0.30335256809E+03  0.94441196068E+02 0.  0.
         11    1    3    3    0    0  0.46344463097E+02 -0.26021817358E+02 -0.24150033262E+03  0.24727991203E+03  0.00000000000E+00 0. -1.
        -11    1    3    3    0    0 -0.12870476579E+02  0.31197075602E+02 -0.44779862259E+02  0.56072656058E+02  0.00000000000E+00 0.  1.
         22    1    1    2    0    0 -0.33473986518E+02 -0.51752582431E+01 -0.43115608854E+02  0.54829251300E+02  0.00000000000E+00 0. -1.
<mgrwt>
<rscale>  0 0.76478175E+02</rscale>
<asrwt>0</asrwt>
<pdfrwt beam="1">  1        2 0.52890585E-01 0.10033160E+03</pdfrwt>
<pdfrwt beam="2">  1       -2 0.22143090E-02 0.10033160E+03</pdfrwt>
<totfact> 0.55530183E+04</totfact>
</mgrwt>
</event>
<event>
 6    1  0.1535419E-002  0.9191677E+02  0.7546771E-02  0.1426902E+00
         -4   -1    0    0    0  501 -0.00000000000E+00  0.00000000000E+00  0.17288512726E+02  0.17288512726E+02  0.00000000000E+00 0.  1.
          4   -1    0    0  501    0  0.00000000000E+00 -0.00000000000E+00 -0.16306621537E+03  0.16306621537E+03  0.00000000000E+00 0. -1.
         23    2    1    2    0    0  0.97311568740E+01  0.42484533110E+01 -0.14186312939E+03  0.16903798592E+03  0.91301415288E+02 0.  0.
         11    1    3    3    0    0  0.19101025638E+02 -0.44279296295E+01 -0.15167288894E+03  0.15293502209E+03  0.00000000000E+00 0. -1.
        -11    1    3    3    0    0 -0.93698687639E+01  0.86763829405E+01  0.98097595535E+01  0.16102963829E+02  0.00000000000E+00 0.  1.
         22    1    1    2    0    0 -0.97311568740E+01 -0.42484533110E+01 -0.39145732487E+01  0.11316742171E+02  0.00000000000E+00 0.  1.
<mgrwt>
<rscale>  0 0.53586838E+02</rscale>
<asrwt>0</asrwt>
<pdfrwt beam="1">  1        4 0.25087110E-01 0.91916773E+02</pdfrwt>
<pdfrwt beam="2">  1       -4 0.26597712E-02 0.91916773E+02</pdfrwt>
<totfact> 0.14086267E+04</totfact>
</mgrwt>
</event>
<event>
 6    1  0.1535419E-002  0.9114780E+02  0.7546771E-02  0.1416344E+00
         -2   -1    0    0    0  501 -0.00000000000E+00  0.00000000000E+00  0.57396939314E+01  0.57396939314E+01  0.00000000000E+00 0.  1.
          2   -1    0    0  501    0  0.00000000000E+00 -0.00000000000E+00 -0.22520800594E+04  0.22520800594E+04  0.00000000000E+00 0. -1.
         23    2    1    2    0    0 -0.11793887535E+02  0.49857570199E+01 -0.22426397970E+04  0.22444912964E+04  0.90243930640E+02 0.  0.
         11    1    3    3    0    0  0.44800965335E+01  0.58789623785E+01 -0.21713319315E+04  0.21713445121E+04  0.00000000000E+00 0. -1.
        -11    1    3    3    0    0 -0.16273984068E+02 -0.89320535863E+00 -0.71307865527E+02  0.73146784340E+02  0.00000000000E+00 0.  1.
         22    1    1    2    0    0  0.11793887535E+02 -0.49857570199E+01 -0.37005684345E+01  0.13328456887E+02  0.00000000000E+00 0.  1.
<mgrwt>
<rscale>  0 0.55801996E+02</rscale>
<asrwt>0</asrwt>
<pdfrwt beam="1">  1        2 0.34647437E+00 0.91147795E+02</pdfrwt>
<pdfrwt beam="2">  1       -2 0.88302853E-03 0.91147795E+02</pdfrwt>
<totfact> 0.13481417E+04</totfact>
</mgrwt>
</event>
<event>
 6    1  0.1535419E-002  0.9241190E+02  0.7546771E-02  0.1414649E+00
         -2   -1    0    0    0  501 -0.00000000000E+00  0.00000000000E+00  0.74294055959E+01  0.74294055959E+01  0.00000000000E+00 0.  1.
          2   -1    0    0  501    0  0.00000000000E+00 -0.00000000000E+00 -0.58919278029E+03  0.58919278029E+03  0.00000000000E+00 0. -1.
         23    2    1    2    0    0 -0.95739820888E+01  0.82110850311E+01 -0.57486642496E+03  0.58224682620E+03  0.91547130065E+02 0.  0.
         13    1    3    3    0    0 -0.30106466907E+02 -0.25794150453E+02 -0.13810565477E+03  0.14368336517E+03  0.00000000000E+00 0.  1.
        -13    1    3    3    0    0  0.20532484819E+02  0.34005235484E+02 -0.43676077020E+03  0.43856346103E+03  0.00000000000E+00 0. -1.
         22    1    1    2    0    0  0.95739820888E+01 -0.82110850311E+01 -0.68969497310E+01  0.14375359683E+02  0.00000000000E+00 0.  1.
<mgrwt>
<rscale>  0 0.56169289E+02</rscale>
<asrwt>0</asrwt>
<pdfrwt beam="1">  1        2 0.90645003E-01 0.92411904E+02</pdfrwt>
<pdfrwt beam="2">  1       -2 0.11429860E-02 0.92411904E+02</pdfrwt>
<totfact> 0.79414652E+04</totfact>
</mgrwt>
</event>
<event>
 6    1  0.1535419E-002  0.9413662E+02  0.7546771E-02  0.1382466E+00
          2   -1    0    0  501    0  0.00000000000E+00  0.00000000000E+00  0.20456451347E+03  0.20456451347E+03  0.00000000000E+00 0. -1.
         -2   -1    0    0    0  501 -0.00000000000E+00 -0.00000000000E+00 -0.17107410213E+02  0.17107410213E+02  0.00000000000E+00 0.  1.
         23    2    1    2    0    0 -0.19845486824E+02 -0.12726997050E+01  0.17344628896E+03  0.19734568211E+03  0.92012173008E+02 0.  0.
         13    1    3    3    0    0 -0.41927236765E+02 -0.19504952123E+02  0.15837091990E+03  0.16498389197E+03  0.00000000000E+00 0. -1.
        -13    1    3    3    0    0  0.22081749940E+02  0.18232252418E+02  0.15075369058E+02  0.32361790138E+02  0.00000000000E+00 0.  1.
         22    1    1    2    0    0  0.19845486824E+02  0.12726997050E+01  0.14010814298E+02  0.24326241574E+02  0.00000000000E+00 0.  1.
<mgrwt>
<rscale>  0 0.63820058E+02</rscale>
<asrwt>0</asrwt>
<pdfrwt beam="1">  1        2 0.31471462E-01 0.94136619E+02</pdfrwt>
<pdfrwt beam="2">  1       -2 0.26319094E-02 0.94136619E+02</pdfrwt>
<totfact> 0.74077042E+04</totfact>
</mgrwt>
</event>
<event>
 6    1  0.1535419E-002  0.9315561E+02  0.7546771E-02  0.1364859E+00
          2   -1    0    0  501    0  0.00000000000E+00  0.00000000000E+00  0.24635168665E+03  0.24635168665E+03  0.00000000000E+00 0. -1.
         -2   -1    0    0    0  501 -0.00000000000E+00 -0.00000000000E+00 -0.25524709922E+02  0.25524709922E+02  0.00000000000E+00 0.  1.
         23    2    1    2    0    0 -0.24732713642E+02  0.11844336819E+02  0.22556813265E+03  0.24404702364E+03  0.89027927308E+02 0.  0.
         11    1    3    3    0    0 -0.18418944032E+02  0.15287555398E+02  0.23269459033E+03  0.23392250686E+03  0.00000000000E+00 0. -1.
        -11    1    3    3    0    0 -0.63137696097E+01 -0.34432185790E+01 -0.71264576789E+01  0.10124516774E+02  0.00000000000E+00 0.  1.
         22    1    1    2    0    0  0.24732713642E+02 -0.11844336819E+02 -0.47411559154E+01  0.27829372939E+02  0.00000000000E+00 0.  1.
<mgrwt>
<rscale>  0 0.68617305E+02</rscale>
<asrwt>0</asrwt>
<pdfrwt beam="1">  1        2 0.37900258E-01 0.93155608E+02</pdfrwt>
<pdfrwt beam="2">  1       -2 0.39268786E-02 0.93155608E+02</pdfrwt>
<totfact> 0.33886050E+04</totfact>
</mgrwt>
</event>
<event>
 6    1  0.1535419E-002  0.9710435E+02  0.7546771E-02  0.1363031E+00
          1   -1    0    0  501    0  0.00000000000E+00  0.00000000000E+00  0.35603515426E+03  0.35603515426E+03  0.00000000000E+00 0. -1.
         -1   -1    0    0    0  501 -0.00000000000E+00 -0.00000000000E+00 -0.16713347647E+02  0.16713347647E+02  0.00000000000E+00 0.  1.
         23    2    1    2    0    0 -0.18129118010E+02 -0.17159423652E+02  0.33317974119E+03  0.34704177696E+03  0.93841058568E+02 0.  0.
         13    1    3    3    0    0 -0.15757142685E+02  0.13155763110E+02  0.10731712502E+02  0.23163145335E+02  0.00000000000E+00 0.  1.
        -13    1    3    3    0    0 -0.23719753247E+01 -0.30315186762E+02  0.32244802869E+03  0.32387863162E+03  0.00000000000E+00 0. -1.
         22    1    1    2    0    0  0.18129118010E+02  0.17159423652E+02  0.61420654184E+01  0.25706724947E+02  0.00000000000E+00 0.  1.
<mgrwt>
<rscale>  0 0.69143231E+02</rscale>
<asrwt>0</asrwt>
<pdfrwt beam="1">  1        1 0.54774633E-01 0.97104351E+02</pdfrwt>
<pdfrwt beam="2">  1       -1 0.25712845E-02 0.97104351E+02</pdfrwt>
<totfact> 0.29893030E+04</totfact>
</mgrwt>
</event>
<event>
 6    1  0.1535419E-002  0.8833110E+02  0.7546771E-02  0.1432930E+00
         -2   -1    0    0    0  501 -0.00000000000E+00  0.00000000000E+00  0.16674083499E+02  0.16674083499E+02  0.00000000000E+00 0. -1.
          2   -1    0    0  501    0  0.00000000000E+00 -0.00000000000E+00 -0.14851316281E+03  0.14851316281E+03  0.00000000000E+00 0.  1.
         23    2    1    2    0    0 -0.79356097965E+00 -0.10890610399E+02 -0.11319657325E+03  0.14358219676E+03  0.87653567505E+02 0.  0.
         13    1    3    3    0    0 -0.37489932712E+02  0.17650600997E+02 -0.60231462695E+02  0.73108603247E+02  0.00000000000E+00 0.  1.
        -13    1    3    3    0    0  0.36696371732E+02 -0.28541211396E+02 -0.52965110558E+02  0.70473593514E+02  0.00000000000E+00 0. -1.
         22    1    1    2    0    0  0.79356097965E+00  0.10890610399E+02 -0.18642506054E+02  0.21605049546E+02  0.00000000000E+00 0.  1.
<mgrwt>
<rscale>  0 0.52376413E+02</rscale>
<asrwt>0</asrwt>
<pdfrwt beam="1">  1        2 0.22848180E-01 0.88331099E+02</pdfrwt>
<pdfrwt beam="2">  1       -2 0.25652435E-02 0.88331099E+02</pdfrwt>
<totfact> 0.10766429E+05</totfact>
</mgrwt>
</event>
<event>
 6    1  0.1535419E-002  0.9362196E+02  0.7546771E-02  0.1421389E+00
         -2   -1    0    0    0  501 -0.00000000000E+00  0.00000000000E+00  0.71183773939E+01  0.71183773939E+01  0.00000000000E+00 0. -1.
          2   -1    0    0  501    0  0.00000000000E+00 -0.00000000000E+00 -0.42297590033E+03  0.42297590033E+03  0.00000000000E+00 0.  1.
         23    2    1    2    0    0  0.10922826894E+02  0.45427806424E+00 -0.40015355194E+03  0.41095977431E+03  0.92981484463E+02 0.  0.
         11    1    3    3    0    0  0.23918210335E+02 -0.13351019873E+02 -0.38680214673E+03  0.38777084887E+03  0.00000000000E+00 0.  1.
        -11    1    3    3    0    0 -0.12995383442E+02  0.13805297937E+02 -0.13351405209E+02  0.23188925439E+02  0.00000000000E+00 0. -1.
         22    1    1    2    0    0 -0.10922826894E+02 -0.45427806424E+00 -0.15703970990E+02  0.19134503411E+02  0.00000000000E+00 0. -1.
<mgrwt>
<rscale>  0 0.54728163E+02</rscale>
<asrwt>0</asrwt>
<pdfrwt beam="1">  1        2 0.65073227E-01 0.93621958E+02</pdfrwt>
<pdfrwt beam="2">  1       -2 0.10951348E-02 0.93621958E+02</pdfrwt>
<totfact> 0.12105604E+05</totfact>
</mgrwt>
</event>
<event>
 6    1  0.1535419E-002  0.9111251E+02  0.7546771E-02  0.1418726E+00
          2   -1    0    0  501    0  0.00000000000E+00  0.00000000000E+00  0.47168076123E+02  0.47168076123E+02  0.00000000000E+00 0. -1.
         -2   -1    0    0    0  501 -0.00000000000E+00 -0.00000000000E+00 -0.56776963580E+02  0.56776963580E+02  0.00000000000E+00 0.  1.
         23    2    1    2    0    0 -0.12343622166E+02 -0.56407055617E+00 -0.76347112549E+01  0.91431824472E+02  0.90270740146E+02 0.  0.
         11    1    3    3    0    0  0.30109721074E+02 -0.23558778141E+02  0.10838201388E+02  0.39737613668E+02  0.00000000000E+00 0. -1.
        -11    1    3    3    0    0 -0.42453343240E+02  0.22994707585E+02 -0.18472912643E+02  0.51694210804E+02  0.00000000000E+00 0.  1.
         22    1    1    2    0    0  0.12343622166E+02  0.56407055617E+00 -0.19741762019E+01  0.12513215232E+02  0.00000000000E+00 0. -1.
<mgrwt>
<rscale>  0 0.55291378E+02</rscale>
<asrwt>0</asrwt>
<pdfrwt beam="1">  1        2 0.72566272E-02 0.91112511E+02</pdfrwt>
<pdfrwt beam="2">  1       -2 0.87349174E-02 0.91112511E+02</pdfrwt>
<totfact> 0.67630186E+04</totfact>
</mgrwt>
</event>
<event>
 6    1  0.1535419E-002  0.2417918E+03  0.7546771E-02  0.1121774E+00
         -1   -1    0    0    0  501 -0.00000000000E+00  0.00000000000E+00  0.49255115849E+02  0.49255115849E+02  0.00000000000E+00 0.  1.
          1   -1    0    0  501    0  0.00000000000E+00 -0.00000000000E+00 -0.11210239926E+04  0.11210239926E+04  0.00000000000E+00 0. -1.
         23    2    1    2    0    0 -0.22020107486E+03  0.37526087614E+02 -0.63997733935E+03  0.68413031190E+03  0.92555757023E+02 0.  0.
         13    1    3    3    0    0 -0.40686690344E+02  0.73085272837E+01 -0.41482706064E+02  0.58563096269E+02  0.00000000000E+00 0. -1.
        -13    1    3    3    0    0 -0.17951438451E+03  0.30217560330E+02 -0.59849463329E+03  0.62556721563E+03  0.00000000000E+00 0.  1.
         22    1    1    2    0    0  0.22020107486E+03 -0.37526087614E+02 -0.43179153743E+03  0.48614879658E+03  0.00000000000E+00 0. -1.
<mgrwt>
<rscale>  0 0.23705014E+03</rscale>
<asrwt>0</asrwt>
<pdfrwt beam="1">  1        1 0.17246521E+00 0.24179183E+03</pdfrwt>
<pdfrwt beam="2">  1       -1 0.75777109E-02 0.24179183E+03</pdfrwt>
<totfact> 0.12210690E+03</totfact>
</mgrwt>
</event>
<event>
 6    1  0.1535419E-002  0.1031901E+03  0.7546771E-02  0.1313449E+00
         -4   -1    0    0    0  501 -0.00000000000E+00  0.00000000000E+00  0.13137578969E+02  0.13137578969E+02  0.00000000000E+00 0.  1.
          4   -1    0    0  501    0  0.00000000000E+00 -0.00000000000E+00 -0.45047632174E+03  0.45047632174E+03  0.00000000000E+00 0. -1.
         23    2    1    2    0    0  0.30870650343E+02  0.38357298411E+02 -0.32418684288E+03  0.34021360961E+03  0.90685785401E+02 0.  0.
         11    1    3    3    0    0  0.34763774614E+02  0.56874082248E+02 -0.30854692333E+03  0.31566498880E+03  0.00000000000E+00 0. -1.
        -11    1    3    3    0    0 -0.38931242704E+01 -0.18516783837E+02 -0.15639919552E+02  0.24548620814E+02  0.00000000000E+00 0.  1.
         22    1    1    2    0    0 -0.30870650343E+02 -0.38357298411E+02 -0.11315189989E+03  0.12340029110E+03  0.00000000000E+00 0. -1.
<mgrwt>
<rscale>  0 0.85763258E+02</rscale>
<asrwt>0</asrwt>
<pdfrwt beam="1">  1        4 0.69304036E-01 0.10319007E+03</pdfrwt>
<pdfrwt beam="2">  1       -4 0.20211664E-02 0.10319007E+03</pdfrwt>
<totfact> 0.29915879E+03</totfact>
</mgrwt>
</event>
<event>
 6    1  0.1535419E-002  0.1147940E+03  0.7546771E-02  0.1280820E+00
          1   -1    0    0  501    0  0.00000000000E+00  0.00000000000E+00  0.10632425720E+04  0.10632425720E+04  0.00000000000E+00 0. -1.
         -1   -1    0    0    0  501 -0.00000000000E+00 -0.00000000000E+00 -0.27690770056E+03  0.27690770056E+03  0.00000000000E+00 0.  1.
         23    2    1    2    0    0  0.55734793457E+02  0.34312815981E+02  0.10562212638E+04  0.10624410697E+04  0.94307644520E+02 0.  0.
         11    1    3    3    0    0  0.54930387845E+02  0.41277738293E+02  0.37866412873E+03  0.38484766021E+03  0.00000000000E+00 0.  1.
        -11    1    3    3    0    0  0.80440561253E+00 -0.69649223118E+01  0.67755713509E+03  0.67759340945E+03  0.00000000000E+00 0. -1.
         22    1    1    2    0    0 -0.55734793457E+02 -0.34312815981E+02 -0.26988639242E+03  0.27770920286E+03  0.00000000000E+00 0.  1.
<mgrwt>
<rscale>  0 0.99751012E+02</rscale>
<asrwt>0</asrwt>
<pdfrwt beam="1">  1        1 0.16357578E+00 0.11479403E+03</pdfrwt>
<pdfrwt beam="2">  1       -1 0.42601185E-01 0.11479403E+03</pdfrwt>
<totfact> 0.84951276E+01</totfact>
</mgrwt>
</event>
<event>
 6    1  0.1535419E-002  0.8646022E+02  0.7546771E-02  0.1404562E+00
          2   -1    0    0  501    0  0.00000000000E+00  0.00000000000E+00  0.56258794917E+02  0.56258794917E+02  0.00000000000E+00 0. -1.
         -2   -1    0    0    0  501 -0.00000000000E+00 -0.00000000000E+00 -0.48516821721E+02  0.48516821721E+02  0.00000000000E+00 0.  1.
         23    2    1    2    0    0  0.11273083937E+02  0.14068958297E+02  0.65526031963E+01  0.86708170499E+02  0.84559755283E+02 0.  0.
         11    1    3    3    0    0 -0.91593761161E+01  0.20489544742E+02  0.40654672409E+02  0.46438324725E+02  0.00000000000E+00 0. -1.
        -11    1    3    3    0    0  0.20432460053E+02 -0.64205864448E+01 -0.34102069212E+02  0.40269845774E+02  0.00000000000E+00 0.  1.
         22    1    1    2    0    0 -0.11273083937E+02 -0.14068958297E+02  0.11893699994E+01  0.18067446140E+02  0.00000000000E+00 0. -1.
<mgrwt>
<rscale>  0 0.58425265E+02</rscale>
<asrwt>0</asrwt>
<pdfrwt beam="1">  1        2 0.86551992E-02 0.86460223E+02</pdfrwt>
<pdfrwt beam="2">  1       -2 0.74641264E-02 0.86460223E+02</pdfrwt>
<totfact> 0.68565706E+04</totfact>
</mgrwt>
</event>
<event>
 6    1  0.1535419E-002  0.9415390E+02  0.7546771E-02  0.1378478E+00
          1   -1    0    0  501    0  0.00000000000E+00  0.00000000000E+00  0.21815342418E+03  0.21815342418E+03  0.00000000000E+00 0. -1.
         -1   -1    0    0    0  501 -0.00000000000E+00 -0.00000000000E+00 -0.54011863767E+02  0.54011863767E+02  0.00000000000E+00 0.  1.
         23    2    1    2    0    0  0.22677577412E+01  0.21088599355E+02  0.20530136778E+03  0.22586192425E+03  0.91733774931E+02 0.  0.
         13    1    3    3    0    0  0.18930221793E+01  0.17626819354E+02 -0.26118564310E+01  0.17919544847E+02  0.00000000000E+00 0.  1.
        -13    1    3    3    0    0  0.37473556191E+00  0.34617800007E+01  0.20791322421E+03  0.20794237940E+03  0.00000000000E+00 0. -1.
         22    1    1    2    0    0 -0.22677577412E+01 -0.21088599355E+02 -0.41159807366E+02  0.46303363704E+02  0.00000000000E+00 0.  1.
<mgrwt>
<rscale>  0 0.64865659E+02</rscale>
<asrwt>0</asrwt>
<pdfrwt beam="1">  1        1 0.33562065E-01 0.94153902E+02</pdfrwt>
<pdfrwt beam="2">  1       -1 0.83095176E-02 0.94153902E+02</pdfrwt>
<totfact> 0.97571896E+03</totfact>
</mgrwt>
</event>
<event>
 6    1  0.1535419E-002  0.8814027E+02  0.7546771E-02  0.1429830E+00
          2   -1    0    0  501    0  0.00000000000E+00  0.00000000000E+00  0.60611001401E+02  0.60611001401E+02  0.00000000000E+00 0.  1.
         -2   -1    0    0    0  501 -0.00000000000E+00 -0.00000000000E+00 -0.43151979400E+02  0.43151979400E+02  0.00000000000E+00 0. -1.
         23    2    1    2    0    0 -0.14167234937E+01  0.11430892252E+02  0.22837363193E+02  0.91050822955E+02  0.87384408221E+02 0.  0.
         11    1    3    3    0    0 -0.27570644092E+02  0.21615706842E+02  0.43750638915E+02  0.56049064251E+02  0.00000000000E+00 0.  1.
        -11    1    3    3    0    0  0.26153920599E+02 -0.10184814590E+02 -0.20913275723E+02  0.35001758704E+02  0.00000000000E+00 0. -1.
         22    1    1    2    0    0  0.14167234937E+01 -0.11430892252E+02 -0.53783411921E+01  0.12712157846E+02  0.00000000000E+00 0. -1.
<mgrwt>
<rscale>  0 0.52994202E+02</rscale>
<asrwt>0</asrwt>
<pdfrwt beam="1">  1        2 0.93247694E-02 0.88140270E+02</pdfrwt>
<pdfrwt beam="2">  1       -2 0.66387661E-02 0.88140270E+02</pdfrwt>
<totfact> 0.74955553E+04</totfact>
</mgrwt>
</event>
<event>
 6    1  0.1535419E-002  0.8831758E+02  0.7546771E-02  0.1430913E+00
         -2   -1    0    0    0  501 -0.00000000000E+00  0.00000000000E+00  0.26170261853E+02  0.26170261853E+02  0.00000000000E+00 0.  1.
          2   -1    0    0  501    0  0.00000000000E+00 -0.00000000000E+00 -0.18113251410E+03  0.18113251410E+03  0.00000000000E+00 0. -1.
         23    2    1    2    0    0 -0.10389537968E+02  0.43479934424E+01 -0.16816674014E+03  0.18994748723E+03  0.87596506034E+02 0.  0.
         11    1    3    3    0    0 -0.48784745711E+01 -0.29395079890E+02 -0.14643376781E+03  0.14943466328E+03  0.00000000000E+00 0. -1.
        -11    1    3    3    0    0 -0.55110633971E+01  0.33743073333E+02 -0.21732972329E+02  0.40512823944E+02  0.00000000000E+00 0.  1.
         22    1    1    2    0    0  0.10389537968E+02 -0.43479934424E+01  0.13204487893E+02  0.17355288724E+02  0.00000000000E+00 0.  1.
<mgrwt>
<rscale>  0 0.52777114E+02</rscale>
<asrwt>0</asrwt>
<pdfrwt beam="1">  1        2 0.27866541E-01 0.88317583E+02</pdfrwt>
<pdfrwt beam="2">  1       -2 0.40261941E-02 0.88317583E+02</pdfrwt>
<totfact> 0.44990478E+04</totfact>
</mgrwt>
</event>
<event>
 6    1  0.1535419E-002  0.9357875E+02  0.7546771E-02  0.1363002E+00
          1   -1    0    0  501    0  0.00000000000E+00  0.00000000000E+00  0.78450509811E+02  0.78450509811E+02  0.00000000000E+00 0. -1.
         -1   -1    0    0    0  501 -0.00000000000E+00 -0.00000000000E+00 -0.47049577369E+02  0.47049577369E+02  0.00000000000E+00 0.  1.
         23    2    1    2    0    0 -0.24142078214E+02 -0.13994016469E+02  0.25251156748E+02  0.96925759917E+02  0.89321383672E+02 0.  0.
         11    1    3    3    0    0 -0.29561343819E+02 -0.47398144399E+02  0.28890560059E+02  0.62889757524E+02  0.00000000000E+00 0. -1.
        -11    1    3    3    0    0  0.54192656052E+01  0.33404127930E+02 -0.36394033110E+01  0.34036002394E+02  0.00000000000E+00 0.  1.
         22    1    1    2    0    0  0.24142078214E+02  0.13994016469E+02  0.61497756938E+01  0.28574327263E+02  0.00000000000E+00 0.  1.
<mgrwt>
<rscale>  0 0.69151606E+02</rscale>
<asrwt>0</asrwt>
<pdfrwt beam="1">  1        1 0.12069309E-01 0.93578748E+02</pdfrwt>
<pdfrwt beam="2">  1       -1 0.72383965E-02 0.93578748E+02</pdfrwt>
<totfact> 0.43361085E+04</totfact>
</mgrwt>
</event>
<event>
 6    1  0.1535419E-002  0.9120563E+02  0.7546771E-02  0.1429175E+00
         -4   -1    0    0    0  501 -0.00000000000E+00  0.00000000000E+00  0.34983067636E+02  0.34983067636E+02  0.00000000000E+00 0.  1.
          4   -1    0    0  501    0  0.00000000000E+00 -0.00000000000E+00 -0.12823466076E+03  0.12823466076E+03  0.00000000000E+00 0. -1.
         23    2    1    2    0    0 -0.96275246417E+01 -0.41891090651E+01 -0.11034395454E+03  0.14315815002E+03  0.90599281165E+02 0.  0.
         13    1    3    3    0    0 -0.44233002266E+02 -0.18390014771E+02 -0.86261944573E+02  0.98670533668E+02  0.00000000000E+00 0. -1.
        -13    1    3    3    0    0  0.34605477625E+02  0.14200905706E+02 -0.24082009969E+02  0.44487616352E+02  0.00000000000E+00 0.  1.
         22    1    1    2    0    0  0.96275246417E+01  0.41891090651E+01  0.17092361422E+02  0.20059578372E+02  0.00000000000E+00 0.  1.
<mgrwt>
<rscale>  0 0.53126059E+02</rscale>
<asrwt>0</asrwt>
<pdfrwt beam="1">  1        4 0.19728409E-01 0.91205634E+02</pdfrwt>
<pdfrwt beam="2">  1       -4 0.53820105E-02 0.91205634E+02</pdfrwt>
<totfact> 0.71662044E+03</totfact>
</mgrwt>
</event>
<event>
 6    1  0.1535419E-002  0.8715241E+02  0.7546771E-02  0.1425466E+00
          1   -1    0    0  501    0  0.00000000000E+00  0.00000000000E+00  0.15804110320E+04  0.15804110320E+04  0.00000000000E+00 0. -1.
         -1   -1    0    0    0  501 -0.00000000000E+00 -0.00000000000E+00 -0.42248187664E+01  0.42248187664E+01  0.00000000000E+00 0.  1.
         23    2    1    2    0    0  0.11804537903E+02  0.47710678783E+01  0.15657482676E+04  0.15681719231E+04  0.86217357769E+02 0.  0.
         13    1    3    3    0    0 -0.32880207855E+02  0.14993748668E+01  0.10391231857E+04  0.10396443388E+04  0.00000000000E+00 0. -1.
        -13    1    3    3    0    0  0.44684745758E+02  0.32716930115E+01  0.52662508193E+03  0.52852758433E+03  0.00000000000E+00 0.  1.
         22    1    1    2    0    0 -0.11804537903E+02 -0.47710678783E+01  0.10437945589E+02  0.16463927597E+02  0.00000000000E+00 0.  1.
<mgrwt>
<rscale>  0 0.53881026E+02</rscale>
<asrwt>0</asrwt>
<pdfrwt beam="1">  1        1 0.24313969E+00 0.87152412E+02</pdfrwt>
<pdfrwt beam="2">  1       -1 0.64997338E-03 0.87152412E+02</pdfrwt>
<totfact> 0.20680367E+04</totfact>
</mgrwt>
</event>
<event>
 6    1  0.1535419E-002  0.9827048E+02  0.7546771E-02  0.1342554E+00
          2   -1    0    0  501    0  0.00000000000E+00  0.00000000000E+00  0.18160192595E+03  0.18160192595E+03  0.00000000000E+00 0. -1.
         -2   -1    0    0    0  501 -0.00000000000E+00 -0.00000000000E+00 -0.31849117034E+02  0.31849117034E+02  0.00000000000E+00 0.  1.
         23    2    1    2    0    0 -0.18773461418E+02 -0.28474415389E+02  0.15002362269E+03  0.17934373401E+03  0.92162098386E+02 0.  0.
         11    1    3    3    0    0 -0.29868525378E+02 -0.56802804253E+02  0.77014472749E+02  0.10024927128E+03  0.00000000000E+00 0.  1.
        -11    1    3    3    0    0  0.11095063960E+02  0.28328388863E+02  0.73009149941E+02  0.79094462732E+02  0.00000000000E+00 0. -1.
         22    1    1    2    0    0  0.18773461418E+02  0.28474415389E+02 -0.27081377086E+00  0.34107308975E+02  0.00000000000E+00 0. -1.
<mgrwt>
<rscale>  0 0.75426812E+02</rscale>
<asrwt>0</asrwt>
<pdfrwt beam="1">  1        2 0.27938757E-01 0.98270482E+02</pdfrwt>
<pdfrwt beam="2">  1       -2 0.48998642E-02 0.98270482E+02</pdfrwt>
<totfact> 0.34014985E+04</totfact>
</mgrwt>
</event>
<event>
 6    1  0.1535419E-002  0.9220297E+02  0.7546771E-02  0.1427299E+00
          2   -1    0    0  501    0  0.00000000000E+00  0.00000000000E+00  0.41933044516E+03  0.41933044516E+03  0.00000000000E+00 0. -1.
         -2   -1    0    0    0  501 -0.00000000000E+00 -0.00000000000E+00 -0.83980246603E+01  0.83980246603E+01  0.00000000000E+00 0.  1.
         23    2    1    2    0    0  0.97237896178E+01  0.38446273282E+01  0.40568212443E+03  0.41602809151E+03  0.91608152460E+02 0.  0.
         11    1    3    3    0    0  0.23666275980E+02  0.33982217825E+02  0.33915722875E+03  0.34167603012E+03  0.00000000000E+00 0. -1.
        -11    1    3    3    0    0 -0.13942486362E+02 -0.30137590497E+02  0.66524895684E+02  0.74352061388E+02  0.00000000000E+00 0.  1.
         22    1    1    2    0    0 -0.97237896178E+01 -0.38446273282E+01  0.52502960673E+01  0.11700378311E+02  0.00000000000E+00 0.  1.
<mgrwt>
<rscale>  0 0.53506026E+02</rscale>
<asrwt>0</asrwt>
<pdfrwt beam="1">  1        2 0.64512360E-01 0.92202965E+02</pdfrwt>
<pdfrwt beam="2">  1       -2 0.12920041E-02 0.92202965E+02</pdfrwt>
<totfact> 0.96381131E+04</totfact>
</mgrwt>
</event>
<event>
 6    1  0.1535419E-002  0.1076127E+03  0.7546771E-02  0.1378574E+00
          2   -1    0    0  501    0  0.00000000000E+00  0.00000000000E+00  0.27420741101E+03  0.27420741101E+03  0.00000000000E+00 0.  1.
         -2   -1    0    0    0  501 -0.00000000000E+00 -0.00000000000E+00 -0.13858099165E+02  0.13858099165E+02  0.00000000000E+00 0. -1.
         23    2    1    2    0    0 -0.57207590852E+01  0.12978773654E+02  0.24220426274E+03  0.26503469480E+03  0.10667384359E+03 0.  0.
         13    1    3    3    0    0  0.94444945152E+01  0.35568160769E+02  0.23362591909E+03  0.23650658047E+03  0.00000000000E+00 0.  1.
        -13    1    3    3    0    0 -0.15165253600E+02 -0.22589387115E+02  0.85783436520E+01  0.28528114322E+02  0.00000000000E+00 0. -1.
         22    1    1    2    0    0  0.57207590852E+01 -0.12978773654E+02  0.18145049108E+02  0.23030815383E+02  0.00000000000E+00 0. -1.
<mgrwt>
<rscale>  0 0.64840216E+02</rscale>
<asrwt>0</asrwt>
<pdfrwt beam="1">  1        2 0.42185751E-01 0.10761266E+03</pdfrwt>
<pdfrwt beam="2">  1       -2 0.21320155E-02 0.10761266E+03</pdfrwt>
<totfact> 0.75072510E+04</totfact>
</mgrwt>
</event>
<event>
 6    1  0.1535419E-002  0.9365160E+02  0.7546771E-02  0.1397105E+00
         -4   -1    0    0    0  501 -0.00000000000E+00  0.00000000000E+00  0.60914359548E+02  0.60914359548E+02  0.00000000000E+00 0.  1.
          4   -1    0    0  501    0  0.00000000000E+00 -0.00000000000E+00 -0.74424726101E+02  0.74424726101E+02  0.00000000000E+00 0. -1.
         23    2    1    2    0    0 -0.67244437280E+01 -0.14475945866E+02 -0.42034737007E+02  0.10265253089E+03  0.92281373152E+02 0.  0.
         11    1    3    3    0    0 -0.35997970423E+02 -0.17473827551E+02 -0.56996711670E+02  0.69640603567E+02  0.00000000000E+00 0. -1.
        -11    1    3    3    0    0  0.29273526695E+02  0.29978816855E+01  0.14961974663E+02  0.33011927323E+02  0.00000000000E+00 0.  1.
         22    1    1    2    0    0  0.67244437280E+01  0.14475945866E+02  0.28524370455E+02  0.32686554759E+02  0.00000000000E+00 0. -1.
<mgrwt>
<rscale>  0 0.60173490E+02</rscale>
<asrwt>0</asrwt>
<pdfrwt beam="1">  1        4 0.11449958E-01 0.93651604E+02</pdfrwt>
<pdfrwt beam="2">  1       -4 0.93714400E-02 0.93651604E+02</pdfrwt>
<totfact> 0.75057783E+03</totfact>
</mgrwt>
</event>
<event>
 6    1  0.1535419E-002  0.9059403E+02  0.7546771E-02  0.1422373E+00
         -2   -1    0    0    0  501 -0.00000000000E+00  0.00000000000E+00  0.11268990306E+02  0.11268990306E+02  0.00000000000E+00 0.  1.
          2   -1    0    0  501    0  0.00000000000E+00 -0.00000000000E+00 -0.23345668710E+03  0.23345668710E+03  0.00000000000E+00 0. -1.
         23    2    1    2    0    0  0.98606260762E+01  0.66341786047E+01 -0.19270703307E+03  0.21293961432E+03  0.89811104452E+02 0.  0.
         13    1    3    3    0    0 -0.22087175611E+02 -0.28709148678E+02 -0.12505559469E+03  0.13019585365E+03  0.00000000000E+00 0.  1.
        -13    1    3    3    0    0  0.31947801687E+02  0.35343327283E+02 -0.67651438372E+02  0.82743760671E+02  0.00000000000E+00 0. -1.
         22    1    1    2    0    0 -0.98606260762E+01 -0.66341786047E+01 -0.29480663730E+02  0.31786063084E+02  0.00000000000E+00 0.  1.
<mgrwt>
<rscale>  0 0.54521909E+02</rscale>
<asrwt>0</asrwt>
<pdfrwt beam="1">  1        2 0.35916411E-01 0.90594033E+02</pdfrwt>
<pdfrwt beam="2">  1       -2 0.17336909E-02 0.90594033E+02</pdfrwt>
<totfact> 0.11678213E+05</totfact>
</mgrwt>
</event>
<event>
 6    1  0.1535419E-002  0.9489998E+02  0.7546771E-02  0.1340370E+00
          2   -1    0    0  501    0  0.00000000000E+00  0.00000000000E+00  0.67639121551E+03  0.67639121551E+03  0.00000000000E+00 0. -1.
         -2   -1    0    0    0  501 -0.00000000000E+00 -0.00000000000E+00 -0.67099559598E+01  0.67099559598E+01  0.00000000000E+00 0.  1.
         23    2    1    2    0    0  0.16933141535E+02  0.35496364454E+02  0.44539572312E+03  0.45539362872E+03  0.86367145008E+02 0.  0.
         11    1    3    3    0    0 -0.11764771184E+02 -0.23755550986E+02  0.18065726076E+03  0.18259184513E+03  0.00000000000E+00 0. -1.
        -11    1    3    3    0    0  0.28697912719E+02  0.59251915440E+02  0.26473846236E+03  0.27280178359E+03  0.00000000000E+00 0.  1.
         22    1    1    2    0    0 -0.16933141535E+02 -0.35496364454E+02  0.22428553643E+03  0.22770754274E+03  0.00000000000E+00 0. -1.
<mgrwt>
<rscale>  0 0.76142333E+02</rscale>
<asrwt>0</asrwt>
<pdfrwt beam="1">  1        2 0.10406013E+00 0.94899984E+02</pdfrwt>
<pdfrwt beam="2">  1       -2 0.10323015E-02 0.94899984E+02</pdfrwt>
<totfact> 0.78729552E+04</totfact>
</mgrwt>
</event>
<event>
 6    1  0.1535419E-002  0.9488386E+02  0.7546771E-02  0.1365417E+00
         -2   -1    0    0    0  501 -0.00000000000E+00  0.00000000000E+00  0.35707060547E+01  0.35707060547E+01  0.00000000000E+00 0. -1.
          2   -1    0    0  501    0  0.00000000000E+00 -0.00000000000E+00 -0.14493431566E+04  0.14493431566E+04  0.00000000000E+00 0.  1.
         23    2    1    2    0    0  0.17641462905E+02 -0.18703645726E+02 -0.13616050441E+04  0.13649070454E+04  0.91333996231E+02 0.  0.
         13    1    3    3    0    0 -0.68456723704E+00 -0.54430621916E+02 -0.72970988203E+03  0.73173743459E+03  0.00000000000E+00 0.  1.
        -13    1    3    3    0    0  0.18326030142E+02  0.35726976191E+02 -0.63189516204E+03  0.63316961078E+03  0.00000000000E+00 0. -1.
         22    1    1    2    0    0 -0.17641462905E+02  0.18703645726E+02 -0.84167406451E+02  0.88006817267E+02  0.00000000000E+00 0. -1.
<mgrwt>
<rscale>  0 0.68457863E+02</rscale>
<asrwt>0</asrwt>
<pdfrwt beam="1">  1        2 0.22297571E+00 0.94883858E+02</pdfrwt>
<pdfrwt beam="2">  1       -2 0.54933978E-03 0.94883858E+02</pdfrwt>
<totfact> 0.67169191E+04</totfact>
</mgrwt>
</event>
<event>
 6    1  0.1535419E-002  0.1151141E+03  0.7546771E-02  0.1303926E+00
          3   -1    0    0  501    0  0.00000000000E+00  0.00000000000E+00  0.28585920936E+02  0.28585920936E+02  0.00000000000E+00 0. -1.
         -3   -1    0    0    0  501 -0.00000000000E+00 -0.00000000000E+00 -0.23003719730E+03  0.23003719730E+03  0.00000000000E+00 0.  1.
         23    2    1    2    0    0  0.28429389310E+02  0.31149365463E+02 -0.11649395556E+03  0.16377450462E+03  0.10711084697E+03 0.  0.
         13    1    3    3    0    0  0.12824051125E+02  0.65879044141E+02 -0.39489310382E+02  0.77871113891E+02  0.00000000000E+00 0. -1.
        -13    1    3    3    0    0  0.15605338185E+02 -0.34729678678E+02 -0.77004645174E+02  0.85903390732E+02  0.00000000000E+00 0.  1.
         22    1    1    2    0    0 -0.28429389310E+02 -0.31149365463E+02 -0.84957320808E+02  0.94848613612E+02  0.00000000000E+00 0.  1.
<mgrwt>
<rscale>  0 0.89557799E+02</rscale>
<asrwt>0</asrwt>
<pdfrwt beam="1">  1        3 0.43978340E-02 0.11511406E+03</pdfrwt>
<pdfrwt beam="2">  1       -3 0.35390338E-01 0.11511406E+03</pdfrwt>
<totfact> 0.48407894E+03</totfact>
</mgrwt>
</event>
<event>
 6    1  0.1535419E-002  0.9459784E+02  0.7546771E-02  0.1381782E+00
         -1   -1    0    0    0  501 -0.00000000000E+00  0.00000000000E+00  0.18537349995E+02  0.18537349995E+02  0.00000000000E+00 0.  1.
          1   -1    0    0  501    0  0.00000000000E+00 -0.00000000000E+00 -0.38362567782E+03  0.38362567782E+03  0.00000000000E+00 0. -1.
         23    2    1    2    0    0  0.37741565277E+01  0.19453252344E+02 -0.36987227616E+03  0.38177775260E+03  0.92499072563E+02 0.  0.
         13    1    3    3    0    0  0.23478349768E+02 -0.15114704173E+02 -0.36083174090E+02  0.45625460463E+02  0.00000000000E+00 0.  1.
        -13    1    3    3    0    0 -0.19704193240E+02  0.34567956516E+02 -0.33378910207E+03  0.33615229213E+03  0.00000000000E+00 0. -1.
         22    1    1    2    0    0 -0.37741565277E+01 -0.19453252344E+02  0.47839483274E+01  0.20385275221E+02  0.00000000000E+00 0.  1.
<mgrwt>
<rscale>  0 0.63997770E+02</rscale>
<asrwt>0</asrwt>
<pdfrwt beam="1">  1        1 0.59019326E-01 0.94597842E+02</pdfrwt>
<pdfrwt beam="2">  1       -1 0.28519005E-02 0.94597842E+02</pdfrwt>
<totfact> 0.23415895E+04</totfact>
</mgrwt>
</event>
<event>
 6    1  0.1535419E-002  0.2147477E+03  0.7546771E-02  0.1143605E+00
          4   -1    0    0  501    0  0.00000000000E+00  0.00000000000E+00  0.42789845051E+03  0.42789845051E+03  0.00000000000E+00 0. -1.
         -4   -1    0    0    0  501 -0.00000000000E+00 -0.00000000000E+00 -0.10233693553E+03  0.10233693553E+03  0.00000000000E+00 0.  1.
         23    2    1    2    0    0 -0.17639929422E+03  0.62052971823E+02  0.24729059522E+03  0.32751977443E+03  0.10559015980E+03 0.  0.
         11    1    3    3    0    0 -0.18453644888E+03  0.63312837913E+02  0.25147810700E+03  0.31828203642E+03  0.00000000000E+00 0. -1.
        -11    1    3    3    0    0  0.81371546650E+01 -0.12598660893E+01 -0.41875117784E+01  0.92377380077E+01  0.00000000000E+00 0.  1.
         22    1    1    2    0    0  0.17639929422E+03 -0.62052971823E+02  0.78270919758E+02  0.20271561161E+03  0.00000000000E+00 0.  1.
<mgrwt>
<rscale>  0 0.20744553E+03</rscale>
<asrwt>0</asrwt>
<pdfrwt beam="1">  1        4 0.65830530E-01 0.21474768E+03</pdfrwt>
<pdfrwt beam="2">  1       -4 0.15744144E-01 0.21474768E+03</pdfrwt>
<totfact> 0.13525160E+02</totfact>
</mgrwt>
</event>
<event>
 6    1  0.1535419E-002  0.1028206E+03  0.7546771E-02  0.1318135E+00
          2   -1    0    0  501    0  0.00000000000E+00  0.00000000000E+00  0.72699103893E+03  0.72699103893E+03  0.00000000000E+00 0. -1.
         -2   -1    0    0    0  501 -0.00000000000E+00 -0.00000000000E+00 -0.51093151374E+02  0.51093151374E+02  0.00000000000E+00 0.  1.
         23    2    1    2    0    0  0.30272387042E+02 -0.34298148126E+02  0.71226192437E+03  0.71964513183E+03  0.92083041193E+02 0.  0.
         13    1    3    3    0    0 -0.15121439264E+02 -0.51675568163E+02  0.40472881323E+03  0.40829454384E+03  0.00000000000E+00 0. -1.
        -13    1    3    3    0    0  0.45393826306E+02  0.17377420038E+02  0.30753311114E+03  0.31135058799E+03  0.00000000000E+00 0.  1.
         22    1    1    2    0    0 -0.30272387042E+02  0.34298148126E+02 -0.36364036815E+02  0.58439058475E+02  0.00000000000E+00 0.  1.
<mgrwt>
<rscale>  0 0.83975079E+02</rscale>
<asrwt>0</asrwt>
<pdfrwt beam="1">  1        2 0.11184477E+00 0.10282056E+03</pdfrwt>
<pdfrwt beam="2">  1       -2 0.78604853E-02 0.10282056E+03</pdfrwt>
<totfact> 0.37507463E+03</totfact>
</mgrwt>
</event>
<event>
 6    1  0.1535419E-002  0.9302468E+02  0.7546771E-02  0.1420241E+00
          2   -1    0    0  501    0  0.00000000000E+00  0.00000000000E+00  0.10413519031E+04  0.10413519031E+04  0.00000000000E+00 0. -1.
         -2   -1    0    0    0  501 -0.00000000000E+00 -0.00000000000E+00 -0.27148731806E+01  0.27148731806E+01  0.00000000000E+00 0.  1.
         23    2    1    2    0    0 -0.96205473796E+01 -0.60079516110E+01  0.97492255792E+03  0.97935059317E+03  0.92330601562E+02 0.  0.
         11    1    3    3    0    0 -0.61880224734E+01 -0.96488122375E+01  0.97423191707E+03  0.97429934796E+03  0.00000000000E+00 0. -1.
        -11    1    3    3    0    0 -0.34325249062E+01  0.36408606265E+01  0.69064084627E+00  0.50512452041E+01  0.00000000000E+00 0.  1.
         22    1    1    2    0    0  0.96205473796E+01  0.60079516110E+01  0.63714472042E+02  0.64716183154E+02  0.00000000000E+00 0. -1.
<mgrwt>
<rscale>  0 0.54969910E+02</rscale>
<asrwt>0</asrwt>
<pdfrwt beam="1">  1        2 0.16020767E+00 0.93024676E+02</pdfrwt>
<pdfrwt beam="2">  1       -2 0.41767363E-03 0.93024676E+02</pdfrwt>
<totfact> 0.16337828E+05</totfact>
</mgrwt>
</event>
<event>
 6    1  0.1535419E-002  0.9051800E+02  0.7546771E-02  0.1395936E+00
         -2   -1    0    0    0  501 -0.00000000000E+00  0.00000000000E+00  0.11347606502E+02  0.11347606502E+02  0.00000000000E+00 0.  1.
          2   -1    0    0  501    0  0.00000000000E+00 -0.00000000000E+00 -0.26077985420E+03  0.26077985420E+03  0.00000000000E+00 0. -1.
         23    2    1    2    0    0  0.11403315496E+02  0.13939219637E+02 -0.20048266654E+03  0.21997001690E+03  0.88708349682E+02 0.  0.
         11    1    3    3    0    0 -0.11306440753E+02  0.17482732214E+02 -0.28605912096E+01  0.21015815717E+02  0.00000000000E+00 0.  1.
        -11    1    3    3    0    0  0.22709756250E+02 -0.35435125769E+01 -0.19762207533E+03  0.19895420118E+03  0.00000000000E+00 0. -1.
         22    1    1    2    0    0 -0.11403315496E+02 -0.13939219637E+02 -0.48949581160E+02  0.52157443803E+02  0.00000000000E+00 0.  1.
<mgrwt>
<rscale>  0 0.60454114E+02</rscale>
<asrwt>0</asrwt>
<pdfrwt beam="1">  1        2 0.40119974E-01 0.90518002E+02</pdfrwt>
<pdfrwt beam="2">  1       -2 0.17457858E-02 0.90518002E+02</pdfrwt>
<totfact> 0.10290336E+05</totfact>
</mgrwt>
</event>
<event>
 6    1  0.1535419E-002  0.9130569E+02  0.7546771E-02  0.1427024E+00
          2   -1    0    0  501    0  0.00000000000E+00  0.00000000000E+00  0.41740728238E+01  0.41740728238E+01  0.00000000000E+00 0. -1.
         -2   -1    0    0    0  501 -0.00000000000E+00 -0.00000000000E+00 -0.62523067580E+03  0.62523067580E+03  0.00000000000E+00 0.  1.
         23    2    1    2    0    0  0.43810685705E+01  0.98854878977E+01 -0.56128971198E+03  0.56866762742E+03  0.90663184744E+02 0.  0.
         11    1    3    3    0    0  0.41753591525E+02  0.55113552342E+01 -0.43101396461E+03  0.43306670979E+03  0.00000000000E+00 0.  1.
        -11    1    3    3    0    0 -0.37372522954E+02  0.43741326635E+01 -0.13027574737E+03  0.13560091763E+03  0.00000000000E+00 0. -1.
         22    1    1    2    0    0 -0.43810685705E+01 -0.98854878977E+01 -0.59766890992E+02  0.60737121200E+02  0.00000000000E+00 0.  1.
<mgrwt>
<rscale>  0 0.53562142E+02</rscale>
<asrwt>0</asrwt>
<pdfrwt beam="1">  1        2 0.64216554E-03 0.91305694E+02</pdfrwt>
<pdfrwt beam="2">  1       -2 0.96189261E-01 0.91305694E+02</pdfrwt>
<totfact> 0.22047291E+04</totfact>
</mgrwt>
</event>
<event>
 6    1  0.1535419E-002  0.1088980E+03  0.7546771E-02  0.1299202E+00
         -2   -1    0    0    0  501 -0.00000000000E+00  0.00000000000E+00  0.24177336260E+02  0.24177336260E+02  0.00000000000E+00 0.  1.
          2   -1    0    0  501    0  0.00000000000E+00 -0.00000000000E+00 -0.29193775193E+03  0.29193775193E+03  0.00000000000E+00 0. -1.
         23    2    1    2    0    0 -0.73629938311E+01 -0.53834858636E+02 -0.14066236625E+03  0.17788947606E+03  0.94373506510E+02 0.  0.
         11    1    3    3    0    0  0.32080791439E+02 -0.55610232099E+02 -0.11201267247E+03  0.12910659893E+03  0.00000000000E+00 0. -1.
        -11    1    3    3    0    0 -0.39443785270E+02  0.17753734629E+01 -0.28649693780E+02  0.48782877129E+02  0.00000000000E+00 0.  1.
         22    1    1    2    0    0  0.73629938311E+01  0.53834858636E+02 -0.12709804942E+03  0.13822561213E+03  0.00000000000E+00 0.  1.
<mgrwt>
<rscale>  0 0.91524380E+02</rscale>
<asrwt>0</asrwt>
<pdfrwt beam="1">  1        2 0.44913499E-01 0.10889795E+03</pdfrwt>
<pdfrwt beam="2">  1       -2 0.37195903E-02 0.10889795E+03</pdfrwt>
<totfact> 0.31261770E+04</totfact>
</mgrwt>
</event>
<event>
 6    1  0.1535419E-002  0.9233544E+02  0.7546771E-02  0.1397672E+00
          1   -1    0    0  501    0  0.00000000000E+00  0.00000000000E+00  0.12895539804E+03  0.12895539804E+03  0.00000000000E+00 0. -1.
         -1   -1    0    0    0  501 -0.00000000000E+00 -0.00000000000E+00 -0.29992016062E+02  0.29992016062E+02  0.00000000000E+00 0.  1.
         23    2    1    2    0    0  0.16275831861E+02 -0.27377928450E+01  0.10637102887E+03  0.14085676886E+03  0.90848419578E+02 0.  0.
         11    1    3    3    0    0  0.17854645764E+02 -0.44387183093E+02  0.39416278146E+02  0.61989139220E+02  0.00000000000E+00 0. -1.
        -11    1    3    3    0    0 -0.15788139025E+01  0.41649390249E+02  0.66954750723E+02  0.78867629645E+02  0.00000000000E+00 0.  1.
         22    1    1    2    0    0 -0.16275831861E+02  0.27377928450E+01 -0.74076468951E+01  0.18090645233E+02  0.00000000000E+00 0.  1.
<mgrwt>
<rscale>  0 0.60038088E+02</rscale>
<asrwt>0</asrwt>
<pdfrwt beam="1">  1        1 0.19839292E-01 0.92335440E+02</pdfrwt>
<pdfrwt beam="2">  1       -1 0.46141564E-02 0.92335440E+02</pdfrwt>
<totfact> 0.44530468E+04</totfact>
</mgrwt>
</event>
<event>
 6    1  0.1535419E-002  0.9044242E+02  0.7546771E-02  0.1425505E+00
         -2   -1    0    0    0  501 -0.00000000000E+00  0.00000000000E+00  0.15098327552E+01  0.15098327552E+01  0.00000000000E+00 0. -1.
          2   -1    0    0  501    0  0.00000000000E+00 -0.00000000000E+00 -0.23210154513E+04  0.23210154513E+04  0.00000000000E+00 0.  1.
         23    2    1    2    0    0  0.65497036124E+01 -0.93133514339E+01 -0.22668144683E+04  0.22686180077E+04  0.89722872979E+02 0.  0.
         11    1    3    3    0    0  0.24253342083E+02  0.26148059232E+02 -0.46426279670E+03  0.46563063688E+03  0.00000000000E+00 0. -1.
        -11    1    3    3    0    0 -0.17703638470E+02 -0.35461410666E+02 -0.18025516716E+04  0.18029873708E+04  0.00000000000E+00 0.  1.
         22    1    1    2    0    0 -0.65497036124E+01  0.93133514339E+01 -0.52691150278E+02  0.53907276410E+02  0.00000000000E+00 0. -1.
<mgrwt>
<rscale>  0 0.53872894E+02</rscale>
<asrwt>0</asrwt>
<pdfrwt beam="1">  1        2 0.35707943E+00 0.90442419E+02</pdfrwt>
<pdfrwt beam="2">  1       -2 0.23228188E-03 0.90442419E+02</pdfrwt>
<totfact> 0.80532678E+04</totfact>
</mgrwt>
</event>
<event>
 6    1  0.1535419E-002  0.9223380E+02  0.7546771E-02  0.1426595E+00
          1   -1    0    0  501    0  0.00000000000E+00  0.00000000000E+00  0.30229723369E+02  0.30229723369E+02  0.00000000000E+00 0. -1.
         -1   -1    0    0    0  501 -0.00000000000E+00 -0.00000000000E+00 -0.95296536861E+02  0.95296536861E+02  0.00000000000E+00 0.  1.
         23    2    1    2    0    0  0.10395953900E+02 -0.18448108781E+01 -0.44500100271E+02  0.10240767728E+03  0.91627475454E+02 0.  0.
         11    1    3    3    0    0  0.59637621813E+01 -0.46439694426E+02 -0.28551526221E+02  0.54839778695E+02  0.00000000000E+00 0.  1.
        -11    1    3    3    0    0  0.44321917192E+01  0.44594883548E+02 -0.15948574050E+02  0.47567898590E+02  0.00000000000E+00 0. -1.
         22    1    1    2    0    0 -0.10395953900E+02  0.18448108781E+01 -0.20566713221E+02  0.23118582945E+02  0.00000000000E+00 0.  1.
<mgrwt>
<rscale>  0 0.53649637E+02</rscale>
<asrwt>0</asrwt>
<pdfrwt beam="1">  1        1 0.46507267E-02 0.92233798E+02</pdfrwt>
<pdfrwt beam="2">  1       -1 0.14661006E-01 0.92233798E+02</pdfrwt>
<totfact> 0.52741783E+04</totfact>
</mgrwt>
</event>
<event>
 6    1  0.1535419E-002  0.9479723E+02  0.7546771E-02  0.1398044E+00
          2   -1    0    0  501    0  0.00000000000E+00  0.00000000000E+00  0.18957608906E+03  0.18957608906E+03  0.00000000000E+00 0.  1.
         -2   -1    0    0    0  501 -0.00000000000E+00 -0.00000000000E+00 -0.32492511356E+02  0.32492511356E+02  0.00000000000E+00 0. -1.
         23    2    1    2    0    0  0.23899446672E+01  0.14972444746E+02  0.17473859433E+03  0.19879660976E+03  0.93576865568E+02 0.  0.
         11    1    3    3    0    0  0.87554368434E+01 -0.16990974611E+02 -0.18705759847E+01  0.19205466593E+02  0.00000000000E+00 0. -1.
        -11    1    3    3    0    0 -0.63654921763E+01  0.31963419356E+02  0.17660917031E+03  0.17959114317E+03  0.00000000000E+00 0.  1.
         22    1    1    2    0    0 -0.23899446672E+01 -0.14972444746E+02 -0.17655016620E+02  0.23271990654E+02  0.00000000000E+00 0. -1.
<mgrwt>
<rscale>  0 0.59949533E+02</rscale>
<asrwt>0</asrwt>
<pdfrwt beam="1">  1        2 0.29165552E-01 0.94797235E+02</pdfrwt>
<pdfrwt beam="2">  1       -2 0.49988480E-02 0.94797235E+02</pdfrwt>
<totfact> 0.31391389E+04</totfact>
</mgrwt>
</event>
<event>
 6    1  0.1535419E-002  0.9191658E+02  0.7546771E-02  0.1399353E+00
         -2   -1    0    0    0  501 -0.00000000000E+00  0.00000000000E+00  0.34856672130E+01  0.34856672130E+01  0.00000000000E+00 0. -1.
          2   -1    0    0  501    0  0.00000000000E+00 -0.00000000000E+00 -0.95473581041E+03  0.95473581041E+03  0.00000000000E+00 0.  1.
         23    2    1    2    0    0 -0.92345184084E+01  0.13420541556E+02 -0.89356771556E+03  0.89828276122E+03  0.90461425749E+02 0.  0.
         13    1    3    3    0    0 -0.35295472166E+02  0.39221301502E+02 -0.62492016605E+03  0.62714375927E+03  0.00000000000E+00 0.  1.
        -13    1    3    3    0    0  0.26060953757E+02 -0.25800759946E+02 -0.26864754950E+03  0.27113900195E+03  0.00000000000E+00 0. -1.
         22    1    1    2    0    0  0.92345184084E+01 -0.13420541556E+02 -0.57682427638E+02  0.59938716404E+02  0.00000000000E+00 0. -1.
<mgrwt>
<rscale>  0 0.59639005E+02</rscale>
<asrwt>0</asrwt>
<pdfrwt beam="1">  1        2 0.14688241E+00 0.91916575E+02</pdfrwt>
<pdfrwt beam="2">  1       -2 0.53625656E-03 0.91916575E+02</pdfrwt>
<totfact> 0.12921529E+05</totfact>
</mgrwt>
</event>
<event>
 6    1  0.1535419E-002  0.9376614E+02  0.7546771E-02  0.1380250E+00
         -2   -1    0    0    0  501 -0.00000000000E+00  0.00000000000E+00  0.32104237057E+01  0.32104237057E+01  0.00000000000E+00 0.  1.
          2   -1    0    0  501    0  0.00000000000E+00 -0.00000000000E+00 -0.23924198809E+04  0.23924198809E+04  0.00000000000E+00 0. -1.
         23    2    1    2    0    0 -0.13853164454E+01  0.20815858034E+02 -0.23436123588E+04  0.23454873646E+04  0.91415919167E+02 0.  0.
         13    1    3    3    0    0  0.87818703574E+01  0.57671432179E+01 -0.22554187036E+04  0.22554431737E+04  0.00000000000E+00 0. -1.
        -13    1    3    3    0    0 -0.10167186803E+02  0.15048714816E+02 -0.88193655216E+02  0.90044190959E+02  0.00000000000E+00 0.  1.
         22    1    1    2    0    0  0.13853164454E+01 -0.20815858034E+02 -0.45597098399E+02  0.50142939979E+02  0.00000000000E+00 0. -1.
<mgrwt>
<rscale>  0 0.64398095E+02</rscale>
<asrwt>0</asrwt>
<pdfrwt beam="1">  1        2 0.36806497E+00 0.93766142E+02</pdfrwt>
<pdfrwt beam="2">  1       -2 0.49391083E-03 0.93766142E+02</pdfrwt>
<totfact> 0.25894122E+04</totfact>
</mgrwt>
</event>
<event>
 6    1  0.1535419E-002  0.9540358E+02  0.7546771E-02  0.1350833E+00
         -2   -1    0    0    0  501 -0.00000000000E+00  0.00000000000E+00  0.15493110587E+02  0.15493110587E+02  0.00000000000E+00 0.  1.
          2   -1    0    0  501    0  0.00000000000E+00 -0.00000000000E+00 -0.66597190985E+03  0.66597190985E+03  0.00000000000E+00 0. -1.
         23    2    1    2    0    0 -0.27354707512E+02  0.17253193490E+02 -0.64057632748E+03  0.64764177908E+03  0.89754609741E+02 0.  0.
         13    1    3    3    0    0 -0.54198842952E+02  0.42225584364E+01 -0.54007573937E+03  0.54280489021E+03  0.00000000000E+00 0.  1.
        -13    1    3    3    0    0  0.26844135440E+02  0.13030635053E+02 -0.10050058811E+03  0.10483688887E+03  0.00000000000E+00 0. -1.
         22    1    1    2    0    0  0.27354707512E+02 -0.17253193490E+02 -0.99024717819E+01  0.33823241359E+02  0.00000000000E+00 0.  1.
<mgrwt>
<rscale>  0 0.72796836E+02</rscale>
<asrwt>0</asrwt>
<pdfrwt beam="1">  1        2 0.10245722E+00 0.95403578E+02</pdfrwt>
<pdfrwt beam="2">  1       -2 0.23835555E-02 0.95403578E+02</pdfrwt>
<totfact> 0.24230374E+04</totfact>
</mgrwt>
</event>
<event>
 6    1  0.1535419E-002  0.1005300E+03  0.7546771E-02  0.1359460E+00
         -1   -1    0    0    0  501 -0.00000000000E+00  0.00000000000E+00  0.10112506177E+02  0.10112506177E+02  0.00000000000E+00 0.  1.
          1   -1    0    0  501    0  0.00000000000E+00 -0.00000000000E+00 -0.53897844674E+03  0.53897844674E+03  0.00000000000E+00 0. -1.
         23    2    1    2    0    0 -0.22177026479E+02 -0.88696365155E+01 -0.50646221887E+03  0.51634316366E+03  0.97651382786E+02 0.  0.
         11    1    3    3    0    0 -0.23786581007E+02  0.10566501106E+02 -0.49036514294E+03  0.49105542029E+03  0.00000000000E+00 0. -1.
        -11    1    3    3    0    0  0.16095545283E+01 -0.19436137621E+02 -0.16097075929E+02  0.25287743373E+02  0.00000000000E+00 0.  1.
         22    1    1    2    0    0  0.22177026479E+02  0.88696365155E+01 -0.22403721685E+02  0.32747789249E+02  0.00000000000E+00 0.  1.
<mgrwt>
<rscale>  0 0.70186389E+02</rscale>
<asrwt>0</asrwt>
<pdfrwt beam="1">  1        1 0.82919773E-01 0.10053001E+03</pdfrwt>
<pdfrwt beam="2">  1       -1 0.15557700E-02 0.10053001E+03</pdfrwt>
<totfact> 0.36451034E+04</totfact>
</mgrwt>
</event>
<event>
 6    1  0.1535419E-002  0.9007914E+02  0.7546771E-02  0.1412077E+00
         -2   -1    0    0    0  501 -0.00000000000E+00  0.00000000000E+00  0.27128801139E+03  0.27128801139E+03  0.00000000000E+00 0.  1.
          2   -1    0    0  501    0  0.00000000000E+00 -0.00000000000E+00 -0.10487058279E+02  0.10487058279E+02  0.00000000000E+00 0. -1.
         23    2    1    2    0    0  0.84345038386E+01  0.11390330582E+02  0.20009016328E+03  0.21943182234E+03  0.88957128595E+02 0.  0.
         11    1    3    3    0    0  0.28184161957E+02  0.43553641078E+02  0.12658584862E+03  0.13680366848E+03  0.00000000000E+00 0.  1.
        -11    1    3    3    0    0 -0.19749658118E+02 -0.32163310497E+02  0.73504314655E+02  0.82628153863E+02  0.00000000000E+00 0. -1.
         22    1    1    2    0    0 -0.84345038386E+01 -0.11390330582E+02  0.60710789831E+02  0.62343247330E+02  0.00000000000E+00 0.  1.
<mgrwt>
<rscale>  0 0.56732953E+02</rscale>
<asrwt>0</asrwt>
<pdfrwt beam="1">  1        2 0.16133938E-02 0.90079139E+02</pdfrwt>
<pdfrwt beam="2">  1       -2 0.41736612E-01 0.90079139E+02</pdfrwt>
<totfact> 0.35068732E+04</totfact>
</mgrwt>
</event>
<event>
 6    1  0.1535419E-002  0.9310044E+02  0.7546771E-02  0.1411092E+00
          4   -1    0    0  501    0  0.00000000000E+00  0.00000000000E+00  0.53199445999E+02  0.53199445999E+02  0.00000000000E+00 0. -1.
         -4   -1    0    0    0  501 -0.00000000000E+00 -0.00000000000E+00 -0.53260955396E+02  0.53260955396E+02  0.00000000000E+00 0.  1.
         23    2    1    2    0    0 -0.12804900040E+02 -0.24442365679E+01  0.26806462578E+01  0.93139021021E+02  0.92183250187E+02 0.  0.
         11    1    3    3    0    0  0.19731255343E+02  0.35301260870E+02  0.12538328818E+02  0.42340419767E+02  0.00000000000E+00 0. -1.
        -11    1    3    3    0    0 -0.32536155382E+02 -0.37745497438E+02 -0.98576825605E+01  0.50798601254E+02  0.00000000000E+00 0.  1.
         22    1    1    2    0    0  0.12804900040E+02  0.24442365679E+01 -0.27421556550E+01  0.13321380374E+02  0.00000000000E+00 0.  1.
<mgrwt>
<rscale>  0 0.56950909E+02</rscale>
<asrwt>0</asrwt>
<pdfrwt beam="1">  1        4 0.81845302E-02 0.93100437E+02</pdfrwt>
<pdfrwt beam="2">  1       -4 0.81939931E-02 0.93100437E+02</pdfrwt>
<totfact> 0.16374483E+04</totfact>
</mgrwt>
</event>
<event>
 6    1  0.1535419E-002  0.9923198E+02  0.7546771E-02  0.1401319E+00
         -1   -1    0    0    0  501 -0.00000000000E+00  0.00000000000E+00  0.61771552720E+01  0.61771552720E+01  0.00000000000E+00 0.  1.
          1   -1    0    0  501    0  0.00000000000E+00 -0.00000000000E+00 -0.52684898294E+03  0.52684898294E+03  0.00000000000E+00 0. -1.
         23    2    1    2    0    0  0.99880871943E+01 -0.75990731332E+01 -0.48882917574E+03  0.49879950706E+03  0.98435143058E+02 0.  0.
         11    1    3    3    0    0  0.14767249878E+02 -0.94174872581E+01 -0.10454458446E+02  0.20397461524E+02  0.00000000000E+00 0.  1.
        -11    1    3    3    0    0 -0.47791626836E+01  0.18184141249E+01 -0.47837471729E+03  0.47840204554E+03  0.00000000000E+00 0. -1.
         22    1    1    2    0    0 -0.99880871943E+01  0.75990731332E+01 -0.31842651924E+02  0.34226631149E+02  0.00000000000E+00 0.  1.
<mgrwt>
<rscale>  0 0.59176802E+02</rscale>
<asrwt>0</asrwt>
<pdfrwt beam="1">  1        1 0.81053692E-01 0.99231977E+02</pdfrwt>
<pdfrwt beam="2">  1       -1 0.95033155E-03 0.99231977E+02</pdfrwt>
<totfact> 0.75430883E+04</totfact>
</mgrwt>
</event>
<event>
 6    1  0.1535419E-002  0.9400912E+02  0.7546771E-02  0.1384241E+00
          2   -1    0    0  501    0  0.00000000000E+00  0.00000000000E+00  0.13838008839E+04  0.13838008839E+04  0.00000000000E+00 0. -1.
         -2   -1    0    0    0  501 -0.00000000000E+00 -0.00000000000E+00 -0.26376234063E+01  0.26376234063E+01  0.00000000000E+00 0.  1.
         23    2    1    2    0    0  0.14219048607E+02  0.13197738676E+02  0.12789541823E+04  0.12824045835E+04  0.91985616050E+02 0.  0.
         13    1    3    3    0    0 -0.29436056955E+02  0.18314547128E+02  0.93645985514E+03  0.93710136292E+03  0.00000000000E+00 0. -1.
        -13    1    3    3    0    0  0.43655105562E+02 -0.51168084520E+01  0.34249432717E+03  0.34530322054E+03  0.00000000000E+00 0.  1.
         22    1    1    2    0    0 -0.14219048607E+02 -0.13197738676E+02  0.10220907818E+03  0.10403392385E+03  0.00000000000E+00 0.  1.
<mgrwt>
<rscale>  0 0.63361897E+02</rscale>
<asrwt>0</asrwt>
<pdfrwt beam="1">  1        2 0.21289186E+00 0.94009123E+02</pdfrwt>
<pdfrwt beam="2">  1       -2 0.40578932E-03 0.94009123E+02</pdfrwt>
<totfact> 0.11093173E+05</totfact>
</mgrwt>
</event>
<event>
 6    1  0.1535419E-002  0.9130191E+02  0.7546771E-02  0.1360906E+00
         -3   -1    0    0    0  501 -0.00000000000E+00  0.00000000000E+00  0.49366404896E+03  0.49366404896E+03  0.00000000000E+00 0.  1.
          3   -1    0    0  501    0  0.00000000000E+00 -0.00000000000E+00 -0.75948418588E+01  0.75948418588E+01  0.00000000000E+00 0. -1.
         23    2    1    2    0    0 -0.54763604833E+00  0.31114231395E+02  0.35670683297E+03  0.36820619771E+03  0.85834981503E+02 0.  0.
         13    1    3    3    0    0  0.49383555270E+01 -0.24789667751E+02  0.20279530157E+03  0.20436450113E+03  0.00000000000E+00 0.  1.
        -13    1    3    3    0    0 -0.54859915753E+01  0.55903899146E+02  0.15391153139E+03  0.16384169658E+03  0.00000000000E+00 0. -1.
         22    1    1    2    0    0  0.54763604833E+00 -0.31114231395E+02  0.12936237413E+03  0.13305269310E+03  0.00000000000E+00 0.  1.
<mgrwt>
<rscale>  0 0.69761610E+02</rscale>
<asrwt>0</asrwt>
<pdfrwt beam="1">  1        3 0.11684376E-02 0.91301913E+02</pdfrwt>
<pdfrwt beam="2">  1       -3 0.75948290E-01 0.91301913E+02</pdfrwt>
<totfact> 0.75143389E+03</totfact>
</mgrwt>
</event>
<event>
 6    1  0.1535419E-002  0.9489172E+02  0.7546771E-02  0.1358534E+00
          4   -1    0    0  501    0  0.00000000000E+00  0.00000000000E+00  0.15548991316E+02  0.15548991316E+02  0.00000000000E+00 0. -1.
         -4   -1    0    0    0  501 -0.00000000000E+00 -0.00000000000E+00 -0.31829183774E+03  0.31829183774E+03  0.00000000000E+00 0.  1.
         23    2    1    2    0    0 -0.14349383778E+02  0.25024837965E+02 -0.14370469509E+03  0.17220766133E+03  0.90400729530E+02 0.  0.
         11    1    3    3    0    0 -0.19423712625E+02  0.46055460408E+02 -0.14196081556E+03  0.15050335279E+03  0.00000000000E+00 0.  1.
        -11    1    3    3    0    0  0.50743288462E+01 -0.21030622442E+02 -0.17438795312E+01  0.21704308544E+02  0.00000000000E+00 0. -1.
         22    1    1    2    0    0  0.14349383778E+02 -0.25024837965E+02 -0.15903815133E+03  0.16163316773E+03  0.00000000000E+00 0.  1.
<mgrwt>
<rscale>  0 0.70460591E+02</rscale>
<asrwt>0</asrwt>
<pdfrwt beam="1">  1        4 0.23921527E-02 0.94891724E+02</pdfrwt>
<pdfrwt beam="2">  1       -4 0.48967971E-01 0.94891724E+02</pdfrwt>
<totfact> 0.46438010E+03</totfact>
</mgrwt>
</event>
<event>
 6    1  0.1535419E-002  0.9825932E+02  0.7546771E-02  0.1347237E+00
         -1   -1    0    0    0  501 -0.00000000000E+00  0.00000000000E+00  0.51334056881E+02  0.51334056881E+02  0.00000000000E+00 0.  1.
          1   -1    0    0  501    0  0.00000000000E+00 -0.00000000000E+00 -0.10044795812E+03  0.10044795812E+03  0.00000000000E+00 0. -1.
         23    2    1    2    0    0  0.70682209064E+01  0.30674260914E+02 -0.63687540631E+02  0.11709396238E+03  0.93080734655E+02 0.  0.
         13    1    3    3    0    0  0.15115462943E+02  0.31050082438E+02  0.15246627391E+02  0.37749761406E+02  0.00000000000E+00 0.  1.
        -13    1    3    3    0    0 -0.80472420363E+01 -0.37582152431E+00 -0.78934168022E+02  0.79344200970E+02  0.00000000000E+00 0. -1.
         22    1    1    2    0    0 -0.70682209064E+01 -0.30674260914E+02  0.14573639396E+02  0.34688052621E+02  0.00000000000E+00 0.  1.
<mgrwt>
<rscale>  0 0.73923478E+02</rscale>
<asrwt>0</asrwt>
<pdfrwt beam="1">  1        1 0.15453532E-01 0.98259316E+02</pdfrwt>
<pdfrwt beam="2">  1       -1 0.78975472E-02 0.98259316E+02</pdfrwt>
<totfact> 0.27865669E+04</totfact>
</mgrwt>
</event>
<event>
 6    1  0.1535419E-002  0.9093394E+02  0.7546771E-02  0.1431385E+00
         -2   -1    0    0    0  501 -0.00000000000E+00  0.00000000000E+00  0.20280061874E+02  0.20280061874E+02  0.00000000000E+00 0.  1.
          2   -1    0    0  501    0  0.00000000000E+00 -0.00000000000E+00 -0.16799684179E+03  0.16799684179E+03  0.00000000000E+00 0. -1.
         23    2    1    2    0    0 -0.35653941522E+01  0.96043277009E+01 -0.15203902421E+03  0.17715768868E+03  0.90355003352E+02 0.  0.
         13    1    3    3    0    0 -0.31911751181E+02  0.33564731498E+02 -0.11812867837E+03  0.12688315773E+03  0.00000000000E+00 0. -1.
        -13    1    3    3    0    0  0.28346357029E+02 -0.23960403797E+02 -0.33910345845E+02  0.50274530950E+02  0.00000000000E+00 0.  1.
         22    1    1    2    0    0  0.35653941522E+01 -0.96043277009E+01  0.43222442944E+01  0.11119214981E+02  0.00000000000E+00 0.  1.
<mgrwt>
<rscale>  0 0.52682937E+02</rscale>
<asrwt>0</asrwt>
<pdfrwt beam="1">  1        2 0.25845667E-01 0.90933942E+02</pdfrwt>
<pdfrwt beam="2">  1       -2 0.31200096E-02 0.90933942E+02</pdfrwt>
<totfact> 0.71153040E+04</totfact>
</mgrwt>
</event>
<event>
 6    1  0.1535419E-002  0.8991464E+02  0.7546771E-02  0.1427139E+00
         -2   -1    0    0    0  501 -0.00000000000E+00  0.00000000000E+00  0.81193021899E+01  0.81193021899E+01  0.00000000000E+00 0. -1.
          2   -1    0    0  501    0  0.00000000000E+00 -0.00000000000E+00 -0.55097054103E+03  0.55097054103E+03  0.00000000000E+00 0.  1.
         23    2    1    2    0    0  0.34443610195E+01  0.10765035422E+02 -0.53999800388E+03  0.54743263257E+03  0.89201420337E+02 0.  0.
         11    1    3    3    0    0 -0.35384290740E+02 -0.14545342216E+02 -0.33940971283E+03  0.34155902590E+03  0.00000000000E+00 0. -1.
        -11    1    3    3    0    0  0.38828651759E+02  0.25310377637E+02 -0.20058829105E+03  0.20587360666E+03  0.00000000000E+00 0.  1.
         22    1    1    2    0    0 -0.34443610195E+01 -0.10765035422E+02 -0.28532349545E+01  0.11657210651E+02  0.00000000000E+00 0.  1.
<mgrwt>
<rscale>  0 0.53538693E+02</rscale>
<asrwt>0</asrwt>
<pdfrwt beam="1">  1        2 0.84764710E-01 0.89914643E+02</pdfrwt>
<pdfrwt beam="2">  1       -2 0.12491232E-02 0.89914643E+02</pdfrwt>
<totfact> 0.75120234E+04</totfact>
</mgrwt>
</event>
<event>
 6    1  0.1535419E-002  0.9254085E+02  0.7546771E-02  0.1418807E+00
          2   -1    0    0  501    0  0.00000000000E+00  0.00000000000E+00  0.12876465777E+03  0.12876465777E+03  0.00000000000E+00 0. -1.
         -2   -1    0    0    0  501 -0.00000000000E+00 -0.00000000000E+00 -0.21245460181E+02  0.21245460181E+02  0.00000000000E+00 0.  1.
         23    2    1    2    0    0  0.11338146611E+02  0.31900922615E+01  0.91616283192E+02  0.13022039983E+03  0.91788228698E+02 0.  0.
         13    1    3    3    0    0  0.21095136334E+02 -0.34383203809E+02  0.80173356727E+02  0.89749521503E+02  0.00000000000E+00 0. -1.
        -13    1    3    3    0    0 -0.97569897230E+01  0.37573296071E+02  0.11442926465E+02  0.40470878322E+02  0.00000000000E+00 0.  1.
         22    1    1    2    0    0 -0.11338146611E+02 -0.31900922615E+01  0.15902914402E+02  0.19789718130E+02  0.00000000000E+00 0. -1.
<mgrwt>
<rscale>  0 0.55274079E+02</rscale>
<asrwt>0</asrwt>
<pdfrwt beam="1">  1        2 0.19809947E-01 0.92540851E+02</pdfrwt>
<pdfrwt beam="2">  1       -2 0.32685324E-02 0.92540851E+02</pdfrwt>
<totfact> 0.89352118E+04</totfact>
</mgrwt>
</event>
<event>
 6    1  0.1535419E-002  0.9290351E+02  0.7546771E-02  0.1390750E+00
         -4   -1    0    0    0  501 -0.00000000000E+00  0.00000000000E+00  0.26232679784E+02  0.26232679784E+02  0.00000000000E+00 0.  1.
          4   -1    0    0  501    0  0.00000000000E+00 -0.00000000000E+00 -0.14412073217E+03  0.14412073217E+03  0.00000000000E+00 0. -1.
         23    2    1    2    0    0  0.17578642287E+02 -0.43026482866E+01 -0.12040644792E+03  0.15208147273E+03  0.91123763089E+02 0.  0.
         11    1    3    3    0    0 -0.11905561434E+02 -0.27553809376E+02 -0.46333827116E+01  0.30371418136E+02  0.00000000000E+00 0.  1.
        -11    1    3    3    0    0  0.29484203721E+02  0.23251161090E+02 -0.11577306521E+03  0.12171005459E+03  0.00000000000E+00 0. -1.
         22    1    1    2    0    0 -0.17578642287E+02  0.43026482866E+01  0.25183955354E+01  0.18271939224E+02  0.00000000000E+00 0.  1.
<mgrwt>
<rscale>  0 0.61720445E+02</rscale>
<asrwt>0</asrwt>
<pdfrwt beam="1">  1        4 0.22172421E-01 0.92903507E+02</pdfrwt>
<pdfrwt beam="2">  1       -4 0.40357967E-02 0.92903507E+02</pdfrwt>
<totfact> 0.92297397E+03</totfact>
</mgrwt>
</event>
<event>
 6    1  0.1535419E-002  0.1314659E+03  0.7546771E-02  0.1239807E+00
         -3   -1    0    0    0  501 -0.00000000000E+00  0.00000000000E+00  0.18604950137E+02  0.18604950137E+02  0.00000000000E+00 0.  1.
          3   -1    0    0  501    0  0.00000000000E+00 -0.00000000000E+00 -0.71160536689E+03  0.71160536689E+03  0.00000000000E+00 0. -1.
         23    2    1    2    0    0 -0.76120699614E+02  0.61009111634E+02 -0.36194540335E+03  0.38508150845E+03  0.88129566719E+02 0.  0.
         13    1    3    3    0    0 -0.45712946431E+02  0.49545680806E+02 -0.33815020219E+03  0.34480430276E+03  0.00000000000E+00 0. -1.
        -13    1    3    3    0    0 -0.30407753182E+02  0.11463430828E+02 -0.23795201156E+02  0.40277205688E+02  0.00000000000E+00 0.  1.
         22    1    1    2    0    0  0.76120699614E+02 -0.61009111634E+02 -0.33105501341E+03  0.34512880858E+03  0.00000000000E+00 0.  1.
<mgrwt>
<rscale>  0 0.12201675E+03</rscale>
<asrwt>0</asrwt>
<pdfrwt beam="1">  1        3 0.10947775E+00 0.13146594E+03</pdfrwt>
<pdfrwt beam="2">  1       -3 0.28623001E-02 0.13146594E+03</pdfrwt>
<totfact> 0.92714409E+02</totfact>
</mgrwt>
</event>
<event>
 6    1  0.1535419E-002  0.8993976E+02  0.7546771E-02  0.1422796E+00
         -2   -1    0    0    0  501 -0.00000000000E+00  0.00000000000E+00  0.92863605990E+01  0.92863605990E+01  0.00000000000E+00 0.  1.
          2   -1    0    0  501    0  0.00000000000E+00 -0.00000000000E+00 -0.62335950712E+03  0.62335950712E+03  0.00000000000E+00 0. -1.
         23    2    1    2    0    0 -0.11344335397E+02  0.41149073372E+01 -0.61402617371E+03  0.62057819958E+03  0.89126502161E+02 0.  0.
         11    1    3    3    0    0  0.32035598025E+02  0.24656888954E+02 -0.33813359107E+03  0.34054157914E+03  0.00000000000E+00 0. -1.
        -11    1    3    3    0    0 -0.43379933422E+02 -0.20541981616E+02 -0.27589258263E+03  0.28003662044E+03  0.00000000000E+00 0.  1.
         22    1    1    2    0    0  0.11344335397E+02 -0.41149073372E+01 -0.46972817726E-01  0.12067668144E+02  0.00000000000E+00 0.  1.
<mgrwt>
<rscale>  0 0.54433818E+02</rscale>
<asrwt>0</asrwt>
<pdfrwt beam="1">  1        2 0.95901474E-01 0.89939756E+02</pdfrwt>
<pdfrwt beam="2">  1       -2 0.14286707E-02 0.89939756E+02</pdfrwt>
<totfact> 0.54093219E+04</totfact>
</mgrwt>
</event>
<event>
 6    1  0.1535419E-002  0.9456830E+02  0.7546771E-02  0.1372264E+00
          2   -1    0    0  501    0  0.00000000000E+00  0.00000000000E+00  0.55047649982E+02  0.55047649982E+02  0.00000000000E+00 0. -1.
         -2   -1    0    0    0  501 -0.00000000000E+00 -0.00000000000E+00 -0.65117435104E+02  0.65117435104E+02  0.00000000000E+00 0.  1.
         23    2    1    2    0    0 -0.12851957243E+02 -0.19292831774E+02  0.77668553486E+00  0.94571490408E+02  0.91683026754E+02 0.  0.
         13    1    3    3    0    0 -0.18011938652E+02 -0.25032199189E+02 -0.41439661648E+02  0.51655459419E+02  0.00000000000E+00 0.  1.
        -13    1    3    3    0    0  0.51599814094E+01  0.57393674154E+01  0.42216347183E+02  0.42916030990E+02  0.00000000000E+00 0. -1.
         22    1    1    2    0    0  0.12851957243E+02  0.19292831774E+02 -0.10846470657E+02  0.25593594678E+02  0.00000000000E+00 0. -1.
<mgrwt>
<rscale>  0 0.66541870E+02</rscale>
<asrwt>0</asrwt>
<pdfrwt beam="1">  1        2 0.84688693E-02 0.94568301E+02</pdfrwt>
<pdfrwt beam="2">  1       -2 0.10018067E-01 0.94568301E+02</pdfrwt>
<totfact> 0.45382316E+04</totfact>
</mgrwt>
</event>
<event>
 6    1  0.1535419E-002  0.9215628E+02  0.7546771E-02  0.1421700E+00
         -2   -1    0    0    0  501 -0.00000000000E+00  0.00000000000E+00  0.10642978390E+02  0.10642978390E+02  0.00000000000E+00 0.  1.
          2   -1    0    0  501    0  0.00000000000E+00 -0.00000000000E+00 -0.54514257644E+03  0.54514257644E+03  0.00000000000E+00 0. -1.
         23    2    1    2    0    0  0.27694638124E-01 -0.11407543375E+02 -0.53636680394E+03  0.54422617463E+03  0.91447514837E+02 0.  0.
         13    1    3    3    0    0  0.43618695011E+01  0.45266827859E+01 -0.52284604240E+03  0.52288383109E+03  0.00000000000E+00 0. -1.
        -13    1    3    3    0    0 -0.43341748629E+01 -0.15934226161E+02 -0.13520761539E+02  0.21342343538E+02  0.00000000000E+00 0.  1.
         22    1    1    2    0    0 -0.27694638124E-01  0.11407543375E+02  0.18672058875E+01  0.11559380203E+02  0.00000000000E+00 0.  1.
<mgrwt>
<rscale>  0 0.54662825E+02</rscale>
<asrwt>0</asrwt>
<pdfrwt beam="1">  1        2 0.83868099E-01 0.92156285E+02</pdfrwt>
<pdfrwt beam="2">  1       -2 0.16373811E-02 0.92156285E+02</pdfrwt>
<totfact> 0.51842657E+04</totfact>
</mgrwt>
</event>
<event>
 6    1  0.1535419E-002  0.9313113E+02  0.7546771E-02  0.1401004E+00
          2   -1    0    0  501    0  0.00000000000E+00  0.00000000000E+00  0.87989204970E+02  0.87989204970E+02  0.00000000000E+00 0. -1.
         -2   -1    0    0    0  501 -0.00000000000E+00 -0.00000000000E+00 -0.48433961136E+02  0.48433961136E+02  0.00000000000E+00 0.  1.
         23    2    1    2    0    0  0.49498908906E+01  0.14432334918E+02  0.60094740298E+02  0.11083675123E+03  0.91872813722E+02 0.  0.
         13    1    3    3    0    0  0.44164597528E+02  0.21328597429E+02  0.49394085786E+02  0.69607445390E+02  0.00000000000E+00 0. -1.
        -13    1    3    3    0    0 -0.39214706637E+02 -0.68962625112E+01  0.10700654512E+02  0.41229305842E+02  0.00000000000E+00 0.  1.
         22    1    1    2    0    0 -0.49498908906E+01 -0.14432334918E+02 -0.20539496465E+02  0.25586414873E+02  0.00000000000E+00 0.  1.
<mgrwt>
<rscale>  0 0.59250574E+02</rscale>
<asrwt>0</asrwt>
<pdfrwt beam="1">  1        2 0.13536801E-01 0.93131131E+02</pdfrwt>
<pdfrwt beam="2">  1       -2 0.74513787E-02 0.93131131E+02</pdfrwt>
<totfact> 0.40607732E+04</totfact>
</mgrwt>
</event>
<event>
 6    1  0.1535419E-002  0.1167897E+03  0.7546771E-02  0.1313766E+00
          2   -1    0    0  501    0  0.00000000000E+00  0.00000000000E+00  0.16274548146E+03  0.16274548146E+03  0.00000000000E+00 0. -1.
         -2   -1    0    0    0  501 -0.00000000000E+00 -0.00000000000E+00 -0.38589397448E+02  0.38589397448E+02  0.00000000000E+00 0.  1.
         23    2    1    2    0    0 -0.22723233983E+02 -0.24978798760E+02  0.11976468511E+03  0.16728241741E+03  0.11180134894E+03 0.  0.
         11    1    3    3    0    0 -0.92438672441E+01 -0.36801874958E+02  0.13715334960E+03  0.14230554588E+03  0.00000000000E+00 0. -1.
        -11    1    3    3    0    0 -0.13479366739E+02  0.11823076198E+02 -0.17388664490E+02  0.24976871525E+02  0.00000000000E+00 0.  1.
         22    1    1    2    0    0  0.22723233983E+02  0.24978798760E+02  0.43913989035E+01  0.34052461504E+02  0.00000000000E+00 0. -1.
<mgrwt>
<rscale>  0 0.85640667E+02</rscale>
<asrwt>0</asrwt>
<pdfrwt beam="1">  1        2 0.25037766E-01 0.11678967E+03</pdfrwt>
<pdfrwt beam="2">  1       -2 0.59368305E-02 0.11678967E+03</pdfrwt>
<totfact> 0.29326980E+04</totfact>
</mgrwt>
</event>
<event>
 6    1  0.1535419E-002  0.1101054E+03  0.7546771E-02  0.1290702E+00
          2   -1    0    0  501    0  0.00000000000E+00  0.00000000000E+00  0.86565186341E+03  0.86565186341E+03  0.00000000000E+00 0. -1.
         -2   -1    0    0    0  501 -0.00000000000E+00 -0.00000000000E+00 -0.20113187849E+02  0.20113187849E+02  0.00000000000E+00 0.  1.
         23    2    1    2    0    0 -0.51216086105E+02  0.34160148660E+02  0.80398748402E+03  0.81149187473E+03  0.91286280820E+02 0.  0.
         13    1    3    3    0    0 -0.85368050055E+01  0.36980209068E+02  0.66475728940E+03  0.66583982062E+03  0.00000000000E+00 0. -1.
        -13    1    3    3    0    0 -0.42679281100E+02 -0.28200604081E+01  0.13923019461E+03  0.14565205412E+03  0.00000000000E+00 0.  1.
         22    1    1    2    0    0  0.51216086105E+02 -0.34160148660E+02  0.41551191539E+02  0.74273176522E+02  0.00000000000E+00 0.  1.
<mgrwt>
<rscale>  0 0.95210811E+02</rscale>
<asrwt>0</asrwt>
<pdfrwt beam="1">  1        2 0.13317718E+00 0.11010535E+03</pdfrwt>
<pdfrwt beam="2">  1       -2 0.30943373E-02 0.11010535E+03</pdfrwt>
<totfact> 0.12225857E+04</totfact>
</mgrwt>
</event>
<event>
 6    1  0.1535419E-002  0.9203512E+02  0.7546771E-02  0.1423531E+00
          2   -1    0    0  501    0  0.00000000000E+00  0.00000000000E+00  0.95485207721E+02  0.95485207721E+02  0.00000000000E+00 0. -1.
         -2   -1    0    0    0  501 -0.00000000000E+00 -0.00000000000E+00 -0.29068701347E+02  0.29068701347E+02  0.00000000000E+00 0.  1.
         23    2    1    2    0    0 -0.74368735881E+01  0.82885507489E+01  0.66279730107E+02  0.11341721880E+03  0.91358939004E+02 0.  0.
         13    1    3    3    0    0 -0.28190189113E+02 -0.30905750073E+02  0.12395875472E+02  0.43629231926E+02  0.00000000000E+00 0.  1.
        -13    1    3    3    0    0  0.20753315525E+02  0.39194300821E+02  0.53883854635E+02  0.69787986878E+02  0.00000000000E+00 0. -1.
         22    1    1    2    0    0  0.74368735881E+01 -0.82885507489E+01  0.13677626737E+00  0.11136690264E+02  0.00000000000E+00 0.  1.
<mgrwt>
<rscale>  0 0.54280773E+02</rscale>
<asrwt>0</asrwt>
<pdfrwt beam="1">  1        2 0.14690032E-01 0.92035118E+02</pdfrwt>
<pdfrwt beam="2">  1       -2 0.44721079E-02 0.92035118E+02</pdfrwt>
<totfact> 0.79208172E+04</totfact>
</mgrwt>
</event>
<event>
 6    1  0.1535419E-002  0.9345690E+02  0.7546771E-02  0.1393668E+00
          1   -1    0    0  501    0  0.00000000000E+00  0.00000000000E+00  0.40746607146E+02  0.40746607146E+02  0.00000000000E+00 0. -1.
         -1   -1    0    0    0  501 -0.00000000000E+00 -0.00000000000E+00 -0.75407551744E+02  0.75407551744E+02  0.00000000000E+00 0.  1.
         23    2    1    2    0    0  0.14740172290E+02  0.84012973038E+01 -0.25503313117E+02  0.96874203239E+02  0.91903959641E+02 0.  0.
         11    1    3    3    0    0  0.31843978117E+02  0.26877376519E+02 -0.47679637014E+02  0.63322824452E+02  0.00000000000E+00 0.  1.
        -11    1    3    3    0    0 -0.17103805827E+02 -0.18476079215E+02  0.22176323897E+02  0.33551378787E+02  0.00000000000E+00 0. -1.
         22    1    1    2    0    0 -0.14740172290E+02 -0.84012973038E+01 -0.91576314810E+01  0.19279955650E+02  0.00000000000E+00 0.  1.
<mgrwt>
<rscale>  0 0.61003556E+02</rscale>
<asrwt>0</asrwt>
<pdfrwt beam="1">  1        1 0.62687089E-02 0.93456901E+02</pdfrwt>
<pdfrwt beam="2">  1       -1 0.11601162E-01 0.93456901E+02</pdfrwt>
<totfact> 0.50626496E+04</totfact>
</mgrwt>
</event>
<event>
 6    1  0.1535419E-002  0.8403870E+02  0.7546771E-02  0.1376535E+00
         -2   -1    0    0    0  501 -0.00000000000E+00  0.00000000000E+00  0.63028019571E+01  0.63028019571E+01  0.00000000000E+00 0.  1.
          2   -1    0    0  501    0  0.00000000000E+00 -0.00000000000E+00 -0.58453482180E+03  0.58453482180E+03  0.00000000000E+00 0. -1.
         23    2    1    2    0    0  0.30781313553E+02  0.80002909950E+00 -0.49519371538E+03  0.50227414755E+03  0.78194464190E+02 0.  0.
         11    1    3    3    0    0  0.41949403407E+02  0.59998168724E+00 -0.48599947910E+03  0.48780693528E+03  0.00000000000E+00 0. -1.
        -11    1    3    3    0    0 -0.11168089854E+02  0.20004741226E+00 -0.91942362860E+01  0.14467212269E+02  0.00000000000E+00 0.  1.
         22    1    1    2    0    0 -0.30781313553E+02 -0.80002909950E+00 -0.83038304463E+02  0.88563476212E+02  0.00000000000E+00 0. -1.
<mgrwt>
<rscale>  0 0.65383468E+02</rscale>
<asrwt>0</asrwt>
<pdfrwt beam="1">  1        2 0.89928488E-01 0.84038703E+02</pdfrwt>
<pdfrwt beam="2">  1       -2 0.96966126E-03 0.84038703E+02</pdfrwt>
<totfact> 0.99780951E+04</totfact>
</mgrwt>
</event>
<event>
 6    1  0.1535419E-002  0.9393571E+02  0.7546771E-02  0.1362708E+00
         -1   -1    0    0    0  501 -0.00000000000E+00  0.00000000000E+00  0.44046582255E+02  0.44046582255E+02  0.00000000000E+00 0.  1.
          1   -1    0    0  501    0  0.00000000000E+00 -0.00000000000E+00 -0.11462046754E+03  0.11462046754E+03  0.00000000000E+00 0. -1.
         23    2    1    2    0    0  0.15093233770E+02  0.23255536984E+02 -0.85639204669E+02  0.12711408552E+03  0.89751276625E+02 0.  0.
         13    1    3    3    0    0 -0.25999359498E+02 -0.17052129665E+02 -0.11271972644E+02  0.33072635028E+02  0.00000000000E+00 0.  1.
        -13    1    3    3    0    0  0.41092593268E+02  0.40307666649E+02 -0.74367232025E+02  0.94041450495E+02  0.00000000000E+00 0. -1.
         22    1    1    2    0    0 -0.15093233770E+02 -0.23255536984E+02  0.15065319385E+02  0.31552964270E+02  0.00000000000E+00 0.  1.
<mgrwt>
<rscale>  0 0.69236866E+02</rscale>
<asrwt>0</asrwt>
<pdfrwt beam="1">  1        1 0.17633918E-01 0.93935709E+02</pdfrwt>
<pdfrwt beam="2">  1       -1 0.67763974E-02 0.93935709E+02</pdfrwt>
<totfact> 0.29424986E+04</totfact>
</mgrwt>
</event>
<event>
 6    1  0.1535419E-002  0.9522060E+02  0.7546771E-02  0.1411920E+00
          2   -1    0    0  501    0  0.00000000000E+00  0.00000000000E+00  0.63313577584E+03  0.63313577584E+03  0.00000000000E+00 0. -1.
         -2   -1    0    0    0  501 -0.00000000000E+00 -0.00000000000E+00 -0.48465715438E+01  0.48465715438E+01  0.00000000000E+00 0.  1.
         23    2    1    2    0    0 -0.71489931284E+01  0.96733853541E+01  0.59532737759E+03  0.60289439351E+03  0.94457825170E+02 0.  0.
         13    1    3    3    0    0 -0.27278002551E+02 -0.17557771177E+02  0.51090238104E+03  0.51193125291E+03  0.00000000000E+00 0. -1.
        -13    1    3    3    0    0  0.20129009423E+02  0.27231156531E+02  0.84424996542E+02  0.90963140599E+02  0.00000000000E+00 0.  1.
         22    1    1    2    0    0  0.71489931284E+01 -0.96733853541E+01  0.32961826713E+02  0.35087953876E+02  0.00000000000E+00 0.  1.
<mgrwt>
<rscale>  0 0.56767555E+02</rscale>
<asrwt>0</asrwt>
<pdfrwt beam="1">  1        2 0.97405438E-01 0.95220603E+02</pdfrwt>
<pdfrwt beam="2">  1       -2 0.74562689E-03 0.95220603E+02</pdfrwt>
<totfact> 0.13460177E+05</totfact>
</mgrwt>
</event>
<event>
 6    1  0.1535419E-002  0.9076494E+02  0.7546771E-02  0.1431396E+00
         -2   -1    0    0    0  501 -0.00000000000E+00  0.00000000000E+00  0.26569285802E+03  0.26569285802E+03  0.00000000000E+00 0.  1.
          2   -1    0    0  501    0  0.00000000000E+00 -0.00000000000E+00 -0.10094479033E+02  0.10094479033E+02  0.00000000000E+00 0. -1.
         23    2    1    2    0    0 -0.81765625064E+01  0.62644535515E+01  0.20567020800E+03  0.22480771553E+03  0.90178572561E+02 0.  0.
         13    1    3    3    0    0  0.89252196358E+01  0.15343439069E+02 -0.47336669374E+00  0.17756822465E+02  0.00000000000E+00 0. -1.
        -13    1    3    3    0    0 -0.17101782142E+02 -0.90789855178E+01  0.20614357469E+03  0.20705089306E+03  0.00000000000E+00 0.  1.
         22    1    1    2    0    0  0.81765625064E+01 -0.62644535515E+01  0.49928170987E+02  0.50979621525E+02  0.00000000000E+00 0.  1.
<mgrwt>
<rscale>  0 0.52680852E+02</rscale>
<asrwt>0</asrwt>
<pdfrwt beam="1">  1        2 0.15529970E-02 0.90764941E+02</pdfrwt>
<pdfrwt beam="2">  1       -2 0.40875819E-01 0.90764941E+02</pdfrwt>
<totfact> 0.38458283E+04</totfact>
</mgrwt>
</event>
<event>
 6    1  0.1535419E-002  0.9380872E+02  0.7546771E-02  0.1410597E+00
          2   -1    0    0  501    0  0.00000000000E+00  0.00000000000E+00  0.31438832432E+03  0.31438832432E+03  0.00000000000E+00 0.  1.
         -2   -1    0    0    0  501 -0.00000000000E+00 -0.00000000000E+00 -0.91596453593E+01  0.91596453593E+01  0.00000000000E+00 0. -1.
         23    2    1    2    0    0 -0.12627057456E+02  0.23386155721E+01  0.27891345132E+03  0.29426652661E+03  0.92925581242E+02 0.  0.
         11    1    3    3    0    0  0.18533129342E+02  0.84774246024E+01  0.86437889936E+01  0.22137269463E+02  0.00000000000E+00 0. -1.
        -11    1    3    3    0    0 -0.31160186798E+02 -0.61388090303E+01  0.27026966233E+03  0.27212925714E+03  0.00000000000E+00 0.  1.
         22    1    1    2    0    0  0.12627057456E+02 -0.23386155721E+01  0.26315227632E+02  0.29281443067E+02  0.00000000000E+00 0.  1.
<mgrwt>
<rscale>  0 0.57060928E+02</rscale>
<asrwt>0</asrwt>
<pdfrwt beam="1">  1        2 0.48367426E-01 0.93808717E+02</pdfrwt>
<pdfrwt beam="2">  1       -2 0.14091764E-02 0.93808717E+02</pdfrwt>
<totfact> 0.11553969E+05</totfact>
</mgrwt>
</event>
<event>
 6    1  0.1535419E-002  0.9447590E+02  0.7546771E-02  0.1424530E+00
          1   -1    0    0  501    0  0.00000000000E+00  0.00000000000E+00  0.37615444884E+03  0.37615444884E+03  0.00000000000E+00 0. -1.
         -1   -1    0    0    0  501 -0.00000000000E+00 -0.00000000000E+00 -0.10401010267E+02  0.10401010267E+02  0.00000000000E+00 0.  1.
         23    2    1    2    0    0 -0.10026724506E+02 -0.15030475244E+01  0.36425376513E+03  0.37630639200E+03  0.93930298042E+02 0.  0.
         13    1    3    3    0    0 -0.70398401750E+01 -0.73342081734E+01  0.36840830896E+03  0.36854854778E+03  0.00000000000E+00 0. -1.
        -13    1    3    3    0    0 -0.29868843312E+01  0.58311606490E+01 -0.41545438279E+01  0.77578442200E+01  0.00000000000E+00 0.  1.
         22    1    1    2    0    0  0.10026724506E+02  0.15030475244E+01  0.14996734429E+01  0.10249067110E+02  0.00000000000E+00 0. -1.
<mgrwt>
<rscale>  0 0.54073805E+02</rscale>
<asrwt>0</asrwt>
<pdfrwt beam="1">  1        1 0.57869905E-01 0.94475898E+02</pdfrwt>
<pdfrwt beam="2">  1       -1 0.16001557E-02 0.94475898E+02</pdfrwt>
<totfact> 0.54836949E+04</totfact>
</mgrwt>
</event>
<event>
 6    1  0.1535419E-002  0.8896802E+02  0.7546771E-02  0.1414836E+00
         -4   -1    0    0    0  501 -0.00000000000E+00  0.00000000000E+00  0.98781171589E+01  0.98781171589E+01  0.00000000000E+00 0.  1.
          4   -1    0    0  501    0  0.00000000000E+00 -0.00000000000E+00 -0.40776079781E+03  0.40776079781E+03  0.00000000000E+00 0. -1.
         23    2    1    2    0    0 -0.13902390981E+02 -0.23164087956E+01 -0.39265263684E+03  0.40260576550E+03  0.87844561416E+02 0.  0.
         13    1    3    3    0    0  0.12293887886E+02  0.32605700374E+01 -0.44419570258E+01  0.13472267016E+02  0.00000000000E+00 0.  1.
        -13    1    3    3    0    0 -0.26196278867E+02 -0.55769788330E+01 -0.38821067982E+03  0.38913349848E+03  0.00000000000E+00 0. -1.
         22    1    1    2    0    0  0.13902390981E+02  0.23164087956E+01 -0.52300438086E+01  0.15033149468E+02  0.00000000000E+00 0.  1.
<mgrwt>
<rscale>  0 0.56128625E+02</rscale>
<asrwt>0</asrwt>
<pdfrwt beam="1">  1        4 0.62732422E-01 0.88968023E+02</pdfrwt>
<pdfrwt beam="2">  1       -4 0.15197105E-02 0.88968023E+02</pdfrwt>
<totfact> 0.54761990E+03</totfact>
</mgrwt>
</event>
<event>
 6    1  0.1535419E-002  0.9304086E+02  0.7546771E-02  0.1381006E+00
         -4   -1    0    0    0  501 -0.00000000000E+00  0.00000000000E+00  0.27256395723E+02  0.27256395723E+02  0.00000000000E+00 0.  1.
          4   -1    0    0  501    0  0.00000000000E+00 -0.00000000000E+00 -0.18202592895E+03  0.18202592895E+03  0.00000000000E+00 0. -1.
         23    2    1    2    0    0  0.15668099902E+02 -0.14120587649E+02 -0.16214084169E+03  0.18693917050E+03  0.90618544307E+02 0.  0.
         13    1    3    3    0    0 -0.15219131866E+02 -0.45609493522E+02 -0.97098703811E+02  0.10835130897E+03  0.00000000000E+00 0. -1.
        -13    1    3    3    0    0  0.30887231768E+02  0.31488905873E+02 -0.65042137880E+02  0.78587861527E+02  0.00000000000E+00 0.  1.
         22    1    1    2    0    0 -0.15668099902E+02  0.14120587649E+02  0.73713084628E+01  0.22343154176E+02  0.00000000000E+00 0.  1.
<mgrwt>
<rscale>  0 0.64200096E+02</rscale>
<asrwt>0</asrwt>
<pdfrwt beam="1">  1        4 0.28003989E-01 0.93040856E+02</pdfrwt>
<pdfrwt beam="2">  1       -4 0.41932917E-02 0.93040856E+02</pdfrwt>
<totfact> 0.56692106E+03</totfact>
</mgrwt>
</event>
<event>
 6    1  0.1535419E-002  0.9162152E+02  0.7546771E-02  0.1407326E+00
          2   -1    0    0  501    0  0.00000000000E+00  0.00000000000E+00  0.11786883451E+03  0.11786883451E+03  0.00000000000E+00 0. -1.
         -2   -1    0    0    0  501 -0.00000000000E+00 -0.00000000000E+00 -0.24428732782E+02  0.24428732782E+02  0.00000000000E+00 0.  1.
         23    2    1    2    0    0  0.82566000126E+01  0.11927577618E+02  0.87271950947E+02  0.12653417186E+03  0.90465820471E+02 0.  0.
         13    1    3    3    0    0  0.14205341916E+02  0.37121955107E+02  0.91999896350E+02  0.10021882168E+03  0.00000000000E+00 0. -1.
        -13    1    3    3    0    0 -0.59487419031E+01 -0.25194377489E+02 -0.47279454028E+01  0.26315350179E+02  0.00000000000E+00 0.  1.
         22    1    1    2    0    0 -0.82566000126E+01 -0.11927577618E+02  0.61681507811E+01  0.15763395436E+02  0.00000000000E+00 0.  1.
<mgrwt>
<rscale>  0 0.57794803E+02</rscale>
<asrwt>0</asrwt>
<pdfrwt beam="1">  1        2 0.18133667E-01 0.91621522E+02</pdfrwt>
<pdfrwt beam="2">  1       -2 0.37582666E-02 0.91621522E+02</pdfrwt>
<totfact> 0.80340727E+04</totfact>
</mgrwt>
</event>
<event>
 6    1  0.1535419E-002  0.9252237E+02  0.7546771E-02  0.1417040E+00
          1   -1    0    0  501    0  0.00000000000E+00  0.00000000000E+00  0.18712068180E+04  0.18712068180E+04  0.00000000000E+00 0. -1.
         -1   -1    0    0    0  501 -0.00000000000E+00 -0.00000000000E+00 -0.18858634450E+01  0.18858634450E+01  0.00000000000E+00 0.  1.
         23    2    1    2    0    0 -0.25908316035E+01 -0.11830869306E+02  0.18183592037E+04  0.18207115596E+04  0.91726264794E+02 0.  0.
         11    1    3    3    0    0 -0.20958365380E+02  0.34518547398E+02  0.10183267430E+04  0.10191271455E+04  0.00000000000E+00 0.  1.
        -11    1    3    3    0    0  0.18367533777E+02 -0.46349416704E+02  0.80003246067E+03  0.80158441405E+03  0.00000000000E+00 0. -1.
         22    1    1    2    0    0  0.25908316035E+01  0.11830869306E+02  0.50961750839E+02  0.52381121842E+02  0.00000000000E+00 0.  1.
<mgrwt>
<rscale>  0 0.55652173E+02</rscale>
<asrwt>0</asrwt>
<pdfrwt beam="1">  1        1 0.28787649E+00 0.92522373E+02</pdfrwt>
<pdfrwt beam="2">  1       -1 0.29013433E-03 0.92522373E+02</pdfrwt>
<totfact> 0.42085341E+04</totfact>
</mgrwt>
</event>
<event>
 6    1  0.1535419E-002  0.9430436E+02  0.7546771E-02  0.1382924E+00
          3   -1    0    0  501    0  0.00000000000E+00  0.00000000000E+00  0.21155225471E+02  0.21155225471E+02  0.00000000000E+00 0. -1.
         -3   -1    0    0    0  501 -0.00000000000E+00 -0.00000000000E+00 -0.17495158314E+03  0.17495158314E+03  0.00000000000E+00 0.  1.
         23    2    1    2    0    0 -0.15727580525E+01 -0.19570636195E+02 -0.14825383643E+03  0.17570575691E+03  0.92237896907E+02 0.  0.
         11    1    3    3    0    0  0.26201149179E+01  0.57961660845E+01 -0.14981258679E+03  0.14994756318E+03  0.00000000000E+00 0.  1.
        -11    1    3    3    0    0 -0.41928729704E+01 -0.25366802280E+02  0.15587503559E+01  0.25758193732E+02  0.00000000000E+00 0. -1.
         22    1    1    2    0    0  0.15727580525E+01  0.19570636195E+02 -0.55425212432E+01  0.20401051706E+02  0.00000000000E+00 0.  1.
<mgrwt>
<rscale>  0 0.63701484E+02</rscale>
<asrwt>0</asrwt>
<pdfrwt beam="1">  1        3 0.32546500E-02 0.94304364E+02</pdfrwt>
<pdfrwt beam="2">  1       -3 0.26915629E-01 0.94304364E+02</pdfrwt>
<totfact> 0.12240961E+04</totfact>
</mgrwt>
</event>
<event>
 6    1  0.1535419E-002  0.8962261E+02  0.7546771E-02  0.1431295E+00
          2   -1    0    0  501    0  0.00000000000E+00  0.00000000000E+00  0.11065147114E+03  0.11065147114E+03  0.00000000000E+00 0. -1.
         -2   -1    0    0    0  501 -0.00000000000E+00 -0.00000000000E+00 -0.32157637123E+02  0.32157637123E+02  0.00000000000E+00 0.  1.
         23    2    1    2    0    0 -0.35560194125E+01 -0.10108534772E+02  0.90050818549E+02  0.12704866281E+03  0.88979688974E+02 0.  0.
         11    1    3    3    0    0  0.34198409752E+02 -0.17884214075E+02  0.12705407008E+02  0.40630083804E+02  0.00000000000E+00 0.  1.
        -11    1    3    3    0    0 -0.37754429165E+02  0.77756793022E+01  0.77345411541E+02  0.86418579002E+02  0.00000000000E+00 0. -1.
         22    1    1    2    0    0  0.35560194125E+01  0.10108534772E+02 -0.11556984537E+02  0.15760445453E+02  0.00000000000E+00 0.  1.
<mgrwt>
<rscale>  0 0.52701025E+02</rscale>
<asrwt>0</asrwt>
<pdfrwt beam="1">  1        2 0.17023303E-01 0.89622613E+02</pdfrwt>
<pdfrwt beam="2">  1       -2 0.49473288E-02 0.89622613E+02</pdfrwt>
<totfact> 0.57353380E+04</totfact>
</mgrwt>
</event>
<event>
 6    1  0.1535419E-002  0.9301933E+02  0.7546771E-02  0.1427585E+00
          2   -1    0    0  501    0  0.00000000000E+00  0.00000000000E+00  0.43342801972E+03  0.43342801972E+03  0.00000000000E+00 0. -1.
         -2   -1    0    0    0  501 -0.00000000000E+00 -0.00000000000E+00 -0.63802521479E+01  0.63802521479E+01  0.00000000000E+00 0.  1.
         23    2    1    2    0    0 -0.56241175800E+01 -0.84363839143E+01  0.40493805127E+03  0.41548456272E+03  0.92465091865E+02 0.  0.
         13    1    3    3    0    0  0.94380704238E+01 -0.36487340934E+02  0.74251349378E+02  0.83268638191E+02  0.00000000000E+00 0.  1.
        -13    1    3    3    0    0 -0.15062188004E+02  0.28050957019E+02  0.33068670190E+03  0.33221592453E+03  0.00000000000E+00 0. -1.
         22    1    1    2    0    0  0.56241175800E+01  0.84363839143E+01  0.22109716293E+02  0.24323709147E+02  0.00000000000E+00 0. -1.
<mgrwt>
<rscale>  0 0.53447917E+02</rscale>
<asrwt>0</asrwt>
<pdfrwt beam="1">  1        2 0.66681211E-01 0.93019334E+02</pdfrwt>
<pdfrwt beam="2">  1       -2 0.98157759E-03 0.93019334E+02</pdfrwt>
<totfact> 0.13762896E+05</totfact>
</mgrwt>
</event>
<event>
 6    1  0.1535419E-002  0.9162103E+02  0.7546771E-02  0.1416279E+00
          1   -1    0    0  501    0  0.00000000000E+00  0.00000000000E+00  0.44383887646E+03  0.44383887646E+03  0.00000000000E+00 0. -1.
         -1   -1    0    0    0  501 -0.00000000000E+00 -0.00000000000E+00 -0.99800922915E+01  0.99800922915E+01  0.00000000000E+00 0.  1.
         23    2    1    2    0    0 -0.26959700288E+01  0.12328329225E+02  0.43132352589E+03  0.44094715884E+03  0.90747765484E+02 0.  0.
         11    1    3    3    0    0  0.62052037715E+01  0.19866786872E+02  0.18168977777E+02  0.27627984507E+02  0.00000000000E+00 0.  1.
        -11    1    3    3    0    0 -0.89011738002E+01 -0.75384576464E+01  0.41315454812E+03  0.41331917433E+03  0.00000000000E+00 0. -1.
         22    1    1    2    0    0  0.26959700288E+01 -0.12328329225E+02  0.25352582701E+01  0.12871809911E+02  0.00000000000E+00 0.  1.
<mgrwt>
<rscale>  0 0.55815952E+02</rscale>
<asrwt>0</asrwt>
<pdfrwt beam="1">  1        1 0.68282889E-01 0.91621029E+02</pdfrwt>
<pdfrwt beam="2">  1       -1 0.15353992E-02 0.91621029E+02</pdfrwt>
<totfact> 0.47124277E+04</totfact>
</mgrwt>
</event>
<event>
 6    1  0.1535419E-002  0.9686309E+02  0.7546771E-02  0.1392987E+00
          2   -1    0    0  501    0  0.00000000000E+00  0.00000000000E+00  0.15310786176E+04  0.15310786176E+04  0.00000000000E+00 0.  1.
         -2   -1    0    0    0  501 -0.00000000000E+00 -0.00000000000E+00 -0.24906231499E+01  0.24906231499E+01  0.00000000000E+00 0. -1.
         23    2    1    2    0    0  0.54705741645E+01  0.14401354944E+02  0.14627206218E+04  0.14659243076E+04  0.95630182782E+02 0.  0.
         13    1    3    3    0    0  0.20523389128E+02 -0.14974599127E+00  0.67608116029E+02  0.70654718726E+02  0.00000000000E+00 0. -1.
        -13    1    3    3    0    0 -0.15052814963E+02  0.14551100935E+02  0.13951125058E+04  0.13952695888E+04  0.00000000000E+00 0.  1.
         22    1    1    2    0    0 -0.54705741645E+01 -0.14401354944E+02  0.65867372612E+02  0.67644933149E+02  0.00000000000E+00 0.  1.
<mgrwt>
<rscale>  0 0.61169784E+02</rscale>
<asrwt>0</asrwt>
<pdfrwt beam="1">  1        2 0.23554980E+00 0.96863089E+02</pdfrwt>
<pdfrwt beam="2">  1       -2 0.38317402E-03 0.96863089E+02</pdfrwt>
<totfact> 0.10127837E+05</totfact>
</mgrwt>
</event>
<event>
 6    1  0.1535419E-002  0.1461845E+03  0.7546771E-02  0.1216625E+00
         -2   -1    0    0    0  501 -0.00000000000E+00  0.00000000000E+00  0.15405803996E+03  0.15405803996E+03  0.00000000000E+00 0.  1.
          2   -1    0    0  501    0  0.00000000000E+00 -0.00000000000E+00 -0.11759888110E+03  0.11759888110E+03  0.00000000000E+00 0. -1.
         23    2    1    2    0    0  0.20158823915E+02  0.11289809621E+03  0.53596176609E+02  0.15569987864E+03  0.90650668797E+02 0.  0.
         11    1    3    3    0    0  0.51448084502E+02  0.38464008351E+02  0.13888203815E+02  0.65721134672E+02  0.00000000000E+00 0. -1.
        -11    1    3    3    0    0 -0.31289260587E+02  0.74434087857E+02  0.39707972794E+02  0.89978743971E+02  0.00000000000E+00 0.  1.
         22    1    1    2    0    0 -0.20158823915E+02 -0.11289809621E+03 -0.17137017753E+02  0.11595704242E+03  0.00000000000E+00 0. -1.
<mgrwt>
<rscale>  0 0.13757876E+03</rscale>
<asrwt>0</asrwt>
<pdfrwt beam="1">  1        2 0.18092136E-01 0.14618448E+03</pdfrwt>
<pdfrwt beam="2">  1       -2 0.23701237E-01 0.14618448E+03</pdfrwt>
<totfact> 0.46777545E+03</totfact>
</mgrwt>
</event>
<event>
 6    1  0.1535419E-002  0.9445647E+02  0.7546771E-02  0.1364985E+00
         -2   -1    0    0    0  501 -0.00000000000E+00  0.00000000000E+00  0.97643418055E+01  0.97643418055E+01  0.00000000000E+00 0.  1.
          2   -1    0    0  501    0  0.00000000000E+00 -0.00000000000E+00 -0.38055371464E+03  0.38055371464E+03  0.00000000000E+00 0. -1.
         23    2    1    2    0    0 -0.21853271762E+02  0.14542698895E+02 -0.31081340026E+03  0.32484918702E+03  0.90735709326E+02 0.  0.
         13    1    3    3    0    0  0.19265768146E+02  0.28637389584E+02 -0.23448434863E+03  0.23701092729E+03  0.00000000000E+00 0. -1.
        -13    1    3    3    0    0 -0.41119039909E+02 -0.14094690689E+02 -0.76329051636E+02  0.87838259729E+02  0.00000000000E+00 0.  1.
         22    1    1    2    0    0  0.21853271762E+02 -0.14542698895E+02 -0.59975972570E+02  0.65468869424E+02  0.00000000000E+00 0. -1.
<mgrwt>
<rscale>  0 0.68581276E+02</rscale>
<asrwt>0</asrwt>
<pdfrwt beam="1">  1        2 0.58546708E-01 0.94456469E+02</pdfrwt>
<pdfrwt beam="2">  1       -2 0.15022069E-02 0.94456469E+02</pdfrwt>
<totfact> 0.86414132E+04</totfact>
</mgrwt>
</event>
<event>
 6    1  0.1535419E-002  0.9555721E+02  0.7546771E-02  0.1374013E+00
         -2   -1    0    0    0  501 -0.00000000000E+00  0.00000000000E+00  0.13007015252E+02  0.13007015252E+02  0.00000000000E+00 0.  1.
          2   -1    0    0  501    0  0.00000000000E+00 -0.00000000000E+00 -0.27894388719E+03  0.27894388719E+03  0.00000000000E+00 0. -1.
         23    2    1    2    0    0 -0.21114723834E+02 -0.55459702880E+01 -0.23820653327E+03  0.25665839571E+03  0.93030050229E+02 0.  0.
         11    1    3    3    0    0 -0.47629948878E+02  0.20843553317E+02 -0.18089459658E+03  0.18821774841E+03  0.00000000000E+00 0.  1.
        -11    1    3    3    0    0  0.26515225044E+02 -0.26389523605E+02 -0.57311936690E+02  0.68440647297E+02  0.00000000000E+00 0. -1.
         22    1    1    2    0    0  0.21114723834E+02  0.55459702880E+01 -0.27730338671E+02  0.35292506737E+02  0.00000000000E+00 0. -1.
<mgrwt>
<rscale>  0 0.66064115E+02</rscale>
<asrwt>0</asrwt>
<pdfrwt beam="1">  1        2 0.42914445E-01 0.95557206E+02</pdfrwt>
<pdfrwt beam="2">  1       -2 0.20010792E-02 0.95557206E+02</pdfrwt>
<totfact> 0.79467528E+04</totfact>
</mgrwt>
</event>
<event>
 6    1  0.1535419E-002  0.9406169E+02  0.7546771E-02  0.1389349E+00
         -2   -1    0    0    0  501 -0.00000000000E+00  0.00000000000E+00  0.35084349249E+02  0.35084349249E+02  0.00000000000E+00 0.  1.
          2   -1    0    0  501    0  0.00000000000E+00 -0.00000000000E+00 -0.11911039775E+04  0.11911039775E+04  0.00000000000E+00 0. -1.
         23    2    1    2    0    0  0.86598227065E+01 -0.15590751021E+02 -0.11868498619E+04  0.11905713736E+04  0.92355491480E+02 0.  0.
         11    1    3    3    0    0  0.50593467268E+02 -0.88060242123E+01 -0.69057325128E+03  0.69248007941E+03  0.00000000000E+00 0. -1.
        -11    1    3    3    0    0 -0.41933644562E+02 -0.67847268090E+01 -0.49627661065E+03  0.49809129419E+03  0.00000000000E+00 0.  1.
         22    1    1    2    0    0 -0.86598227065E+01  0.15590751021E+02  0.30830233655E+02  0.35616953182E+02  0.00000000000E+00 0.  1.
<mgrwt>
<rscale>  0 0.62068878E+02</rscale>
<asrwt>0</asrwt>
<pdfrwt beam="1">  1        2 0.18324673E+00 0.94061686E+02</pdfrwt>
<pdfrwt beam="2">  1       -2 0.53975933E-02 0.94061686E+02</pdfrwt>
<totfact> 0.34403990E+03</totfact>
</mgrwt>
</event>
<event>
 6    1  0.1535419E-002  0.9278895E+02  0.7546771E-02  0.1388623E+00
          2   -1    0    0  501    0  0.00000000000E+00  0.00000000000E+00  0.96002594381E+03  0.96002594381E+03  0.00000000000E+00 0. -1.
         -2   -1    0    0    0  501 -0.00000000000E+00 -0.00000000000E+00 -0.55534338313E+01  0.55534338313E+01  0.00000000000E+00 0.  1.
         23    2    1    2    0    0  0.49409069847E+01  0.18135859198E+02  0.93050598275E+03  0.93512094075E+03  0.90865108475E+02 0.  0.
         13    1    3    3    0    0 -0.51202881924E+01  0.59178226619E+01  0.90545533237E+03  0.90548914786E+03  0.00000000000E+00 0. -1.
        -13    1    3    3    0    0  0.10061195177E+02  0.12218036536E+02  0.25050650384E+02  0.29631792890E+02  0.00000000000E+00 0.  1.
         22    1    1    2    0    0 -0.49409069847E+01 -0.18135859198E+02  0.23966527230E+02  0.30458436896E+02  0.00000000000E+00 0.  1.
<mgrwt>
<rscale>  0 0.62250599E+02</rscale>
<asrwt>0</asrwt>
<pdfrwt beam="1">  1        2 0.14769617E+00 0.92788953E+02</pdfrwt>
<pdfrwt beam="2">  1       -2 0.85437520E-03 0.92788953E+02</pdfrwt>
<totfact> 0.66670920E+04</totfact>
</mgrwt>
</event>
<event>
 6    1  0.1535419E-002  0.9390641E+02  0.7546771E-02  0.1378907E+00
          2   -1    0    0  501    0  0.00000000000E+00  0.00000000000E+00  0.46335729964E+03  0.46335729964E+03  0.00000000000E+00 0. -1.
         -2   -1    0    0    0  501 -0.00000000000E+00 -0.00000000000E+00 -0.73617852538E+01  0.73617852538E+01  0.00000000000E+00 0.  1.
         23    2    1    2    0    0  0.89112782813E+01  0.19267902872E+02  0.39890945195E+03  0.40981357212E+03  0.91475406955E+02 0.  0.
         11    1    3    3    0    0  0.45117504440E+02  0.32104965807E+02  0.24550907398E+03  0.25167642608E+03  0.00000000000E+00 0. -1.
        -11    1    3    3    0    0 -0.36206226159E+02 -0.12837062935E+02  0.15340037797E+03  0.15813714604E+03  0.00000000000E+00 0.  1.
         22    1    1    2    0    0 -0.89112782813E+01 -0.19267902872E+02  0.57086062436E+02  0.60905512773E+02  0.00000000000E+00 0.  1.
<mgrwt>
<rscale>  0 0.64751957E+02</rscale>
<asrwt>0</asrwt>
<pdfrwt beam="1">  1        2 0.71285715E-01 0.93906406E+02</pdfrwt>
<pdfrwt beam="2">  1       -2 0.11325827E-02 0.93906406E+02</pdfrwt>
<totfact> 0.10478424E+05</totfact>
</mgrwt>
</event>
<event>
 6    1  0.1535419E-002  0.8949801E+02  0.7546771E-02  0.1425472E+00
          2   -1    0    0  501    0  0.00000000000E+00  0.00000000000E+00  0.46548557085E+02  0.46548557085E+02  0.00000000000E+00 0. -1.
         -2   -1    0    0    0  501 -0.00000000000E+00 -0.00000000000E+00 -0.78011358193E+02  0.78011358193E+02  0.00000000000E+00 0.  1.
         23    2    1    2    0    0  0.28373298123E+01  0.11408635348E+02  0.15551161529E+01  0.89511516439E+02  0.88722521312E+02 0.  0.
         11    1    3    3    0    0 -0.18771538217E+02  0.45973548271E+00  0.39933223009E+02  0.44127591183E+02  0.00000000000E+00 0. -1.
        -11    1    3    3    0    0  0.21608868029E+02  0.10948899865E+02 -0.38378106856E+02  0.45383925256E+02  0.00000000000E+00 0.  1.
         22    1    1    2    0    0 -0.28373298123E+01 -0.11408635348E+02 -0.33017917260E+02  0.35048398839E+02  0.00000000000E+00 0.  1.
<mgrwt>
<rscale>  0 0.53879857E+02</rscale>
<asrwt>0</asrwt>
<pdfrwt beam="1">  1        2 0.71613165E-02 0.89498007E+02</pdfrwt>
<pdfrwt beam="2">  1       -2 0.12001747E-01 0.89498007E+02</pdfrwt>
<totfact> 0.41798061E+04</totfact>
</mgrwt>
</event>
<event>
 6    1  0.1535419E-002  0.9370900E+02  0.7546771E-02  0.1386560E+00
          2   -1    0    0  501    0  0.00000000000E+00  0.00000000000E+00  0.42449568170E+03  0.42449568170E+03  0.00000000000E+00 0.  1.
         -2   -1    0    0    0  501 -0.00000000000E+00 -0.00000000000E+00 -0.88561008822E+01  0.88561008822E+01  0.00000000000E+00 0. -1.
         23    2    1    2    0    0  0.14197810728E+02 -0.12423419387E+02  0.39232024956E+03  0.40335660982E+03  0.91790289748E+02 0.  0.
         11    1    3    3    0    0 -0.31499613280E+02  0.48691364049E+01  0.64831091009E+02  0.72242677743E+02  0.00000000000E+00 0. -1.
        -11    1    3    3    0    0  0.45697424008E+02 -0.17292555792E+02  0.32748915855E+03  0.33111393208E+03  0.00000000000E+00 0.  1.
         22    1    1    2    0    0 -0.14197810728E+02  0.12423419387E+02  0.23319331259E+02  0.29995172763E+02  0.00000000000E+00 0. -1.
<mgrwt>
<rscale>  0 0.62770400E+02</rscale>
<asrwt>0</asrwt>
<pdfrwt beam="1">  1        2 0.65307012E-01 0.93708999E+02</pdfrwt>
<pdfrwt beam="2">  1       -2 0.13624774E-02 0.93708999E+02</pdfrwt>
<totfact> 0.88414493E+04</totfact>
</mgrwt>
</event>
<event>
 6    1  0.1535419E-002  0.9021651E+02  0.7546771E-02  0.1412601E+00
         -2   -1    0    0    0  501 -0.00000000000E+00  0.00000000000E+00  0.14619425245E+03  0.14619425245E+03  0.00000000000E+00 0.  1.
          2   -1    0    0  501    0  0.00000000000E+00 -0.00000000000E+00 -0.19927883199E+02  0.19927883199E+02  0.00000000000E+00 0. -1.
         23    2    1    2    0    0 -0.13397463730E+02 -0.40427540670E+01  0.90817845374E+02  0.12801132695E+03  0.89124535866E+02 0.  0.
         13    1    3    3    0    0 -0.28325329123E+02 -0.98766054006E+01  0.10338206930E+03  0.10764629050E+03  0.00000000000E+00 0.  1.
        -13    1    3    3    0    0  0.14927865393E+02  0.58338513336E+01 -0.12564223931E+02  0.20365036449E+02  0.00000000000E+00 0. -1.
         22    1    1    2    0    0  0.13397463730E+02  0.40427540670E+01  0.35448523881E+02  0.38110808705E+02  0.00000000000E+00 0.  1.
<mgrwt>
<rscale>  0 0.56617548E+02</rscale>
<asrwt>0</asrwt>
<pdfrwt beam="1">  1        2 0.30658283E-02 0.90216511E+02</pdfrwt>
<pdfrwt beam="2">  1       -2 0.22491423E-01 0.90216511E+02</pdfrwt>
<totfact> 0.44831038E+04</totfact>
</mgrwt>
</event>
<event>
 6    1  0.1535419E-002  0.9346231E+02  0.7546771E-02  0.1390808E+00
          1   -1    0    0  501    0  0.00000000000E+00  0.00000000000E+00  0.86903709093E+02  0.86903709093E+02  0.00000000000E+00 0. -1.
         -1   -1    0    0    0  501 -0.00000000000E+00 -0.00000000000E+00 -0.37782477255E+02  0.37782477255E+02  0.00000000000E+00 0.  1.
         23    2    1    2    0    0 -0.52346777581E+01  0.16969286480E+02  0.51592557709E+02  0.10675671378E+03  0.91759715518E+02 0.  0.
         13    1    3    3    0    0 -0.34634790258E+02  0.28159166512E+02 -0.19244093425E+01  0.44678973872E+02  0.00000000000E+00 0.  1.
        -13    1    3    3    0    0  0.29400112500E+02 -0.11189880032E+02  0.53516967052E+02  0.62077739912E+02  0.00000000000E+00 0. -1.
         22    1    1    2    0    0  0.52346777581E+01 -0.16969286480E+02 -0.24713258708E+01  0.17929472565E+02  0.00000000000E+00 0.  1.
<mgrwt>
<rscale>  0 0.61706081E+02</rscale>
<asrwt>0</asrwt>
<pdfrwt beam="1">  1        1 0.13369801E-01 0.93462313E+02</pdfrwt>
<pdfrwt beam="2">  1       -1 0.58126888E-02 0.93462313E+02</pdfrwt>
<totfact> 0.52542563E+04</totfact>
</mgrwt>
</event>
<event>
 6    1  0.1535419E-002  0.9068854E+02  0.7546771E-02  0.1386704E+00
         -4   -1    0    0    0  501 -0.00000000000E+00  0.00000000000E+00  0.48378110405E+02  0.48378110405E+02  0.00000000000E+00 0.  1.
          4   -1    0    0  501    0  0.00000000000E+00 -0.00000000000E+00 -0.10749338588E+03  0.10749338588E+03  0.00000000000E+00 0. -1.
         23    2    1    2    0    0 -0.50380798539E+01  0.20145489063E+02 -0.83893907180E+02  0.12354188807E+03  0.88279031875E+02 0.  0.
         13    1    3    3    0    0 -0.41591829896E+02  0.31322604452E+02 -0.42615764816E+02  0.67283647899E+02  0.00000000000E+00 0.  1.
        -13    1    3    3    0    0  0.36553750042E+02 -0.11177115389E+02 -0.41278142365E+02  0.56258240175E+02  0.00000000000E+00 0. -1.
         22    1    1    2    0    0  0.50380798539E+01 -0.20145489063E+02  0.24778631702E+02  0.32329608213E+02  0.00000000000E+00 0.  1.
<mgrwt>
<rscale>  0 0.62733863E+02</rscale>
<asrwt>0</asrwt>
<pdfrwt beam="1">  1        4 0.16537444E-01 0.90688535E+02</pdfrwt>
<pdfrwt beam="2">  1       -4 0.74427864E-02 0.90688535E+02</pdfrwt>
<totfact> 0.57821601E+03</totfact>
</mgrwt>
</event>
<event>
 6    1  0.1535419E-002  0.9612700E+02  0.7546771E-02  0.1349758E+00
          2   -1    0    0  501    0  0.00000000000E+00  0.00000000000E+00  0.15801200754E+04  0.15801200754E+04  0.00000000000E+00 0. -1.
         -2   -1    0    0    0  501 -0.00000000000E+00 -0.00000000000E+00 -0.47629364625E+01  0.47629364625E+01  0.00000000000E+00 0.  1.
         23    2    1    2    0    0  0.20354301081E+02  0.24952715952E+02  0.14981356337E+04  0.15012164327E+04  0.90572982091E+02 0.  0.
         11    1    3    3    0    0 -0.12830695373E+02  0.12317224214E+02  0.12864703515E+04  0.12865932947E+04  0.00000000000E+00 0. -1.
        -11    1    3    3    0    0  0.33184996454E+02  0.12635491738E+02  0.21166528224E+03  0.21462313796E+03  0.00000000000E+00 0.  1.
         22    1    1    2    0    0 -0.20354301081E+02 -0.24952715952E+02  0.77221505203E+02  0.83666579180E+02  0.00000000000E+00 0.  1.
<mgrwt>
<rscale>  0 0.73131255E+02</rscale>
<asrwt>0</asrwt>
<pdfrwt beam="1">  1        2 0.24309498E+00 0.96127003E+02</pdfrwt>
<pdfrwt beam="2">  1       -2 0.73276072E-03 0.96127003E+02</pdfrwt>
<totfact> 0.38432223E+04</totfact>
</mgrwt>
</event>
<event>
 6    1  0.1535419E-002  0.7042059E+02  0.7546771E-02  0.1421804E+00
         -2   -1    0    0    0  501 -0.00000000000E+00  0.00000000000E+00  0.98217711467E+02  0.98217711467E+02  0.00000000000E+00 0.  1.
          2   -1    0    0  501    0  0.00000000000E+00 -0.00000000000E+00 -0.92997603128E+02  0.92997603128E+02  0.00000000000E+00 0. -1.
         23    2    1    2    0    0  0.40697037168E+01 -0.25199106068E+02 -0.77459330621E+02  0.10468527899E+03  0.65631564831E+02 0.  0.
         11    1    3    3    0    0  0.14498865848E+02  0.63825439224E+01 -0.68405525404E+02  0.70215880566E+02  0.00000000000E+00 0. -1.
        -11    1    3    3    0    0 -0.10429162132E+02 -0.31581649990E+02 -0.90538052171E+01  0.34469398425E+02  0.00000000000E+00 0.  1.
         22    1    1    2    0    0 -0.40697037168E+01  0.25199106068E+02  0.82679438960E+02  0.86530035605E+02  0.00000000000E+00 0.  1.
<mgrwt>
<rscale>  0 0.54641025E+02</rscale>
<asrwt>0</asrwt>
<pdfrwt beam="1">  1        2 0.14307324E-01 0.70420592E+02</pdfrwt>
<pdfrwt beam="2">  1       -2 0.15110417E-01 0.70420592E+02</pdfrwt>
<totfact> 0.12214592E+04</totfact>
</mgrwt>
</event>
<event>
 6    1  0.1535419E-002  0.8995928E+02  0.7546771E-02  0.1407113E+00
          2   -1    0    0  501    0  0.00000000000E+00  0.00000000000E+00  0.58010643298E+03  0.58010643298E+03  0.00000000000E+00 0. -1.
         -2   -1    0    0    0  501 -0.00000000000E+00 -0.00000000000E+00 -0.37542499429E+02  0.37542499429E+02  0.00000000000E+00 0.  1.
         23    2    1    2    0    0 -0.10164483666E+02 -0.11538054441E+02  0.57487209788E+03  0.58186819862E+03  0.88635366614E+02 0.  0.
         11    1    3    3    0    0  0.31934095937E+02  0.79428072920E+00  0.41056614339E+03  0.41180696383E+03  0.00000000000E+00 0. -1.
        -11    1    3    3    0    0 -0.42098579603E+02 -0.12332335170E+02  0.16430595449E+03  0.17006123478E+03  0.00000000000E+00 0.  1.
         22    1    1    2    0    0  0.10164483666E+02  0.11538054441E+02 -0.32308164327E+02  0.35780733791E+02  0.00000000000E+00 0.  1.
<mgrwt>
<rscale>  0 0.57842942E+02</rscale>
<asrwt>0</asrwt>
<pdfrwt beam="1">  1        2 0.89247137E-01 0.89959278E+02</pdfrwt>
<pdfrwt beam="2">  1       -2 0.57757696E-02 0.89959278E+02</pdfrwt>
<totfact> 0.76861642E+03</totfact>
</mgrwt>
</event>
<event>
 6    1  0.1535419E-002  0.9200315E+02  0.7546771E-02  0.1428696E+00
          2   -1    0    0  501    0  0.00000000000E+00  0.00000000000E+00  0.11479273586E+03  0.11479273586E+03  0.00000000000E+00 0. -1.
         -2   -1    0    0    0  501 -0.00000000000E+00 -0.00000000000E+00 -0.23830593973E+02  0.23830593973E+02  0.00000000000E+00 0.  1.
         23    2    1    2    0    0  0.74710227222E+01  0.70952855252E+01  0.89247306620E+02  0.12817823926E+03  0.91424395122E+02 0.  0.
         11    1    3    3    0    0  0.44603865283E+02 -0.15783742463E+02  0.56151205450E+02  0.73427441722E+02  0.00000000000E+00 0. -1.
        -11    1    3    3    0    0 -0.37132842561E+02  0.22879027988E+02  0.33096101170E+02  0.54750797537E+02  0.00000000000E+00 0.  1.
         22    1    1    2    0    0 -0.74710227222E+01 -0.70952855252E+01  0.17148352719E+01  0.10445090579E+02  0.00000000000E+00 0.  1.
<mgrwt>
<rscale>  0 0.53222681E+02</rscale>
<asrwt>0</asrwt>
<pdfrwt beam="1">  1        2 0.17660421E-01 0.92003148E+02</pdfrwt>
<pdfrwt beam="2">  1       -2 0.36662453E-02 0.92003148E+02</pdfrwt>
<totfact> 0.85900114E+04</totfact>
</mgrwt>
</event>
<event>
 6    1  0.1535419E-002  0.9207218E+02  0.7546771E-02  0.1418134E+00
          4   -1    0    0  501    0  0.00000000000E+00  0.00000000000E+00  0.50493572545E+02  0.50493572545E+02  0.00000000000E+00 0. -1.
         -4   -1    0    0    0  501 -0.00000000000E+00 -0.00000000000E+00 -0.54212792239E+02  0.54212792239E+02  0.00000000000E+00 0.  1.
         23    2    1    2    0    0  0.11243494573E+02 -0.44279057306E+01 -0.65176623214E+01  0.92302583082E+02  0.91275760212E+02 0.  0.
         11    1    3    3    0    0  0.41253983650E+02  0.23953677504E+02  0.82981370681E+01  0.48420335725E+02  0.00000000000E+00 0.  1.
        -11    1    3    3    0    0 -0.30010489077E+02 -0.28381583234E+02 -0.14815799389E+02  0.43882247357E+02  0.00000000000E+00 0. -1.
         22    1    1    2    0    0 -0.11243494573E+02  0.44279057306E+01  0.27984426271E+01  0.12403781702E+02  0.00000000000E+00 0. -1.
<mgrwt>
<rscale>  0 0.55417740E+02</rscale>
<asrwt>0</asrwt>
<pdfrwt beam="1">  1        4 0.77682419E-02 0.92072183E+02</pdfrwt>
<pdfrwt beam="2">  1       -4 0.83404296E-02 0.92072183E+02</pdfrwt>
<totfact> 0.17268852E+04</totfact>
</mgrwt>
</event>
<event>
 6    1  0.1535419E-002  0.9244744E+02  0.7546771E-02  0.1401801E+00
          2   -1    0    0  501    0  0.00000000000E+00  0.00000000000E+00  0.35854390934E+03  0.35854390934E+03  0.00000000000E+00 0.  1.
         -2   -1    0    0    0  501 -0.00000000000E+00 -0.00000000000E+00 -0.84090901856E+01  0.84090901856E+01  0.00000000000E+00 0. -1.
         23    2    1    2    0    0 -0.55743339279E-01 -0.15403202605E+02  0.32032703511E+03  0.33340056672E+03  0.91155179263E+02 0.  0.
         13    1    3    3    0    0  0.14843498541E+02  0.11715615209E+02  0.28811457651E+03  0.28873447021E+03  0.00000000000E+00 0.  1.
        -13    1    3    3    0    0 -0.14899241880E+02 -0.27118817814E+02  0.32212458600E+02  0.44666096508E+02  0.00000000000E+00 0. -1.
         22    1    1    2    0    0  0.55743339279E-01  0.15403202605E+02  0.29807784045E+02  0.33552432810E+02  0.00000000000E+00 0. -1.
<mgrwt>
<rscale>  0 0.59064240E+02</rscale>
<asrwt>0</asrwt>
<pdfrwt beam="1">  1        2 0.55160590E-01 0.92447436E+02</pdfrwt>
<pdfrwt beam="2">  1       -2 0.12937065E-02 0.92447436E+02</pdfrwt>
<totfact> 0.11347465E+05</totfact>
</mgrwt>
</event>
<event>
 6    1  0.1535419E-002  0.9386573E+02  0.7546771E-02  0.1372198E+00
          2   -1    0    0  501    0  0.00000000000E+00  0.00000000000E+00  0.16874166031E+02  0.16874166031E+02  0.00000000000E+00 0. -1.
         -2   -1    0    0    0  501 -0.00000000000E+00 -0.00000000000E+00 -0.21633568034E+03  0.21633568034E+03  0.00000000000E+00 0.  1.
         23    2    1    2    0    0  0.12172664866E+02 -0.20371862280E+02 -0.13421649473E+03  0.16378291267E+03  0.90816234693E+02 0.  0.
         13    1    3    3    0    0  0.82445876112E+00  0.37261306848E+01  0.13322733356E+02  0.13858535500E+02  0.00000000000E+00 0. -1.
        -13    1    3    3    0    0  0.11348206105E+02 -0.24097992965E+02 -0.14753922809E+03  0.14992437717E+03  0.00000000000E+00 0.  1.
         22    1    1    2    0    0 -0.12172664866E+02  0.20371862280E+02 -0.65245019581E+02  0.69426933699E+02  0.00000000000E+00 0.  1.
<mgrwt>
<rscale>  0 0.66559772E+02</rscale>
<asrwt>0</asrwt>
<pdfrwt beam="1">  1        2 0.25960255E-02 0.93865729E+02</pdfrwt>
<pdfrwt beam="2">  1       -2 0.33282413E-01 0.93865729E+02</pdfrwt>
<totfact> 0.28261129E+04</totfact>
</mgrwt>
</event>
<event>
 6    1  0.1535419E-002  0.9662803E+02  0.7546771E-02  0.1356102E+00
         -2   -1    0    0    0  501 -0.00000000000E+00  0.00000000000E+00  0.40506569668E+02  0.40506569668E+02  0.00000000000E+00 0.  1.
          2   -1    0    0  501    0  0.00000000000E+00 -0.00000000000E+00 -0.97575243932E+02  0.97575243932E+02  0.00000000000E+00 0. -1.
         23    2    1    2    0    0  0.12288216923E+02  0.25674938165E+02 -0.38056247288E+02  0.10385207354E+03  0.92340524671E+02 0.  0.
         11    1    3    3    0    0 -0.35760866169E+02  0.23813512331E+02 -0.71417320805E+00  0.42970140355E+02  0.00000000000E+00 0. -1.
        -11    1    3    3    0    0  0.48049083092E+02  0.18614258335E+01 -0.37342074080E+02  0.60881933188E+02  0.00000000000E+00 0.  1.
         22    1    1    2    0    0 -0.12288216923E+02 -0.25674938165E+02 -0.19012426975E+02  0.34229740057E+02  0.00000000000E+00 0.  1.
<mgrwt>
<rscale>  0 0.71187139E+02</rscale>
<asrwt>0</asrwt>
<pdfrwt beam="1">  1        2 0.15011576E-01 0.96628025E+02</pdfrwt>
<pdfrwt beam="2">  1       -2 0.62317799E-02 0.96628025E+02</pdfrwt>
<totfact> 0.47412917E+04</totfact>
</mgrwt>
</event>
<event>
 6    1  0.1535419E-002  0.9132747E+02  0.7546771E-02  0.1431083E+00
          2   -1    0    0  501    0  0.00000000000E+00  0.00000000000E+00  0.12764293263E+04  0.12764293263E+04  0.00000000000E+00 0. -1.
         -2   -1    0    0    0  501 -0.00000000000E+00 -0.00000000000E+00 -0.41457950073E+01  0.41457950073E+01  0.00000000000E+00 0.  1.
         23    2    1    2    0    0 -0.63622108645E+00 -0.10139354488E+02  0.12644566083E+04  0.12677504571E+04  0.90760653196E+02 0.  0.
         11    1    3    3    0    0  0.14738268984E+01 -0.50316879852E+02  0.62070854891E+03  0.62274638758E+03  0.00000000000E+00 0.  1.
        -11    1    3    3    0    0 -0.21100479849E+01  0.40177525364E+02  0.64374805934E+03  0.64500406957E+03  0.00000000000E+00 0. -1.
         22    1    1    2    0    0  0.63622108645E+00  0.10139354488E+02  0.78269230676E+01  0.12824664183E+02  0.00000000000E+00 0.  1.
<mgrwt>
<rscale>  0 0.52743262E+02</rscale>
<asrwt>0</asrwt>
<pdfrwt beam="1">  1        2 0.19637343E+00 0.91327474E+02</pdfrwt>
<pdfrwt beam="2">  1       -2 0.63781563E-03 0.91327474E+02</pdfrwt>
<totfact> 0.66785649E+04</totfact>
</mgrwt>
</event>
<event>
 6    1  0.1535419E-002  0.9714983E+02  0.7546771E-02  0.1359267E+00
          2   -1    0    0  501    0  0.00000000000E+00  0.00000000000E+00  0.63481571964E+03  0.63481571964E+03  0.00000000000E+00 0. -1.
         -2   -1    0    0    0  501 -0.00000000000E+00 -0.00000000000E+00 -0.53614703679E+02  0.53614703679E+02  0.00000000000E+00 0.  1.
         23    2    1    2    0    0  0.33726563421E+01  0.26337179698E+02  0.62754425160E+03  0.63501958795E+03  0.93450882928E+02 0.  0.
         13    1    3    3    0    0  0.25030911541E+02 -0.16935674991E+02  0.44955207271E+03  0.45056678716E+03  0.00000000000E+00 0. -1.
        -13    1    3    3    0    0 -0.21658255199E+02  0.43272854689E+02  0.17799217890E+03  0.18445280079E+03  0.00000000000E+00 0.  1.
         22    1    1    2    0    0 -0.33726563421E+01 -0.26337179698E+02 -0.46343235638E+02  0.53410835368E+02  0.00000000000E+00 0.  1.
<mgrwt>
<rscale>  0 0.70243615E+02</rscale>
<asrwt>0</asrwt>
<pdfrwt beam="1">  1        2 0.97663951E-01 0.97149829E+02</pdfrwt>
<pdfrwt beam="2">  1       -2 0.82484164E-02 0.97149829E+02</pdfrwt>
<totfact> 0.40672279E+03</totfact>
</mgrwt>
</event>
<event>
 6    1  0.1535419E-002  0.9326683E+02  0.7546771E-02  0.1396940E+00
          2   -1    0    0  501    0  0.00000000000E+00  0.00000000000E+00  0.22593268852E+03  0.22593268852E+03  0.00000000000E+00 0. -1.
         -2   -1    0    0    0  501 -0.00000000000E+00 -0.00000000000E+00 -0.13689667728E+02  0.13689667728E+02  0.00000000000E+00 0.  1.
         23    2    1    2    0    0 -0.14048991191E+02  0.80712388869E+01  0.19378934711E+03  0.21506513484E+03  0.91848691455E+02 0.  0.
         13    1    3    3    0    0 -0.36723651838E+02 -0.16157839684E+02  0.36260044640E+02  0.54078583791E+02  0.00000000000E+00 0.  1.
        -13    1    3    3    0    0  0.22674660647E+02  0.24229078571E+02  0.15752930246E+03  0.16098655105E+03  0.00000000000E+00 0. -1.
         22    1    1    2    0    0  0.14048991191E+02 -0.80712388869E+01  0.18453673686E+02  0.24557221405E+02  0.00000000000E+00 0.  1.
<mgrwt>
<rscale>  0 0.60213034E+02</rscale>
<asrwt>0</asrwt>
<pdfrwt beam="1">  1        2 0.34758872E-01 0.93266828E+02</pdfrwt>
<pdfrwt beam="2">  1       -2 0.21061029E-02 0.93266828E+02</pdfrwt>
<totfact> 0.91843108E+04</totfact>
</mgrwt>
</event>
<event>
 6    1  0.1535419E-002  0.1238223E+03  0.7546771E-02  0.1369587E+00
         -2   -1    0    0    0  501 -0.00000000000E+00  0.00000000000E+00  0.21087920135E+01  0.21087920135E+01  0.00000000000E+00 0.  1.
          2   -1    0    0  501    0  0.00000000000E+00 -0.00000000000E+00 -0.25139409514E+04  0.25139409514E+04  0.00000000000E+00 0. -1.
         23    2    1    2    0    0  0.95048014954E+01 -0.51166047238E+01 -0.24595508317E+04  0.24626656810E+04  0.12335088872E+03 0.  0.
         13    1    3    3    0    0 -0.45941307673E+02 -0.36547013399E+02 -0.99705585854E+03  0.99878259546E+03  0.00000000000E+00 0. -1.
        -13    1    3    3    0    0  0.55446109168E+02  0.31430408676E+02 -0.14624949732E+04  0.14638830856E+04  0.00000000000E+00 0.  1.
         22    1    1    2    0    0 -0.95048014954E+01  0.51166047238E+01 -0.52281327655E+02  0.53384062385E+02  0.00000000000E+00 0.  1.
<mgrwt>
<rscale>  0 0.67282115E+02</rscale>
<asrwt>0</asrwt>
<pdfrwt beam="1">  1        2 0.38675984E+00 0.12382230E+03</pdfrwt>
<pdfrwt beam="2">  1       -2 0.32442980E-03 0.12382230E+03</pdfrwt>
<totfact> 0.40977313E+04</totfact>
</mgrwt>
</event>
<event>
 6    1  0.1535419E-002  0.8751145E+02  0.7546771E-02  0.1401560E+00
         -1   -1    0    0    0  501 -0.00000000000E+00  0.00000000000E+00  0.25747676391E+01  0.25747676391E+01  0.00000000000E+00 0.  1.
          1   -1    0    0  501    0  0.00000000000E+00 -0.00000000000E+00 -0.12684418026E+04  0.12684418026E+04  0.00000000000E+00 0. -1.
         23    2    1    2    0    0  0.28913867063E+01  0.17998177161E+02 -0.11797552041E+04  0.11829964480E+04  0.85591821880E+02 0.  0.
         13    1    3    3    0    0  0.97016592628E+01 -0.23425915871E+02 -0.87456788076E+03  0.87493535406E+03  0.00000000000E+00 0. -1.
        -13    1    3    3    0    0 -0.68102725565E+01  0.41424093033E+02 -0.30518732332E+03  0.30806109396E+03  0.00000000000E+00 0.  1.
         22    1    1    2    0    0 -0.28913867063E+01 -0.17998177161E+02 -0.86111830923E+02  0.88020122263E+02  0.00000000000E+00 0.  1.
<mgrwt>
<rscale>  0 0.59120632E+02</rscale>
<asrwt>0</asrwt>
<pdfrwt beam="1">  1        1 0.19514498E+00 0.87511453E+02</pdfrwt>
<pdfrwt beam="2">  1       -1 0.39611792E-03 0.87511453E+02</pdfrwt>
<totfact> 0.65660492E+04</totfact>
</mgrwt>
</event>
<event>
 6    1  0.1535419E-002  0.9327471E+02  0.7546771E-02  0.1407117E+00
         -2   -1    0    0    0  501 -0.00000000000E+00  0.00000000000E+00  0.16665578245E+02  0.16665578245E+02  0.00000000000E+00 0.  1.
          2   -1    0    0  501    0  0.00000000000E+00 -0.00000000000E+00 -0.17552129522E+03  0.17552129522E+03  0.00000000000E+00 0. -1.
         23    2    1    2    0    0  0.54450661590E+01  0.12673594906E+02 -0.12791947555E+03  0.15831476419E+03  0.92249138653E+02 0.  0.
         11    1    3    3    0    0 -0.16406978020E+02 -0.34541968571E+02 -0.74529259444E+02  0.83767219327E+02  0.00000000000E+00 0. -1.
        -11    1    3    3    0    0  0.21852044179E+02  0.47215563477E+02 -0.53390216107E+02  0.74547544863E+02  0.00000000000E+00 0.  1.
         22    1    1    2    0    0 -0.54450661590E+01 -0.12673594906E+02 -0.30936241424E+02  0.33872109276E+02  0.00000000000E+00 0.  1.
<mgrwt>
<rscale>  0 0.57842077E+02</rscale>
<asrwt>0</asrwt>
<pdfrwt beam="1">  1        2 0.27003277E-01 0.93274714E+02</pdfrwt>
<pdfrwt beam="2">  1       -2 0.25639350E-02 0.93274714E+02</pdfrwt>
<totfact> 0.90558378E+04</totfact>
</mgrwt>
</event>
<event>
 6    1  0.1535419E-002  0.1077664E+03  0.7546771E-02  0.1305242E+00
         -1   -1    0    0    0  501 -0.00000000000E+00  0.00000000000E+00  0.98411967142E+02  0.98411967142E+02  0.00000000000E+00 0.  1.
          1   -1    0    0  501    0  0.00000000000E+00 -0.00000000000E+00 -0.65300108879E+02  0.65300108879E+02  0.00000000000E+00 0. -1.
         23    2    1    2    0    0 -0.27312812658E+02 -0.42092077623E+02  0.92862473503E+01  0.10816576679E+03  0.95372249535E+02 0.  0.
         11    1    3    3    0    0 -0.52272918016E+02 -0.17536272384E+02 -0.23743382860E+02  0.60031050604E+02  0.00000000000E+00 0. -1.
        -11    1    3    3    0    0  0.24960105357E+02 -0.24555805239E+02  0.33029630210E+02  0.48134716185E+02  0.00000000000E+00 0.  1.
         22    1    1    2    0    0  0.27312812658E+02  0.42092077623E+02  0.23825610913E+02  0.55546309232E+02  0.00000000000E+00 0.  1.
<mgrwt>
<rscale>  0 0.89020240E+02</rscale>
<asrwt>0</asrwt>
<pdfrwt beam="1">  1        1 0.10046171E-01 0.10776641E+03</pdfrwt>
<pdfrwt beam="2">  1       -1 0.15140303E-01 0.10776641E+03</pdfrwt>
<totfact> 0.18266441E+04</totfact>
</mgrwt>
</event>
<event>
 6    1  0.1535419E-002  0.9906031E+02  0.7546771E-02  0.1338570E+00
         -2   -1    0    0    0  501 -0.00000000000E+00  0.00000000000E+00  0.94193385116E+01  0.94193385116E+01  0.00000000000E+00 0.  1.
          2   -1    0    0  501    0  0.00000000000E+00 -0.00000000000E+00 -0.53556903095E+03  0.53556903095E+03  0.00000000000E+00 0. -1.
         23    2    1    2    0    0  0.16265499130E+02 -0.31750600966E+02 -0.45167475859E+03  0.46241002548E+03  0.92413619074E+02 0.  0.
         11    1    3    3    0    0  0.23039138421E+02 -0.62374394723E+02 -0.27136479020E+03  0.27939258469E+03  0.00000000000E+00 0. -1.
        -11    1    3    3    0    0 -0.67736392918E+01  0.30623793757E+02 -0.18030996839E+03  0.18301744079E+03  0.00000000000E+00 0.  1.
         22    1    1    2    0    0 -0.16265499130E+02  0.31750600966E+02 -0.74474933850E+02  0.82578343987E+02  0.00000000000E+00 0.  1.
<mgrwt>
<rscale>  0 0.76738640E+02</rscale>
<asrwt>0</asrwt>
<pdfrwt beam="1">  1        2 0.82395258E-01 0.99060305E+02</pdfrwt>
<pdfrwt beam="2">  1       -2 0.14491286E-02 0.99060305E+02</pdfrwt>
<totfact> 0.63512638E+04</totfact>
</mgrwt>
</event>
<event>
 6    1  0.1535419E-002  0.9280495E+02  0.7546771E-02  0.1391229E+00
          2   -1    0    0  501    0  0.00000000000E+00  0.00000000000E+00  0.16546583095E+03  0.16546583095E+03  0.00000000000E+00 0.  1.
         -2   -1    0    0    0  501 -0.00000000000E+00 -0.00000000000E+00 -0.21156478505E+02  0.21156478505E+02  0.00000000000E+00 0. -1.
         23    2    1    2    0    0 -0.11584756800E+02  0.13797848522E+02  0.14021636944E+03  0.16814692790E+03  0.91039397446E+02 0.  0.
         11    1    3    3    0    0  0.69594920851E+01  0.49418481001E+02  0.97421197349E+02  0.10946008628E+03  0.00000000000E+00 0.  1.
        -11    1    3    3    0    0 -0.18544248885E+02 -0.35620632479E+02  0.42795172094E+02  0.58686841621E+02  0.00000000000E+00 0. -1.
         22    1    1    2    0    0  0.11584756800E+02 -0.13797848522E+02  0.40929830033E+01  0.18475381560E+02  0.00000000000E+00 0.  1.
<mgrwt>
<rscale>  0 0.61601997E+02</rscale>
<asrwt>0</asrwt>
<pdfrwt beam="1">  1        2 0.25456281E-01 0.92804952E+02</pdfrwt>
<pdfrwt beam="2">  1       -2 0.32548430E-02 0.92804952E+02</pdfrwt>
<totfact> 0.68206735E+04</totfact>
</mgrwt>
</event>
<event>
 6    1  0.1535419E-002  0.9435078E+02  0.7546771E-02  0.1414169E+00
         -2   -1    0    0    0  501 -0.00000000000E+00  0.00000000000E+00  0.13479082683E+03  0.13479082683E+03  0.00000000000E+00 0.  1.
          2   -1    0    0  501    0  0.00000000000E+00 -0.00000000000E+00 -0.21754504662E+02  0.21754504662E+02  0.00000000000E+00 0. -1.
         23    2    1    2    0    0 -0.11822653277E+02 -0.16674527595E+01  0.88985009357E+02  0.12969349399E+03  0.93592280472E+02 0.  0.
         11    1    3    3    0    0  0.19092621714E+02 -0.58575896587E+00  0.96076425874E+02  0.97956882995E+02  0.00000000000E+00 0.  1.
        -11    1    3    3    0    0 -0.30915274991E+02 -0.10816937936E+01 -0.70914165173E+01  0.31736610995E+02  0.00000000000E+00 0. -1.
         22    1    1    2    0    0  0.11822653277E+02  0.16674527595E+01  0.24051312808E+02  0.26851837498E+02  0.00000000000E+00 0.  1.
<mgrwt>
<rscale>  0 0.56273917E+02</rscale>
<asrwt>0</asrwt>
<pdfrwt beam="1">  1        2 0.33468470E-02 0.94350784E+02</pdfrwt>
<pdfrwt beam="2">  1       -2 0.20737050E-01 0.94350784E+02</pdfrwt>
<totfact> 0.46099762E+04</totfact>
</mgrwt>
</event>
<event>
 6    1  0.1535419E-002  0.9032964E+02  0.7546771E-02  0.1405970E+00
          1   -1    0    0  501    0  0.00000000000E+00  0.00000000000E+00  0.92212959692E+03  0.92212959692E+03  0.00000000000E+00 0. -1.
         -1   -1    0    0    0  501 -0.00000000000E+00 -0.00000000000E+00 -0.32228657923E+01  0.32228657923E+01  0.00000000000E+00 0.  1.
         23    2    1    2    0    0 -0.18125668300E+01 -0.15356607456E+02  0.84692941301E+03  0.85173286536E+03  0.88996250032E+02 0.  0.
         13    1    3    3    0    0  0.18050059555E+02 -0.13180347890E+02  0.52590662191E+02  0.57142838310E+02  0.00000000000E+00 0.  1.
        -13    1    3    3    0    0 -0.19862626385E+02 -0.21762595666E+01  0.79433875082E+03  0.79459002705E+03  0.00000000000E+00 0. -1.
         22    1    1    2    0    0  0.18125668300E+01  0.15356607456E+02  0.71977318113E+02  0.73619597348E+02  0.00000000000E+00 0.  1.
<mgrwt>
<rscale>  0 0.58102871E+02</rscale>
<asrwt>0</asrwt>
<pdfrwt beam="1">  1        1 0.14186588E+00 0.90329637E+02</pdfrwt>
<pdfrwt beam="2">  1       -1 0.49582624E-03 0.90329637E+02</pdfrwt>
<totfact> 0.83995120E+04</totfact>
</mgrwt>
</event>
<event>
 6    1  0.1535419E-002  0.9584157E+02  0.7546771E-02  0.1347327E+00
         -2   -1    0    0    0  501 -0.00000000000E+00  0.00000000000E+00  0.46906032335E+03  0.46906032335E+03  0.00000000000E+00 0.  1.
          2   -1    0    0  501    0  0.00000000000E+00 -0.00000000000E+00 -0.91597506258E+01  0.91597506258E+01  0.00000000000E+00 0. -1.
         23    2    1    2    0    0 -0.32873538793E+02  0.81517066237E+01  0.30696709314E+03  0.32158109718E+03  0.89657603801E+02 0.  0.
         13    1    3    3    0    0  0.12060181521E+02 -0.32838117012E+02  0.11646795033E+03  0.12160827835E+03  0.00000000000E+00 0. -1.
        -13    1    3    3    0    0 -0.44933720314E+02  0.40989823636E+02  0.19049914280E+03  0.19997281883E+03  0.00000000000E+00 0.  1.
         22    1    1    2    0    0  0.32873538793E+02 -0.81517066237E+01  0.15293347959E+03  0.15663897680E+03  0.00000000000E+00 0. -1.
<mgrwt>
<rscale>  0 0.73895251E+02</rscale>
<asrwt>0</asrwt>
<pdfrwt beam="1">  1        2 0.14091928E-02 0.95841566E+02</pdfrwt>
<pdfrwt beam="2">  1       -2 0.72163108E-01 0.95841566E+02</pdfrwt>
<totfact> 0.14195088E+04</totfact>
</mgrwt>
</event>
<event>
 6    1  0.1535419E-002  0.9571087E+02  0.7546771E-02  0.1378159E+00
         -2   -1    0    0    0  501 -0.00000000000E+00  0.00000000000E+00  0.29121313477E+01  0.29121313477E+01  0.00000000000E+00 0.  1.
          2   -1    0    0  501    0  0.00000000000E+00 -0.00000000000E+00 -0.12469231055E+04  0.12469231055E+04  0.00000000000E+00 0. -1.
         23    2    1    2    0    0 -0.21967658508E+01 -0.20178022122E+02 -0.11287656608E+04  0.11328161760E+04  0.93533914710E+02 0.  0.
         11    1    3    3    0    0 -0.18339326308E+02 -0.18748651954E+01 -0.10541434787E+04  0.10543046618E+04  0.00000000000E+00 0. -1.
        -11    1    3    3    0    0  0.16142560457E+02 -0.18303156927E+02 -0.74622182039E+02  0.78511514212E+02  0.00000000000E+00 0.  1.
         22    1    1    2    0    0  0.21967658508E+01  0.20178022122E+02 -0.11524531335E+03  0.11701906087E+03  0.00000000000E+00 0.  1.
<mgrwt>
<rscale>  0 0.64950166E+02</rscale>
<asrwt>0</asrwt>
<pdfrwt beam="1">  1        2 0.19183431E+00 0.95710875E+02</pdfrwt>
<pdfrwt beam="2">  1       -2 0.44802024E-03 0.95710875E+02</pdfrwt>
<totfact> 0.11432722E+05</totfact>
</mgrwt>
</event>
<event>
 6    1  0.1535419E-002  0.1024445E+03  0.7546771E-02  0.1387472E+00
          2   -1    0    0  501    0  0.00000000000E+00  0.00000000000E+00  0.34604267397E+03  0.34604267397E+03  0.00000000000E+00 0.  1.
         -2   -1    0    0    0  501 -0.00000000000E+00 -0.00000000000E+00 -0.11104445028E+02  0.11104445028E+02  0.00000000000E+00 0. -1.
         23    2    1    2    0    0 -0.92481165861E+01 -0.10813118159E+02  0.32204278877E+03  0.33794442226E+03  0.10145158232E+03 0.  0.
         11    1    3    3    0    0  0.31118444044E+02  0.31184551252E+02  0.14741603430E+03  0.15385811959E+03  0.00000000000E+00 0. -1.
        -11    1    3    3    0    0 -0.40366560630E+02 -0.41997669411E+02  0.17462675447E+03  0.18408630267E+03  0.00000000000E+00 0.  1.
         22    1    1    2    0    0  0.92481165861E+01  0.10813118159E+02  0.12895440172E+02  0.19202696736E+02  0.00000000000E+00 0. -1.
<mgrwt>
<rscale>  0 0.62539804E+02</rscale>
<asrwt>0</asrwt>
<pdfrwt beam="1">  1        2 0.53237326E-01 0.10244450E+03</pdfrwt>
<pdfrwt beam="2">  1       -2 0.17083764E-02 0.10244450E+03</pdfrwt>
<totfact> 0.80341476E+04</totfact>
</mgrwt>
</event>
<event>
 6    1  0.1535419E-002  0.8479296E+02  0.7546771E-02  0.1436368E+00
         -2   -1    0    0    0  501 -0.00000000000E+00  0.00000000000E+00  0.85621227838E+01  0.85621227838E+01  0.00000000000E+00 0. -1.
          2   -1    0    0  501    0  0.00000000000E+00 -0.00000000000E+00 -0.59245066854E+03  0.59245066854E+03  0.00000000000E+00 0.  1.
         23    2    1    2    0    0  0.98960460568E+01  0.62815173502E+01 -0.58313468198E+03  0.58926726033E+03  0.83978911546E+02 0.  0.
         13    1    3    3    0    0  0.38891766271E+02 -0.10351888342E+02 -0.16655211992E+03  0.17134567321E+03  0.00000000000E+00 0. -1.
        -13    1    3    3    0    0 -0.28995720215E+02  0.16633405693E+02 -0.41658256205E+03  0.41792158712E+03  0.00000000000E+00 0.  1.
         22    1    1    2    0    0 -0.98960460568E+01 -0.62815173502E+01 -0.75386378132E+00  0.11745530996E+02  0.00000000000E+00 0. -1.
<mgrwt>
<rscale>  0 0.51702784E+02</rscale>
<asrwt>0</asrwt>
<pdfrwt beam="1">  1        2 0.91146255E-01 0.84792964E+02</pdfrwt>
<pdfrwt beam="2">  1       -2 0.13172497E-02 0.84792964E+02</pdfrwt>
<totfact> 0.63789747E+04</totfact>
</mgrwt>
</event>
<event>
 6    1  0.1535419E-002  0.1028123E+03  0.7546771E-02  0.1353391E+00
         -2   -1    0    0    0  501 -0.00000000000E+00  0.00000000000E+00  0.18178981055E+02  0.18178981055E+02  0.00000000000E+00 0.  1.
          2   -1    0    0  501    0  0.00000000000E+00 -0.00000000000E+00 -0.23927507516E+03  0.23927507516E+03  0.00000000000E+00 0. -1.
         23    2    1    2    0    0 -0.10558583069E+02  0.22374850922E+02 -0.20025297750E+03  0.22510358265E+03  0.99791033131E+02 0.  0.
         13    1    3    3    0    0 -0.12358170435E+02 -0.30820431706E+02 -0.14352091054E+03  0.14731216904E+03  0.00000000000E+00 0.  1.
        -13    1    3    3    0    0  0.17995873660E+01  0.53195282629E+02 -0.56732066960E+02  0.77791413602E+02  0.00000000000E+00 0. -1.
         22    1    1    2    0    0  0.10558583069E+02 -0.22374850922E+02 -0.20843116607E+02  0.32350473569E+02  0.00000000000E+00 0.  1.
<mgrwt>
<rscale>  0 0.72009227E+02</rscale>
<asrwt>0</asrwt>
<pdfrwt beam="1">  1        2 0.36811553E-01 0.10281229E+03</pdfrwt>
<pdfrwt beam="2">  1       -2 0.27967661E-02 0.10281229E+03</pdfrwt>
<totfact> 0.58118144E+04</totfact>
</mgrwt>
</event>
<event>
 6    1  0.1535419E-002  0.9391185E+02  0.7546771E-02  0.1404639E+00
          1   -1    0    0  501    0  0.00000000000E+00  0.00000000000E+00  0.14163805772E+03  0.14163805772E+03  0.00000000000E+00 0. -1.
         -1   -1    0    0    0  501 -0.00000000000E+00 -0.00000000000E+00 -0.20573639501E+02  0.20573639501E+02  0.00000000000E+00 0.  1.
         23    2    1    2    0    0 -0.12047732725E+02 -0.72311092040E+01  0.10537191992E+03  0.14114771595E+03  0.92854722043E+02 0.  0.
         11    1    3    3    0    0  0.19377008217E+01  0.12092090323E+02 -0.14469049015E+02  0.18955914968E+02  0.00000000000E+00 0.  1.
        -11    1    3    3    0    0 -0.13985433547E+02 -0.19323199527E+02  0.11984096894E+03  0.12219180098E+03  0.00000000000E+00 0. -1.
         22    1    1    2    0    0  0.12047732725E+02  0.72311092040E+01  0.15692498293E+02  0.21063981267E+02  0.00000000000E+00 0.  1.
<mgrwt>
<rscale>  0 0.58407528E+02</rscale>
<asrwt>0</asrwt>
<pdfrwt beam="1">  1        1 0.21790470E-01 0.93911853E+02</pdfrwt>
<pdfrwt beam="2">  1       -1 0.31651754E-02 0.93911853E+02</pdfrwt>
<totfact> 0.68579633E+04</totfact>
</mgrwt>
</event>
<event>
 6    1  0.1535419E-002  0.9384517E+02  0.7546771E-02  0.1423836E+00
          2   -1    0    0  501    0  0.00000000000E+00  0.00000000000E+00  0.27685125885E+03  0.27685125885E+03  0.00000000000E+00 0.  1.
         -2   -1    0    0    0  501 -0.00000000000E+00 -0.00000000000E+00 -0.10572049138E+02  0.10572049138E+02  0.00000000000E+00 0. -1.
         23    2    1    2    0    0  0.11876693021E+01  0.10387230760E+02  0.25641815351E+03  0.27305161530E+03  0.93260978169E+02 0.  0.
         11    1    3    3    0    0 -0.40755733788E+02  0.19694225230E+01  0.18786761494E+03  0.19224762470E+03  0.00000000000E+00 0.  1.
        -11    1    3    3    0    0  0.41943403090E+02  0.84178082371E+01  0.68550538567E+02  0.80803990595E+02  0.00000000000E+00 0. -1.
         22    1    1    2    0    0 -0.11876693021E+01 -0.10387230760E+02  0.98610562094E+01  0.14371692691E+02  0.00000000000E+00 0. -1.
<mgrwt>
<rscale>  0 0.54217438E+02</rscale>
<asrwt>0</asrwt>
<pdfrwt beam="1">  1        2 0.42592496E-01 0.93845166E+02</pdfrwt>
<pdfrwt beam="2">  1       -2 0.16264693E-02 0.93845166E+02</pdfrwt>
<totfact> 0.10754245E+05</totfact>
</mgrwt>
</event>
<event>
 6    1  0.1535419E-002  0.9041327E+02  0.7546771E-02  0.1418295E+00
          2   -1    0    0  501    0  0.00000000000E+00  0.00000000000E+00  0.30308801049E+02  0.30308801049E+02  0.00000000000E+00 0. -1.
         -2   -1    0    0    0  501 -0.00000000000E+00 -0.00000000000E+00 -0.11339273126E+03  0.11339273126E+03  0.00000000000E+00 0.  1.
         23    2    1    2    0    0 -0.51097402796E+01  0.11659064122E+02 -0.40162535192E+02  0.98932241804E+02  0.89512658397E+02 0.  0.
         11    1    3    3    0    0  0.34075421936E+02  0.24920686800E+02 -0.13967546854E+01  0.42238914928E+02  0.00000000000E+00 0. -1.
        -11    1    3    3    0    0 -0.39185162215E+02 -0.13261622678E+02 -0.38765780507E+02  0.56693326875E+02  0.00000000000E+00 0.  1.
         22    1    1    2    0    0  0.51097402796E+01 -0.11659064122E+02 -0.42921395016E+02  0.44769290502E+02  0.00000000000E+00 0.  1.
<mgrwt>
<rscale>  0 0.55383193E+02</rscale>
<asrwt>0</asrwt>
<pdfrwt beam="1">  1        2 0.46628925E-02 0.90413269E+02</pdfrwt>
<pdfrwt beam="2">  1       -2 0.17445036E-01 0.90413269E+02</pdfrwt>
<totfact> 0.39587085E+04</totfact>
</mgrwt>
</event>
<event>
 6    1  0.1535419E-002  0.9216839E+02  0.7546771E-02  0.1412546E+00
          2   -1    0    0  501    0  0.00000000000E+00  0.00000000000E+00  0.64555407613E+03  0.64555407613E+03  0.00000000000E+00 0. -1.
         -2   -1    0    0    0  501 -0.00000000000E+00 -0.00000000000E+00 -0.42958790314E+01  0.42958790314E+01  0.00000000000E+00 0.  1.
         23    2    1    2    0    0 -0.35522193935E+01  0.12645514495E+02  0.56530795898E+03  0.57277229322E+03  0.91227649863E+02 0.  0.
         11    1    3    3    0    0  0.38783144548E+02  0.11369398267E+02  0.15134936428E+03  0.15665256329E+03  0.00000000000E+00 0.  1.
        -11    1    3    3    0    0 -0.42335363942E+02  0.12761162281E+01  0.41395859470E+03  0.41611972993E+03  0.00000000000E+00 0. -1.
         22    1    1    2    0    0  0.35522193935E+01 -0.12645514495E+02  0.75950238125E+02  0.77077661944E+02  0.00000000000E+00 0.  1.
<mgrwt>
<rscale>  0 0.56629629E+02</rscale>
<asrwt>0</asrwt>
<pdfrwt beam="1">  1        2 0.99315935E-01 0.92168386E+02</pdfrwt>
<pdfrwt beam="2">  1       -2 0.66090498E-03 0.92168386E+02</pdfrwt>
<totfact> 0.15529325E+05</totfact>
</mgrwt>
</event>
<event>
 6    1  0.1535419E-002  0.9817765E+02  0.7546771E-02  0.1340231E+00
         -2   -1    0    0    0  501 -0.00000000000E+00  0.00000000000E+00  0.42388033080E+02  0.42388033080E+02  0.00000000000E+00 0.  1.
          2   -1    0    0  501    0  0.00000000000E+00 -0.00000000000E+00 -0.15892594600E+03  0.15892594600E+03  0.00000000000E+00 0. -1.
         23    2    1    2    0    0  0.31162941673E+02  0.17221463949E+02 -0.13029566424E+03  0.16314352617E+03  0.91493946564E+02 0.  0.
         13    1    3    3    0    0 -0.22794503432E+02  0.33981870126E+02 -0.64877649498E+02  0.76703756677E+02  0.00000000000E+00 0. -1.
        -13    1    3    3    0    0  0.53957445105E+02 -0.16760406178E+02 -0.65418014740E+02  0.86439769493E+02  0.00000000000E+00 0.  1.
         22    1    1    2    0    0 -0.31162941673E+02 -0.17221463949E+02  0.13757751316E+02  0.38170452912E+02  0.00000000000E+00 0.  1.
<mgrwt>
<rscale>  0 0.76188049E+02</rscale>
<asrwt>0</asrwt>
<pdfrwt beam="1">  1        2 0.24450146E-01 0.98177645E+02</pdfrwt>
<pdfrwt beam="2">  1       -2 0.65212357E-02 0.98177645E+02</pdfrwt>
<totfact> 0.25617449E+04</totfact>
</mgrwt>
</event>
<event>
 6    1  0.1535419E-002  0.9294722E+02  0.7546771E-02  0.1387889E+00
          1   -1    0    0  501    0  0.00000000000E+00  0.00000000000E+00  0.53261573516E+02  0.53261573516E+02  0.00000000000E+00 0. -1.
         -1   -1    0    0    0  501 -0.00000000000E+00 -0.00000000000E+00 -0.73235224917E+02  0.73235224917E+02  0.00000000000E+00 0.  1.
         23    2    1    2    0    0 -0.12724250402E+01 -0.18880435347E+02  0.73753200590E+01  0.93239376038E+02  0.91000527436E+02 0.  0.
         11    1    3    3    0    0 -0.34567287525E+02  0.21310604049E+02  0.58397006000E+01  0.41026105285E+02  0.00000000000E+00 0.  1.
        -11    1    3    3    0    0  0.33294862485E+02 -0.40191039396E+02  0.15356194590E+01  0.52213270753E+02  0.00000000000E+00 0. -1.
         22    1    1    2    0    0  0.12724250402E+01  0.18880435347E+02 -0.27348971460E+02  0.33257422394E+02  0.00000000000E+00 0.  1.
<mgrwt>
<rscale>  0 0.62434741E+02</rscale>
<asrwt>0</asrwt>
<pdfrwt beam="1">  1        1 0.81940882E-02 0.92947221E+02</pdfrwt>
<pdfrwt beam="2">  1       -1 0.11266958E-01 0.92947221E+02</pdfrwt>
<totfact> 0.37015049E+04</totfact>
</mgrwt>
</event>
<event>
 6    1  0.1535419E-002  0.9384041E+02  0.7546771E-02  0.1412780E+00
         -2   -1    0    0    0  501 -0.00000000000E+00  0.00000000000E+00  0.12710198655E+02  0.12710198655E+02  0.00000000000E+00 0.  1.
          2   -1    0    0  501    0  0.00000000000E+00 -0.00000000000E+00 -0.23349842478E+03  0.23349842478E+03  0.00000000000E+00 0. -1.
         23    2    1    2    0    0  0.17800899747E+01  0.12271629022E+02 -0.20899545184E+03  0.22909631428E+03  0.93017529146E+02 0.  0.
         13    1    3    3    0    0  0.16599709108E+02 -0.12298587605E+02 -0.19686169001E+03  0.19794274575E+03  0.00000000000E+00 0. -1.
        -13    1    3    3    0    0 -0.14819619134E+02  0.24570216627E+02 -0.12133761829E+02  0.31153568535E+02  0.00000000000E+00 0.  1.
         22    1    1    2    0    0 -0.17800899747E+01 -0.12271629022E+02 -0.11792774281E+02  0.17112309149E+02  0.00000000000E+00 0. -1.
<mgrwt>
<rscale>  0 0.56578106E+02</rscale>
<asrwt>0</asrwt>
<pdfrwt beam="1">  1        2 0.35922832E-01 0.93840409E+02</pdfrwt>
<pdfrwt beam="2">  1       -2 0.19554153E-02 0.93840409E+02</pdfrwt>
<totfact> 0.98781519E+04</totfact>
</mgrwt>
</event>
<event>
 6    1  0.1535419E-002  0.9641706E+02  0.7546771E-02  0.1352405E+00
         -2   -1    0    0    0  501 -0.00000000000E+00  0.00000000000E+00  0.27412713065E+01  0.27412713065E+01  0.00000000000E+00 0. -1.
          2   -1    0    0  501    0  0.00000000000E+00 -0.00000000000E+00 -0.17591864685E+04  0.17591864685E+04  0.00000000000E+00 0.  1.
         23    2    1    2    0    0  0.11942159397E+02  0.28069991006E+02 -0.15739688136E+04  0.15769191721E+04  0.91464252539E+02 0.  0.
         11    1    3    3    0    0  0.22339491670E+02  0.11715212278E+02 -0.15067820180E+04  0.15069931482E+04  0.00000000000E+00 0.  1.
        -11    1    3    3    0    0 -0.10397332273E+02  0.16354778728E+02 -0.67186795685E+02  0.69926023911E+02  0.00000000000E+00 0. -1.
         22    1    1    2    0    0 -0.11942159397E+02 -0.28069991006E+02 -0.18247638355E+03  0.18500856769E+03  0.00000000000E+00 0. -1.
<mgrwt>
<rscale>  0 0.72311482E+02</rscale>
<asrwt>0</asrwt>
<pdfrwt beam="1">  1        2 0.27064368E+00 0.96417058E+02</pdfrwt>
<pdfrwt beam="2">  1       -2 0.42173466E-03 0.96417058E+02</pdfrwt>
<totfact> 0.67851294E+04</totfact>
</mgrwt>
</event>
<event>
 6    1  0.1535419E-002  0.8998277E+02  0.7546771E-02  0.1428042E+00
         -2   -1    0    0    0  501 -0.00000000000E+00  0.00000000000E+00  0.36193210648E+01  0.36193210648E+01  0.00000000000E+00 0.  1.
          2   -1    0    0  501    0  0.00000000000E+00 -0.00000000000E+00 -0.93773215309E+03  0.93773215309E+03  0.00000000000E+00 0. -1.
         23    2    1    2    0    0  0.11115843766E+02 -0.39936875487E+00 -0.91356876770E+03  0.91798953808E+03  0.89292649398E+02 0.  0.
         13    1    3    3    0    0 -0.19110132613E+02 -0.18059374549E+02 -0.92219795806E+02  0.95894884723E+02  0.00000000000E+00 0.  1.
        -13    1    3    3    0    0  0.30225976379E+02  0.17660005794E+02 -0.82134897189E+03  0.82209465336E+03  0.00000000000E+00 0. -1.
         22    1    1    2    0    0 -0.11115843766E+02  0.39936875487E+00 -0.20544064333E+02  0.23361936078E+02  0.00000000000E+00 0.  1.
<mgrwt>
<rscale>  0 0.53355003E+02</rscale>
<asrwt>0</asrwt>
<pdfrwt beam="1">  1        2 0.14426646E+00 0.89982769E+02</pdfrwt>
<pdfrwt beam="2">  1       -2 0.55681873E-03 0.89982769E+02</pdfrwt>
<totfact> 0.12513145E+05</totfact>
</mgrwt>
</event>
<event>
 6    1  0.1535419E-002  0.9147842E+02  0.7546771E-02  0.1399331E+00
         -2   -1    0    0    0  501 -0.00000000000E+00  0.00000000000E+00  0.30188249717E+01  0.30188249717E+01  0.00000000000E+00 0.  1.
          2   -1    0    0  501    0  0.00000000000E+00 -0.00000000000E+00 -0.11629121061E+04  0.11629121061E+04  0.00000000000E+00 0. -1.
         23    2    1    2    0    0 -0.37137797960E+01  0.16109071647E+02 -0.11000243497E+04  0.11038214850E+04  0.89972252982E+02 0.  0.
         13    1    3    3    0    0  0.37400476860E+01  0.46056206842E+01 -0.10770669391E+04  0.10770832795E+04  0.00000000000E+00 0. -1.
        -13    1    3    3    0    0 -0.74538274820E+01  0.11503450963E+02 -0.22957410691E+02  0.26738205508E+02  0.00000000000E+00 0.  1.
         22    1    1    2    0    0  0.37137797960E+01 -0.16109071647E+02 -0.59868931387E+02  0.62109446102E+02  0.00000000000E+00 0.  1.
<mgrwt>
<rscale>  0 0.59644144E+02</rscale>
<asrwt>0</asrwt>
<pdfrwt beam="1">  1        2 0.17890998E+00 0.91478416E+02</pdfrwt>
<pdfrwt beam="2">  1       -2 0.46443351E-03 0.91478416E+02</pdfrwt>
<totfact> 0.12005905E+05</totfact>
</mgrwt>
</event>
<event>
 6    1  0.1535419E-002  0.8180374E+02  0.7546771E-02  0.1448512E+00
          2   -1    0    0  501    0  0.00000000000E+00  0.00000000000E+00  0.45815711682E+03  0.45815711682E+03  0.00000000000E+00 0.  1.
         -2   -1    0    0    0  501 -0.00000000000E+00 -0.00000000000E+00 -0.10063857663E+02  0.10063857663E+02  0.00000000000E+00 0. -1.
         23    2    1    2    0    0 -0.10808966182E+02 -0.13584367109E+01  0.44981396614E+03  0.45719192499E+03  0.81075107378E+02 0.  0.
         11    1    3    3    0    0  0.26727440002E+02 -0.18651836492E+02  0.10585324144E+03  0.11075719289E+03  0.00000000000E+00 0. -1.
        -11    1    3    3    0    0 -0.37536406184E+02  0.17293399781E+02  0.34396072470E+03  0.34643473209E+03  0.00000000000E+00 0.  1.
         22    1    1    2    0    0  0.10808966182E+02  0.13584367109E+01 -0.17207069869E+01  0.11029049495E+02  0.00000000000E+00 0. -1.
<mgrwt>
<rscale>  0 0.49417032E+02</rscale>
<asrwt>0</asrwt>
<pdfrwt beam="1">  1        2 0.70485694E-01 0.81803742E+02</pdfrwt>
<pdfrwt beam="2">  1       -2 0.15482861E-02 0.81803742E+02</pdfrwt>
<totfact> 0.66680889E+04</totfact>
</mgrwt>
</event>
<event>
 6    1  0.1535419E-002  0.8956488E+02  0.7546771E-02  0.1381103E+00
         -2   -1    0    0    0  501 -0.00000000000E+00  0.00000000000E+00  0.70812278287E+02  0.70812278287E+02  0.00000000000E+00 0.  1.
          2   -1    0    0  501    0  0.00000000000E+00 -0.00000000000E+00 -0.45409781258E+02  0.45409781258E+02  0.00000000000E+00 0. -1.
         23    2    1    2    0    0  0.52519058256E+01  0.23015383498E+02  0.23146866186E+02  0.92507543677E+02  0.86397788343E+02 0.  0.
         13    1    3    3    0    0 -0.39862152118E+02  0.15781414858E+02  0.18109702268E+02  0.46540364660E+02  0.00000000000E+00 0.  1.
        -13    1    3    3    0    0  0.45114057944E+02  0.72339686403E+01  0.50371639172E+01  0.45967179017E+02  0.00000000000E+00 0. -1.
         22    1    1    2    0    0 -0.52519058256E+01 -0.23015383498E+02  0.22556308442E+01  0.23714515868E+02  0.00000000000E+00 0.  1.
<mgrwt>
<rscale>  0 0.64174651E+02</rscale>
<asrwt>0</asrwt>
<pdfrwt beam="1">  1        2 0.69861202E-02 0.89564883E+02</pdfrwt>
<pdfrwt beam="2">  1       -2 0.10894197E-01 0.89564883E+02</pdfrwt>
<totfact> 0.50214272E+04</totfact>
</mgrwt>
</event>
<event>
 6    1  0.1535419E-002  0.9416587E+02  0.7546771E-02  0.1393117E+00
          2   -1    0    0  501    0  0.00000000000E+00  0.00000000000E+00  0.21066206491E+04  0.21066206491E+04  0.00000000000E+00 0. -1.
         -2   -1    0    0    0  501 -0.00000000000E+00 -0.00000000000E+00 -0.18221388362E+01  0.18221388362E+01  0.00000000000E+00 0.  1.
         23    2    1    2    0    0 -0.15985327570E+02  0.49449567281E+01  0.20081438700E+04  0.20103504703E+04  0.92667294813E+02 0.  0.
         11    1    3    3    0    0 -0.32970882389E+02  0.19109137093E+02  0.18746245397E+04  0.18750118408E+04  0.00000000000E+00 0. -1.
        -11    1    3    3    0    0  0.16985554819E+02 -0.14164180365E+02  0.13351933029E+03  0.13533862951E+03  0.00000000000E+00 0.  1.
         22    1    1    2    0    0  0.15985327570E+02 -0.49449567281E+01  0.96654640307E+02  0.98092317678E+02  0.00000000000E+00 0.  1.
<mgrwt>
<rscale>  0 0.61138060E+02</rscale>
<asrwt>0</asrwt>
<pdfrwt beam="1">  1        2 0.32409354E+00 0.94165869E+02</pdfrwt>
<pdfrwt beam="2">  1       -2 0.28033074E-03 0.94165869E+02</pdfrwt>
<totfact> 0.80054114E+04</totfact>
</mgrwt>
</event>
<event>
 6    1  0.1535419E-002  0.9428583E+02  0.7546771E-02  0.1400459E+00
          1   -1    0    0  501    0  0.00000000000E+00  0.00000000000E+00  0.59292911530E+03  0.59292911530E+03  0.00000000000E+00 0. -1.
         -1   -1    0    0    0  501 -0.00000000000E+00 -0.00000000000E+00 -0.65583323632E+01  0.65583323632E+01  0.00000000000E+00 0.  1.
         23    2    1    2    0    0  0.12790055416E+02 -0.75085539832E+01  0.56849249119E+03  0.57625821573E+03  0.93112054838E+02 0.  0.
         13    1    3    3    0    0 -0.34790451648E+02  0.17581290158E+02  0.18951080779E+03  0.19347822502E+03  0.00000000000E+00 0.  1.
        -13    1    3    3    0    0  0.47580507063E+02 -0.25089844141E+02  0.37898168340E+03  0.38277999071E+03  0.00000000000E+00 0. -1.
         22    1    1    2    0    0 -0.12790055416E+02  0.75085539832E+01  0.17878291749E+02  0.23229231935E+02  0.00000000000E+00 0. -1.
<mgrwt>
<rscale>  0 0.59378437E+02</rscale>
<asrwt>0</asrwt>
<pdfrwt beam="1">  1        1 0.91219821E-01 0.94285835E+02</pdfrwt>
<pdfrwt beam="2">  1       -1 0.10089747E-02 0.94285835E+02</pdfrwt>
<totfact> 0.58912379E+04</totfact>
</mgrwt>
</event>
<event>
 6    1  0.1535419E-002  0.9431385E+02  0.7546771E-02  0.1370165E+00
          2   -1    0    0  501    0  0.00000000000E+00  0.00000000000E+00  0.11772568102E+02  0.11772568102E+02  0.00000000000E+00 0.  1.
         -2   -1    0    0    0  501 -0.00000000000E+00 -0.00000000000E+00 -0.33909764281E+03  0.33909764281E+03  0.00000000000E+00 0. -1.
         23    2    1    2    0    0 -0.17125679256E+02 -0.17090344286E+02 -0.19817044922E+03  0.21946897027E+03  0.91157738062E+02 0.  0.
         11    1    3    3    0    0  0.12944901063E+01 -0.45628690776E+01 -0.19711024953E+03  0.19716730446E+03  0.00000000000E+00 0. -1.
        -11    1    3    3    0    0 -0.18420169362E+02 -0.12527475208E+02 -0.10601996924E+01  0.22301665808E+02  0.00000000000E+00 0.  1.
         22    1    1    2    0    0  0.17125679256E+02  0.17090344286E+02 -0.12915462548E+03  0.13140124064E+03  0.00000000000E+00 0. -1.
<mgrwt>
<rscale>  0 0.67121290E+02</rscale>
<asrwt>0</asrwt>
<pdfrwt beam="1">  1        2 0.18111641E-02 0.94313848E+02</pdfrwt>
<pdfrwt beam="2">  1       -2 0.52168876E-01 0.94313848E+02</pdfrwt>
<totfact> 0.19594210E+04</totfact>
</mgrwt>
</event>
<event>
 6    1  0.1535419E-002  0.9664549E+02  0.7546771E-02  0.1357761E+00
         -2   -1    0    0    0  501 -0.00000000000E+00  0.00000000000E+00  0.25545917261E+02  0.25545917261E+02  0.00000000000E+00 0.  1.
          2   -1    0    0  501    0  0.00000000000E+00 -0.00000000000E+00 -0.15326750675E+03  0.15326750675E+03  0.00000000000E+00 0. -1.
         23    2    1    2    0    0  0.15240182386E+02 -0.23086168774E+02 -0.10744132205E+03  0.14451293429E+03  0.92601923009E+02 0.  0.
         13    1    3    3    0    0  0.23529057747E+02 -0.17847099530E+02  0.64269825543E+01  0.30223196801E+02  0.00000000000E+00 0.  1.
        -13    1    3    3    0    0 -0.82888753610E+01 -0.52390692444E+01 -0.11386830461E+03  0.11428973749E+03  0.00000000000E+00 0. -1.
         22    1    1    2    0    0 -0.15240182386E+02  0.23086168774E+02 -0.20280267437E+02  0.34300489722E+02  0.00000000000E+00 0. -1.
<mgrwt>
<rscale>  0 0.70690409E+02</rscale>
<asrwt>0</asrwt>
<pdfrwt beam="1">  1        2 0.23579616E-01 0.96645489E+02</pdfrwt>
<pdfrwt beam="2">  1       -2 0.39301412E-02 0.96645489E+02</pdfrwt>
<totfact> 0.56576639E+04</totfact>
</mgrwt>
</event>
<event>
 6    1  0.1535419E-002  0.9448215E+02  0.7546771E-02  0.1405108E+00
         -2   -1    0    0    0  501 -0.00000000000E+00  0.00000000000E+00  0.54546917923E+01  0.54546917923E+01  0.00000000000E+00 0.  1.
          2   -1    0    0  501    0  0.00000000000E+00 -0.00000000000E+00 -0.60303159371E+03  0.60303159371E+03  0.00000000000E+00 0. -1.
         23    2    1    2    0    0  0.12729110487E+02 -0.50568639662E+01 -0.56906477492E+03  0.57685491637E+03  0.93484086151E+02 0.  0.
         13    1    3    3    0    0  0.13396091366E+02 -0.47774223498E+01 -0.57283723662E+03  0.57301376832E+03  0.00000000000E+00 0. -1.
        -13    1    3    3    0    0 -0.66698087888E+00 -0.27944161637E+00  0.37724616981E+01  0.38411480541E+01  0.00000000000E+00 0.  1.
         22    1    1    2    0    0 -0.12729110487E+02  0.50568639662E+01 -0.28512126997E+02  0.31631369127E+02  0.00000000000E+00 0.  1.
<mgrwt>
<rscale>  0 0.58299797E+02</rscale>
<asrwt>0</asrwt>
<pdfrwt beam="1">  1        2 0.92774126E-01 0.94482149E+02</pdfrwt>
<pdfrwt beam="2">  1       -2 0.83918304E-03 0.94482149E+02</pdfrwt>
<totfact> 0.12021913E+05</totfact>
</mgrwt>
</event>
<event>
 6    1  0.1535419E-002  0.9262286E+02  0.7546771E-02  0.1376645E+00
          4   -1    0    0  501    0  0.00000000000E+00  0.00000000000E+00  0.17878548662E+02  0.17878548662E+02  0.00000000000E+00 0. -1.
         -4   -1    0    0    0  501 -0.00000000000E+00 -0.00000000000E+00 -0.18702308813E+03  0.18702308813E+03  0.00000000000E+00 0.  1.
         23    2    1    2    0    0 -0.13009444916E+02  0.18916026141E+02 -0.13830730184E+03  0.16645691119E+03  0.89732557295E+02 0.  0.
         11    1    3    3    0    0  0.15054509095E+02  0.45712242728E+01 -0.13367856315E+03  0.13460123544E+03  0.00000000000E+00 0.  1.
        -11    1    3    3    0    0 -0.28063954011E+02  0.14344801868E+02 -0.46287386810E+01  0.31855675745E+02  0.00000000000E+00 0. -1.
         22    1    1    2    0    0  0.13009444916E+02 -0.18916026141E+02 -0.30837237631E+02  0.38444725603E+02  0.00000000000E+00 0. -1.
<mgrwt>
<rscale>  0 0.65353870E+02</rscale>
<asrwt>0</asrwt>
<pdfrwt beam="1">  1        4 0.27505458E-02 0.92622856E+02</pdfrwt>
<pdfrwt beam="2">  1       -4 0.28772784E-01 0.92622856E+02</pdfrwt>
<totfact> 0.10405881E+04</totfact>
</mgrwt>
</event>
<event>
 6    1  0.1535419E-002  0.9146725E+02  0.7546771E-02  0.1421543E+00
         -1   -1    0    0    0  501 -0.00000000000E+00  0.00000000000E+00  0.56193016239E+02  0.56193016239E+02  0.00000000000E+00 0.  1.
          1   -1    0    0  501    0  0.00000000000E+00 -0.00000000000E+00 -0.83406560321E+02  0.83406560321E+02  0.00000000000E+00 0. -1.
         23    2    1    2    0    0 -0.53702457279E+00 -0.11683183854E+02 -0.56880185682E+02  0.10771078850E+03  0.90716444237E+02 0.  0.
         13    1    3    3    0    0 -0.31032665741E+02  0.19449604373E+02 -0.72792709772E+00  0.36631179767E+02  0.00000000000E+00 0.  1.
        -13    1    3    3    0    0  0.30495641168E+02 -0.31132788227E+02 -0.56152258584E+02  0.71079608730E+02  0.00000000000E+00 0. -1.
         22    1    1    2    0    0  0.53702457279E+00  0.11683183854E+02  0.29666641599E+02  0.31888788063E+02  0.00000000000E+00 0.  1.
<mgrwt>
<rscale>  0 0.54695816E+02</rscale>
<asrwt>0</asrwt>
<pdfrwt beam="1">  1        1 0.12831778E-01 0.91467253E+02</pdfrwt>
<pdfrwt beam="2">  1       -1 0.86450795E-02 0.91467253E+02</pdfrwt>
<totfact> 0.30640947E+04</totfact>
</mgrwt>
</event>
<event>
 6    1  0.1535419E-002  0.1025772E+03  0.7546771E-02  0.1315092E+00
          2   -1    0    0  501    0  0.00000000000E+00  0.00000000000E+00  0.40802184406E+03  0.40802184406E+03  0.00000000000E+00 0. -1.
         -2   -1    0    0    0  501 -0.00000000000E+00 -0.00000000000E+00 -0.14384027725E+02  0.14384027725E+02  0.00000000000E+00 0.  1.
         23    2    1    2    0    0  0.30799421268E+02 -0.37673682217E+02  0.29686484082E+03  0.31408727010E+03  0.90300436527E+02 0.  0.
         11    1    3    3    0    0 -0.20485096112E+02 -0.28436876254E+02  0.20911170877E+03  0.21202830433E+03  0.00000000000E+00 0. -1.
        -11    1    3    3    0    0  0.51284517380E+02 -0.92368059635E+01  0.87753132053E+02  0.10205896576E+03  0.00000000000E+00 0.  1.
         22    1    1    2    0    0 -0.30799421268E+02  0.37673682217E+02  0.96772975508E+02  0.10831860168E+03  0.00000000000E+00 0. -1.
<mgrwt>
<rscale>  0 0.85130220E+02</rscale>
<asrwt>0</asrwt>
<pdfrwt beam="1">  1        2 0.62772583E-01 0.10257719E+03</pdfrwt>
<pdfrwt beam="2">  1       -2 0.22129276E-02 0.10257719E+03</pdfrwt>
<totfact> 0.46527236E+04</totfact>
</mgrwt>
</event>
<event>
 6    1  0.1535419E-002  0.9222270E+02  0.7546771E-02  0.1424635E+00
         -2   -1    0    0    0  501 -0.00000000000E+00  0.00000000000E+00  0.19522175304E+02  0.19522175304E+02  0.00000000000E+00 0.  1.
          2   -1    0    0  501    0  0.00000000000E+00 -0.00000000000E+00 -0.17111020434E+03  0.17111020434E+03  0.00000000000E+00 0. -1.
         23    2    1    2    0    0 -0.87062877806E+01  0.65294741147E+01 -0.15398455614E+03  0.17948891424E+03  0.91578345288E+02 0.  0.
         13    1    3    3    0    0  0.60804676622E+01 -0.22887083557E+02 -0.14275017387E+03  0.14470108092E+03  0.00000000000E+00 0. -1.
        -13    1    3    3    0    0 -0.14786755443E+02  0.29416557672E+02 -0.11234382272E+02  0.34787833316E+02  0.00000000000E+00 0.  1.
         22    1    1    2    0    0  0.87062877806E+01 -0.65294741147E+01  0.23965271020E+01  0.11143465407E+02  0.00000000000E+00 0.  1.
<mgrwt>
<rscale>  0 0.54052115E+02</rscale>
<asrwt>0</asrwt>
<pdfrwt beam="1">  1        2 0.26324646E-01 0.92222702E+02</pdfrwt>
<pdfrwt beam="2">  1       -2 0.30034117E-02 0.92222702E+02</pdfrwt>
<totfact> 0.73873367E+04</totfact>
</mgrwt>
</event>
<event>
 6    1  0.1535419E-002  0.9084976E+02  0.7546771E-02  0.1408860E+00
         -1   -1    0    0    0  501 -0.00000000000E+00  0.00000000000E+00  0.45764786440E+02  0.45764786440E+02  0.00000000000E+00 0.  1.
          1   -1    0    0  501    0  0.00000000000E+00 -0.00000000000E+00 -0.10130392152E+03  0.10130392152E+03  0.00000000000E+00 0. -1.
         23    2    1    2    0    0 -0.74046023603E+01  0.12497454431E+02 -0.78388005323E+02  0.11999315858E+03  0.89680902223E+02 0.  0.
         11    1    3    3    0    0  0.16610073868E+02 -0.33044142873E+02 -0.19632490074E+02  0.41871763739E+02  0.00000000000E+00 0. -1.
        -11    1    3    3    0    0 -0.24014676228E+02  0.45541597304E+02 -0.58755515249E+02  0.78121394839E+02  0.00000000000E+00 0.  1.
         22    1    1    2    0    0  0.74046023603E+01 -0.12497454431E+02  0.22848870239E+02  0.27075549386E+02  0.00000000000E+00 0.  1.
<mgrwt>
<rscale>  0 0.57448921E+02</rscale>
<asrwt>0</asrwt>
<pdfrwt beam="1">  1        1 0.15585218E-01 0.90849759E+02</pdfrwt>
<pdfrwt beam="2">  1       -1 0.70407365E-02 0.90849759E+02</pdfrwt>
<totfact> 0.32395224E+04</totfact>
</mgrwt>
</event>
<event>
 6    1  0.1535419E-002  0.9227035E+02  0.7546771E-02  0.1396925E+00
          2   -1    0    0  501    0  0.00000000000E+00  0.00000000000E+00  0.22857299355E+02  0.22857299355E+02  0.00000000000E+00 0.  1.
         -2   -1    0    0    0  501 -0.00000000000E+00 -0.00000000000E+00 -0.19437774150E+03  0.19437774150E+03  0.00000000000E+00 0. -1.
         23    2    1    2    0    0 -0.10612786181E+02 -0.12942019259E+02 -0.17701438285E+03  0.19961940923E+03  0.90739681027E+02 0.  0.
         13    1    3    3    0    0  0.24164307620E+02 -0.36159984676E+02 -0.12802656363E+03  0.13521190498E+03  0.00000000000E+00 0. -1.
        -13    1    3    3    0    0 -0.34777093801E+02  0.23217965417E+02 -0.48987819216E+02  0.64407504244E+02  0.00000000000E+00 0.  1.
         22    1    1    2    0    0  0.10612786181E+02  0.12942019259E+02  0.54939407058E+01  0.17615631624E+02  0.00000000000E+00 0.  1.
<mgrwt>
<rscale>  0 0.60216568E+02</rscale>
<asrwt>0</asrwt>
<pdfrwt beam="1">  1        2 0.35165077E-02 0.92270346E+02</pdfrwt>
<pdfrwt beam="2">  1       -2 0.29904267E-01 0.92270346E+02</pdfrwt>
<totfact> 0.22843160E+04</totfact>
</mgrwt>
</event>
<event>
 6    1  0.1535419E-002  0.9172672E+02  0.7546771E-02  0.1401907E+00
         -2   -1    0    0    0  501 -0.00000000000E+00  0.00000000000E+00  0.98692998696E+01  0.98692998696E+01  0.00000000000E+00 0.  1.
          2   -1    0    0  501    0  0.00000000000E+00 -0.00000000000E+00 -0.29808132449E+03  0.29808132449E+03  0.00000000000E+00 0. -1.
         23    2    1    2    0    0 -0.94138894416E+01  0.12618215928E+02 -0.25905421331E+03  0.27481425992E+03  0.90365653518E+02 0.  0.
         11    1    3    3    0    0 -0.36105240895E+02  0.36481147412E+02 -0.19268198669E+03  0.19940112971E+03  0.00000000000E+00 0. -1.
        -11    1    3    3    0    0  0.26691351453E+02 -0.23862931484E+02 -0.66372226623E+02  0.75413130211E+02  0.00000000000E+00 0.  1.
         22    1    1    2    0    0  0.94138894416E+01 -0.12618215928E+02 -0.29157811305E+02  0.33136364431E+02  0.00000000000E+00 0.  1.
<mgrwt>
<rscale>  0 0.59039611E+02</rscale>
<asrwt>0</asrwt>
<pdfrwt beam="1">  1        2 0.45858660E-01 0.91726725E+02</pdfrwt>
<pdfrwt beam="2">  1       -2 0.15183540E-02 0.91726725E+02</pdfrwt>
<totfact> 0.10944926E+05</totfact>
</mgrwt>
</event>
<event>
 6    1  0.1535419E-002  0.1176059E+03  0.7546771E-02  0.1266626E+00
         -2   -1    0    0    0  501 -0.00000000000E+00  0.00000000000E+00  0.88121853953E+01  0.88121853953E+01  0.00000000000E+00 0.  1.
          2   -1    0    0  501    0  0.00000000000E+00 -0.00000000000E+00 -0.14935359611E+04  0.14935359611E+04  0.00000000000E+00 0. -1.
         23    2    1    2    0    0  0.14568659722E+02 -0.78623862265E+02 -0.12240243750E+04  0.12296612655E+04  0.86239199906E+02 0.  0.
         13    1    3    3    0    0  0.37181555433E+02 -0.15830511238E+01 -0.41160321822E+03  0.41328220789E+03  0.00000000000E+00 0.  1.
        -13    1    3    3    0    0 -0.22612895711E+02 -0.77040811141E+02 -0.81242115680E+03  0.81637905757E+03  0.00000000000E+00 0. -1.
         22    1    1    2    0    0 -0.14568659722E+02  0.78623862265E+02 -0.26069940068E+03  0.27268688101E+03  0.00000000000E+00 0.  1.
<mgrwt>
<rscale>  0 0.10679309E+03</rscale>
<asrwt>0</asrwt>
<pdfrwt beam="1">  1        2 0.22977470E+00 0.11760594E+03</pdfrwt>
<pdfrwt beam="2">  1       -2 0.13557212E-02 0.11760594E+03</pdfrwt>
<totfact> 0.18015806E+04</totfact>
</mgrwt>
</event>
<event>
 6    1  0.1535419E-002  0.9648750E+02  0.7546771E-02  0.1409873E+00
          2   -1    0    0  501    0  0.00000000000E+00  0.00000000000E+00  0.14753035135E+03  0.14753035135E+03  0.00000000000E+00 0. -1.
         -2   -1    0    0    0  501 -0.00000000000E+00 -0.00000000000E+00 -0.35820361591E+02  0.35820361591E+02  0.00000000000E+00 0.  1.
         23    2    1    2    0    0  0.78893063050E+01 -0.89563006354E+01  0.12976582837E+03  0.16170655014E+03  0.95746444689E+02 0.  0.
         11    1    3    3    0    0  0.31644519123E+02  0.30313928339E+02  0.33840502063E+02  0.55366862127E+02  0.00000000000E+00 0.  1.
        -11    1    3    3    0    0 -0.23755212818E+02 -0.39270228974E+02  0.95925326309E+02  0.10633968802E+03  0.00000000000E+00 0. -1.
         22    1    1    2    0    0 -0.78893063050E+01  0.89563006354E+01 -0.18055838616E+02  0.21644162796E+02  0.00000000000E+00 0. -1.
<mgrwt>
<rscale>  0 0.57222071E+02</rscale>
<asrwt>0</asrwt>
<pdfrwt beam="1">  1        2 0.22696977E-01 0.96487503E+02</pdfrwt>
<pdfrwt beam="2">  1       -2 0.55108249E-02 0.96487503E+02</pdfrwt>
<totfact> 0.35731014E+04</totfact>
</mgrwt>
</event>
<event>
 6    1  0.1535419E-002  0.8899424E+02  0.7546771E-02  0.1365095E+00
          1   -1    0    0  501    0  0.00000000000E+00  0.00000000000E+00  0.36519267931E+03  0.36519267931E+03  0.00000000000E+00 0. -1.
         -1   -1    0    0    0  501 -0.00000000000E+00 -0.00000000000E+00 -0.10264310247E+02  0.10264310247E+02  0.00000000000E+00 0.  1.
         23    2    1    2    0    0  0.15923622369E+02  0.26980103135E+02  0.29031478432E+03  0.30364889080E+03  0.83297582025E+02 0.  0.
         11    1    3    3    0    0 -0.23368546819E+02  0.36340862469E+02  0.20150831698E+03  0.20608820703E+03  0.00000000000E+00 0. -1.
        -11    1    3    3    0    0  0.39292169188E+02 -0.93607593333E+01  0.88806467340E+02  0.97560683763E+02  0.00000000000E+00 0.  1.
         22    1    1    2    0    0 -0.15923622369E+02 -0.26980103135E+02  0.64613584738E+02  0.71808098758E+02  0.00000000000E+00 0.  1.
<mgrwt>
<rscale>  0 0.68549933E+02</rscale>
<asrwt>0</asrwt>
<pdfrwt beam="1">  1        1 0.56183479E-01 0.88994241E+02</pdfrwt>
<pdfrwt beam="2">  1       -1 0.15791249E-02 0.88994241E+02</pdfrwt>
<totfact> 0.57496048E+04</totfact>
</mgrwt>
</event>
<event>
 6    1  0.1535419E-002  0.9401349E+02  0.7546771E-02  0.1419135E+00
         -2   -1    0    0    0  501 -0.00000000000E+00  0.00000000000E+00  0.18512386718E+02  0.18512386718E+02  0.00000000000E+00 0.  1.
          2   -1    0    0  501    0  0.00000000000E+00 -0.00000000000E+00 -0.15193134623E+03  0.15193134623E+03  0.00000000000E+00 0. -1.
         23    2    1    2    0    0 -0.82106271630E+01 -0.75834518655E+01 -0.12521009525E+03  0.15657619556E+03  0.93346740298E+02 0.  0.
         11    1    3    3    0    0  0.40403587376E+02 -0.68819891407E+01 -0.81374718338E+02  0.91113426190E+02  0.00000000000E+00 0. -1.
        -11    1    3    3    0    0 -0.48614214539E+02 -0.70146272478E+00 -0.43835376912E+02  0.65462769375E+02  0.00000000000E+00 0.  1.
         22    1    1    2    0    0  0.82106271630E+01  0.75834518655E+01 -0.82088642596E+01  0.13867537382E+02  0.00000000000E+00 0. -1.
<mgrwt>
<rscale>  0 0.55204313E+02</rscale>
<asrwt>0</asrwt>
<pdfrwt beam="1">  1        2 0.23374053E-01 0.94013494E+02</pdfrwt>
<pdfrwt beam="2">  1       -2 0.28480595E-02 0.94013494E+02</pdfrwt>
<totfact> 0.91111240E+04</totfact>
</mgrwt>
</event>
<event>
 6    1  0.1535419E-002  0.9284562E+02  0.7546771E-02  0.1426404E+00
          2   -1    0    0  501    0  0.00000000000E+00  0.00000000000E+00  0.57777634160E+01  0.57777634160E+01  0.00000000000E+00 0. -1.
         -2   -1    0    0    0  501 -0.00000000000E+00 -0.00000000000E+00 -0.47026608418E+03  0.47026608418E+03  0.00000000000E+00 0.  1.
         23    2    1    2    0    0  0.89651233083E+01 -0.52341696278E+01 -0.43451247797E+03  0.44432128278E+03  0.92263420960E+02 0.  0.
         13    1    3    3    0    0  0.14469879752E+02 -0.39110952103E+02 -0.35852850795E+03  0.36094561226E+03  0.00000000000E+00 0.  1.
        -13    1    3    3    0    0 -0.55047564433E+01  0.33876782475E+02 -0.75983970022E+02  0.83375670520E+02  0.00000000000E+00 0. -1.
         22    1    1    2    0    0 -0.89651233083E+01  0.52341696278E+01 -0.29975842793E+02  0.31722564820E+02  0.00000000000E+00 0.  1.
<mgrwt>
<rscale>  0 0.53688748E+02</rscale>
<asrwt>0</asrwt>
<pdfrwt beam="1">  1        2 0.88888645E-03 0.92845618E+02</pdfrwt>
<pdfrwt beam="2">  1       -2 0.72348647E-01 0.92845618E+02</pdfrwt>
<totfact> 0.26401156E+04</totfact>
</mgrwt>
</event>
<event>
 6    1  0.1535419E-002  0.9342541E+02  0.7546771E-02  0.1353953E+00
          2   -1    0    0  501    0  0.00000000000E+00  0.00000000000E+00  0.30448346980E+02  0.30448346980E+02  0.00000000000E+00 0. -1.
         -2   -1    0    0    0  501 -0.00000000000E+00 -0.00000000000E+00 -0.14653986513E+03  0.14653986513E+03  0.00000000000E+00 0.  1.
         23    2    1    2    0    0  0.30542975057E+02  0.11567178131E+02 -0.56913181165E+02  0.10939569401E+03  0.87530764545E+02 0.  0.
         13    1    3    3    0    0  0.20122971751E+02  0.15210536985E+02 -0.79958506667E+02  0.83843051089E+02  0.00000000000E+00 0.  1.
        -13    1    3    3    0    0  0.10420003306E+02 -0.36433588541E+01  0.23045325502E+02  0.25552642918E+02  0.00000000000E+00 0. -1.
         22    1    1    2    0    0 -0.30542975057E+02 -0.11567178131E+02 -0.59178336988E+02  0.67592518106E+02  0.00000000000E+00 0.  1.
<mgrwt>
<rscale>  0 0.71837743E+02</rscale>
<asrwt>0</asrwt>
<pdfrwt beam="1">  1        2 0.46843610E-02 0.93425412E+02</pdfrwt>
<pdfrwt beam="2">  1       -2 0.22544595E-01 0.93425412E+02</pdfrwt>
<totfact> 0.25721956E+04</totfact>
</mgrwt>
</event>
<event>
 6    1  0.1535419E-002  0.9171788E+02  0.7546771E-02  0.1372617E+00
          4   -1    0    0  501    0  0.00000000000E+00  0.00000000000E+00  0.13339377661E+02  0.13339377661E+02  0.00000000000E+00 0. -1.
         -4   -1    0    0    0  501 -0.00000000000E+00 -0.00000000000E+00 -0.31603663136E+03  0.31603663136E+03  0.00000000000E+00 0.  1.
         23    2    1    2    0    0 -0.24786904459E+02  0.48823580967E+01 -0.15969473562E+03  0.18415910838E+03  0.88169952725E+02 0.  0.
         11    1    3    3    0    0  0.32987743524E+02  0.37995130721E+00 -0.46785115570E+02  0.57246682216E+02  0.00000000000E+00 0. -1.
        -11    1    3    3    0    0 -0.57774647983E+02  0.45024067895E+01 -0.11290962005E+03  0.12691242617E+03  0.00000000000E+00 0.  1.
         22    1    1    2    0    0  0.24786904459E+02 -0.48823580967E+01 -0.14300251808E+03  0.14521690064E+03  0.00000000000E+00 0.  1.
<mgrwt>
<rscale>  0 0.66445026E+02</rscale>
<asrwt>0</asrwt>
<pdfrwt beam="1">  1        4 0.20522119E-02 0.91717875E+02</pdfrwt>
<pdfrwt beam="2">  1       -4 0.48621021E-01 0.91717875E+02</pdfrwt>
<totfact> 0.59035346E+03</totfact>
</mgrwt>
</event>
<event>
 6    1  0.1535419E-002  0.9401391E+02  0.7546771E-02  0.1386818E+00
         -2   -1    0    0    0  501 -0.00000000000E+00  0.00000000000E+00  0.10647055436E+02  0.10647055436E+02  0.00000000000E+00 0.  1.
          2   -1    0    0  501    0  0.00000000000E+00 -0.00000000000E+00 -0.80885763289E+03  0.80885763289E+03  0.00000000000E+00 0. -1.
         23    2    1    2    0    0 -0.11683095615E+02 -0.14479590197E+02 -0.79510286605E+03  0.80064173188E+03  0.92154554886E+02 0.  0.
         11    1    3    3    0    0 -0.25202079466E+02 -0.10459584734E+02 -0.66207469527E+02  0.71609892776E+02  0.00000000000E+00 0.  1.
        -11    1    3    3    0    0  0.13518983851E+02 -0.40200054631E+01 -0.72889539652E+03  0.72903183911E+03  0.00000000000E+00 0. -1.
         22    1    1    2    0    0  0.11683095615E+02  0.14479590197E+02 -0.31077114065E+01  0.18862956439E+02  0.00000000000E+00 0.  1.
<mgrwt>
<rscale>  0 0.62705067E+02</rscale>
<asrwt>0</asrwt>
<pdfrwt beam="1">  1        2 0.12443968E+00 0.94013910E+02</pdfrwt>
<pdfrwt beam="2">  1       -2 0.16380080E-02 0.94013910E+02</pdfrwt>
<totfact> 0.32934627E+04</totfact>
</mgrwt>
</event>
<event>
 6    1  0.1535419E-002  0.9372636E+02  0.7546771E-02  0.1379900E+00
          2   -1    0    0  501    0  0.00000000000E+00  0.00000000000E+00  0.77730856695E+02  0.77730856695E+02  0.00000000000E+00 0. -1.
         -2   -1    0    0    0  501 -0.00000000000E+00 -0.00000000000E+00 -0.66828694694E+02  0.66828694694E+02  0.00000000000E+00 0.  1.
         23    2    1    2    0    0  0.20961392131E+02 -0.14000704595E+01  0.45419629216E+02  0.10415168458E+03  0.91341614419E+02 0.  0.
         11    1    3    3    0    0  0.32139950381E+02 -0.27620112647E+02  0.58948783096E+02  0.72600317228E+02  0.00000000000E+00 0. -1.
        -11    1    3    3    0    0 -0.11178558250E+02  0.26220042188E+02 -0.13529153880E+02  0.31551367349E+02  0.00000000000E+00 0.  1.
         22    1    1    2    0    0 -0.20961392131E+02  0.14000704595E+01 -0.34517467215E+02  0.40407866812E+02  0.00000000000E+00 0. -1.
<mgrwt>
<rscale>  0 0.64490092E+02</rscale>
<asrwt>0</asrwt>
<pdfrwt beam="1">  1        2 0.11958593E-01 0.93726361E+02</pdfrwt>
<pdfrwt beam="2">  1       -2 0.10281338E-01 0.93726361E+02</pdfrwt>
<totfact> 0.28653287E+04</totfact>
</mgrwt>
</event>
<event>
 6    1  0.1535419E-002  0.9347304E+02  0.7546771E-02  0.1382819E+00
         -1   -1    0    0    0  501 -0.00000000000E+00  0.00000000000E+00  0.55231994357E+02  0.55231994357E+02  0.00000000000E+00 0.  1.
          1   -1    0    0  501    0  0.00000000000E+00 -0.00000000000E+00 -0.59275396284E+02  0.59275396284E+02  0.00000000000E+00 0. -1.
         23    2    1    2    0    0 -0.10864751973E+02 -0.17025308789E+02 -0.83883415556E+01  0.93848676374E+02  0.91265030589E+02 0.  0.
         11    1    3    3    0    0 -0.13349111742E+02 -0.24919585604E+02 -0.46734519766E+02  0.54619592352E+02  0.00000000000E+00 0. -1.
        -11    1    3    3    0    0  0.24843597693E+01  0.78942768152E+01  0.38346178210E+02  0.39229084022E+02  0.00000000000E+00 0.  1.
         22    1    1    2    0    0  0.10864751973E+02  0.17025308789E+02  0.43449396287E+01  0.20658714267E+02  0.00000000000E+00 0. -1.
<mgrwt>
<rscale>  0 0.63728622E+02</rscale>
<asrwt>0</asrwt>
<pdfrwt beam="1">  1        1 0.91192917E-02 0.93473043E+02</pdfrwt>
<pdfrwt beam="2">  1       -1 0.84972299E-02 0.93473043E+02</pdfrwt>
<totfact> 0.49234163E+04</totfact>
</mgrwt>
</event>
<event>
 6    1  0.1535419E-002  0.9422061E+02  0.7546771E-02  0.1376113E+00
         -2   -1    0    0    0  501 -0.00000000000E+00  0.00000000000E+00  0.19498105321E+01  0.19498105321E+01  0.00000000000E+00 0.  1.
          2   -1    0    0  501    0  0.00000000000E+00 -0.00000000000E+00 -0.34605011088E+04  0.34605011088E+04  0.00000000000E+00 0. -1.
         23    2    1    2    0    0 -0.16542650127E+02 -0.14504209611E+02 -0.33660811922E+04  0.33673996075E+04  0.91616006032E+02 0.  0.
         13    1    3    3    0    0  0.37710765914E+02 -0.54607830968E+00 -0.15252236970E+04  0.15256899180E+04  0.00000000000E+00 0.  1.
        -13    1    3    3    0    0 -0.54253416041E+02 -0.13958131301E+02 -0.18408574952E+04  0.18417096895E+04  0.00000000000E+00 0. -1.
         22    1    1    2    0    0  0.16542650127E+02  0.14504209611E+02 -0.92470106037E+02  0.95051311828E+02  0.00000000000E+00 0.  1.
<mgrwt>
<rscale>  0 0.65496581E+02</rscale>
<asrwt>0</asrwt>
<pdfrwt beam="1">  1        2 0.53238711E+00 0.94220613E+02</pdfrwt>
<pdfrwt beam="2">  1       -2 0.29996954E-03 0.94220613E+02</pdfrwt>
<totfact> 0.12907264E+04</totfact>
</mgrwt>
</event>
<event>
 6    1  0.1535419E-002  0.9314485E+02  0.7546771E-02  0.1372201E+00
          2   -1    0    0  501    0  0.00000000000E+00  0.00000000000E+00  0.60168564311E+03  0.60168564311E+03  0.00000000000E+00 0. -1.
         -2   -1    0    0    0  501 -0.00000000000E+00 -0.00000000000E+00 -0.13495537751E+02  0.13495537751E+02  0.00000000000E+00 0.  1.
         23    2    1    2    0    0  0.19938495967E+02  0.13865990064E+02  0.58293940061E+03  0.59033406428E+03  0.89923041380E+02 0.  0.
         11    1    3    3    0    0  0.78294539369E+01  0.39209463056E+02  0.11884840253E+03  0.12539387994E+03  0.00000000000E+00 0.  1.
        -11    1    3    3    0    0  0.12109042030E+02 -0.25343472992E+02  0.46409099808E+03  0.46494018435E+03  0.00000000000E+00 0. -1.
         22    1    1    2    0    0 -0.19938495967E+02 -0.13865990064E+02  0.52507047524E+01  0.24847116579E+02  0.00000000000E+00 0.  1.
<mgrwt>
<rscale>  0 0.66559198E+02</rscale>
<asrwt>0</asrwt>
<pdfrwt beam="1">  1        2 0.92567001E-01 0.93144848E+02</pdfrwt>
<pdfrwt beam="2">  1       -2 0.20762370E-02 0.93144848E+02</pdfrwt>
<totfact> 0.33099290E+04</totfact>
</mgrwt>
</event>
<event>
 6    1  0.1535419E-002  0.9269160E+02  0.7546771E-02  0.1385096E+00
         -1   -1    0    0    0  501 -0.00000000000E+00  0.00000000000E+00  0.11425395767E+02  0.11425395767E+02  0.00000000000E+00 0.  1.
          1   -1    0    0  501    0  0.00000000000E+00 -0.00000000000E+00 -0.30759377781E+03  0.30759377781E+03  0.00000000000E+00 0. -1.
         23    2    1    2    0    0  0.19496955989E+02  0.42780498303E+01 -0.27367633198E+03  0.28894717133E+03  0.90516849979E+02 0.  0.
         13    1    3    3    0    0  0.32790350893E+01  0.30065651334E+02 -0.27450223188E+02  0.40843729192E+02  0.00000000000E+00 0.  1.
        -13    1    3    3    0    0  0.16217920899E+02 -0.25787601504E+02 -0.24622610879E+03  0.24810344214E+03  0.00000000000E+00 0. -1.
         22    1    1    2    0    0 -0.19496955989E+02 -0.42780498303E+01 -0.22492050065E+02  0.30072002250E+02  0.00000000000E+00 0.  1.
<mgrwt>
<rscale>  0 0.63142926E+02</rscale>
<asrwt>0</asrwt>
<pdfrwt beam="1">  1        1 0.47322119E-01 0.92691602E+02</pdfrwt>
<pdfrwt beam="2">  1       -1 0.17577532E-02 0.92691602E+02</pdfrwt>
<totfact> 0.61286910E+04</totfact>
</mgrwt>
</event>
<event>
 6    1  0.1535419E-002  0.9943907E+02  0.7546771E-02  0.1330716E+00
          3   -1    0    0  501    0  0.00000000000E+00  0.00000000000E+00  0.80208226294E+02  0.80208226294E+02  0.00000000000E+00 0. -1.
         -3   -1    0    0    0  501 -0.00000000000E+00 -0.00000000000E+00 -0.63233847121E+02  0.63233847121E+02  0.00000000000E+00 0.  1.
         23    2    1    2    0    0  0.15392232376E+02  0.37411611400E+02  0.24214859390E+02  0.10234494409E+03  0.90838200556E+02 0.  0.
         13    1    3    3    0    0  0.44286289359E+02 -0.85246401756E+01  0.12928983827E+02  0.46915919879E+02  0.00000000000E+00 0.  1.
        -13    1    3    3    0    0 -0.28894056982E+02  0.45936251576E+02  0.11285875563E+02  0.55429024211E+02  0.00000000000E+00 0. -1.
         22    1    1    2    0    0 -0.15392232376E+02 -0.37411611400E+02 -0.72404802169E+01  0.41097129326E+02  0.00000000000E+00 0.  1.
<mgrwt>
<rscale>  0 0.79416168E+02</rscale>
<asrwt>0</asrwt>
<pdfrwt beam="1">  1        3 0.12339727E-01 0.99439068E+02</pdfrwt>
<pdfrwt beam="2">  1       -3 0.97282842E-02 0.99439068E+02</pdfrwt>
<totfact> 0.84652101E+03</totfact>
</mgrwt>
</event>
<event>
 6    1  0.1535419E-002  0.9192272E+02  0.7546771E-02  0.1379364E+00
          1   -1    0    0  501    0  0.00000000000E+00  0.00000000000E+00  0.25507520419E+03  0.25507520419E+03  0.00000000000E+00 0. -1.
         -1   -1    0    0    0  501 -0.00000000000E+00 -0.00000000000E+00 -0.14930384041E+02  0.14930384041E+02  0.00000000000E+00 0.  1.
         23    2    1    2    0    0 -0.19946950773E+02 -0.10333593950E+02  0.22461173733E+03  0.24269367378E+03  0.89135417980E+02 0.  0.
         11    1    3    3    0    0  0.25113730851E+02 -0.29327563796E+02  0.63430874802E+02  0.74258207315E+02  0.00000000000E+00 0.  1.
        -11    1    3    3    0    0 -0.45060681623E+02  0.18993969846E+02  0.16118086253E+03  0.16843546647E+03  0.00000000000E+00 0. -1.
         22    1    1    2    0    0  0.19946950773E+02  0.10333593950E+02  0.15533082820E+02  0.27311914451E+02  0.00000000000E+00 0.  1.
<mgrwt>
<rscale>  0 0.64631234E+02</rscale>
<asrwt>0</asrwt>
<pdfrwt beam="1">  1        1 0.39242336E-01 0.91922722E+02</pdfrwt>
<pdfrwt beam="2">  1       -1 0.22969823E-02 0.91922722E+02</pdfrwt>
<totfact> 0.52507385E+04</totfact>
</mgrwt>
</event>
<event>
 6    1  0.1535419E-002  0.9186877E+02  0.7546771E-02  0.1405135E+00
         -2   -1    0    0    0  501 -0.00000000000E+00  0.00000000000E+00  0.14124295297E+02  0.14124295297E+02  0.00000000000E+00 0.  1.
          2   -1    0    0  501    0  0.00000000000E+00 -0.00000000000E+00 -0.25395157843E+03  0.25395157843E+03  0.00000000000E+00 0. -1.
         23    2    1    2    0    0  0.11584704008E+02 -0.93593631062E+01 -0.23516095179E+03  0.25246889795E+03  0.90653561103E+02 0.  0.
         13    1    3    3    0    0 -0.23278665920E+02 -0.36915929965E+02 -0.80733677814E+02  0.91774772708E+02  0.00000000000E+00 0.  1.
        -13    1    3    3    0    0  0.34863369928E+02  0.27556566859E+02 -0.15442727397E+03  0.16069412524E+03  0.00000000000E+00 0. -1.
         22    1    1    2    0    0 -0.11584704008E+02  0.93593631062E+01 -0.46663313449E+01  0.15606975778E+02  0.00000000000E+00 0.  1.
<mgrwt>
<rscale>  0 0.58293733E+02</rscale>
<asrwt>0</asrwt>
<pdfrwt beam="1">  1        2 0.39069470E-01 0.91868772E+02</pdfrwt>
<pdfrwt beam="2">  1       -2 0.21729687E-02 0.91868772E+02</pdfrwt>
<totfact> 0.77447169E+04</totfact>
</mgrwt>
</event>
<event>
 6    1  0.1535419E-002  0.1033728E+03  0.7546771E-02  0.1320146E+00
         -2   -1    0    0    0  501 -0.00000000000E+00  0.00000000000E+00  0.27126982542E+02  0.27126982542E+02  0.00000000000E+00 0.  1.
          2   -1    0    0  501    0  0.00000000000E+00 -0.00000000000E+00 -0.46411455900E+03  0.46411455900E+03  0.00000000000E+00 0. -1.
         23    2    1    2    0    0  0.34697494773E+02 -0.26113846887E+02 -0.43570109335E+03  0.44779612543E+03  0.93808731227E+02 0.  0.
         13    1    3    3    0    0  0.25533129879E+02  0.18476892945E+02 -0.47941751451E+02  0.57373755556E+02  0.00000000000E+00 0.  1.
        -13    1    3    3    0    0  0.91643648935E+01 -0.44590739832E+02 -0.38775934190E+03  0.39042236987E+03  0.00000000000E+00 0. -1.
         22    1    1    2    0    0 -0.34697494773E+02  0.26113846887E+02 -0.12864831041E+01  0.43445416116E+02  0.00000000000E+00 0.  1.
<mgrwt>
<rscale>  0 0.83222920E+02</rscale>
<asrwt>0</asrwt>
<pdfrwt beam="1">  1        2 0.71402244E-01 0.10337276E+03</pdfrwt>
<pdfrwt beam="2">  1       -2 0.41733817E-02 0.10337276E+03</pdfrwt>
<totfact> 0.16071061E+04</totfact>
</mgrwt>
</event>
<event>
 6    1  0.1535419E-002  0.8491469E+02  0.7546771E-02  0.1419803E+00
         -1   -1    0    0    0  501 -0.00000000000E+00  0.00000000000E+00  0.11997245089E+02  0.11997245089E+02  0.00000000000E+00 0.  1.
          1   -1    0    0  501    0  0.00000000000E+00 -0.00000000000E+00 -0.24372616309E+03  0.24372616309E+03  0.00000000000E+00 0. -1.
         23    2    1    2    0    0 -0.12722205192E+02 -0.79718830976E+01 -0.22237099865E+03  0.23803227821E+03  0.83576904719E+02 0.  0.
         11    1    3    3    0    0 -0.10645063193E+02 -0.40983469923E+01 -0.22943181233E+03  0.22971519394E+03  0.00000000000E+00 0. -1.
        -11    1    3    3    0    0 -0.20771419995E+01 -0.38735361053E+01  0.70608136800E+01  0.83170842648E+01  0.00000000000E+00 0.  1.
         22    1    1    2    0    0  0.12722205192E+02  0.79718830976E+01 -0.93579193474E+01  0.17691129969E+02  0.00000000000E+00 0.  1.
<mgrwt>
<rscale>  0 0.55062720E+02</rscale>
<asrwt>0</asrwt>
<pdfrwt beam="1">  1        1 0.37496329E-01 0.84914689E+02</pdfrwt>
<pdfrwt beam="2">  1       -1 0.18457302E-02 0.84914689E+02</pdfrwt>
<totfact> 0.74974837E+04</totfact>
</mgrwt>
</event>
<event>
 6    1  0.1535419E-002  0.1019247E+03  0.7546771E-02  0.1318156E+00
         -1   -1    0    0    0  501 -0.00000000000E+00  0.00000000000E+00  0.23156637010E+03  0.23156637010E+03  0.00000000000E+00 0. -1.
          1   -1    0    0  501    0  0.00000000000E+00 -0.00000000000E+00 -0.26871608297E+02  0.26871608297E+02  0.00000000000E+00 0.  1.
         23    2    1    2    0    0  0.87667182497E+01  0.46120364751E+02  0.95906838916E+02  0.13995272379E+03  0.90469330444E+02 0.  0.
         13    1    3    3    0    0  0.22614842540E+00  0.13028185229E+02  0.10401467190E+03  0.10482765248E+03  0.00000000000E+00 0. -1.
        -13    1    3    3    0    0  0.85405698243E+01  0.33092179522E+02 -0.81078329883E+01  0.35125071305E+02  0.00000000000E+00 0.  1.
         22    1    1    2    0    0 -0.87667182497E+01 -0.46120364751E+02  0.10878792288E+03  0.11848525460E+03  0.00000000000E+00 0. -1.
<mgrwt>
<rscale>  0 0.83967189E+02</rscale>
<asrwt>0</asrwt>
<pdfrwt beam="1">  1        1 0.41340937E-02 0.10192469E+03</pdfrwt>
<pdfrwt beam="2">  1       -1 0.35625594E-01 0.10192469E+03</pdfrwt>
<totfact> 0.14905695E+04</totfact>
</mgrwt>
</event>
<event>
 6    1  0.1535419E-002  0.1208699E+03  0.7546771E-02  0.1355412E+00
          2   -1    0    0  501    0  0.00000000000E+00  0.00000000000E+00  0.35209784958E+02  0.35209784958E+02  0.00000000000E+00 0. -1.
         -2   -1    0    0    0  501 -0.00000000000E+00 -0.00000000000E+00 -0.17830178805E+03  0.17830178805E+03  0.00000000000E+00 0.  1.
         23    2    1    2    0    0 -0.89957696759E+01  0.11643288383E+02 -0.71523435939E+02  0.14044619242E+03  0.11997100083E+03 0.  0.
         13    1    3    3    0    0 -0.42793429373E+02 -0.18462432443E+02  0.95680290408E+01  0.47578211283E+02  0.00000000000E+00 0. -1.
        -13    1    3    3    0    0  0.33797659697E+02  0.30105720826E+02 -0.81091464980E+02  0.92867981135E+02  0.00000000000E+00 0.  1.
         22    1    1    2    0    0  0.89957696759E+01 -0.11643288383E+02 -0.71568567150E+02  0.73065380587E+02  0.00000000000E+00 0.  1.
<mgrwt>
<rscale>  0 0.71395090E+02</rscale>
<asrwt>0</asrwt>
<pdfrwt beam="1">  1        2 0.54168901E-02 0.12086989E+03</pdfrwt>
<pdfrwt beam="2">  1       -2 0.27431044E-01 0.12086989E+03</pdfrwt>
<totfact> 0.15617978E+04</totfact>
</mgrwt>
</event>
<event>
 6    1  0.1535419E-002  0.9335288E+02  0.7546771E-02  0.1390976E+00
          1   -1    0    0  501    0  0.00000000000E+00  0.00000000000E+00  0.23695546150E+03  0.23695546150E+03  0.00000000000E+00 0. -1.
         -1   -1    0    0    0  501 -0.00000000000E+00 -0.00000000000E+00 -0.17176010173E+02  0.17176010173E+02  0.00000000000E+00 0.  1.
         23    2    1    2    0    0 -0.17503307471E+02 -0.30844599605E+01  0.21688732091E+03  0.23612469284E+03  0.91645408676E+02 0.  0.
         13    1    3    3    0    0 -0.22223578182E+02  0.36160787367E+02  0.16788308302E+03  0.17316529541E+03  0.00000000000E+00 0. -1.
        -13    1    3    3    0    0  0.47202707117E+01 -0.39245247328E+02  0.49004237888E+02  0.62959397427E+02  0.00000000000E+00 0.  1.
         22    1    1    2    0    0  0.17503307471E+02  0.30844599605E+01  0.28921304185E+01  0.18006778835E+02  0.00000000000E+00 0. -1.
<mgrwt>
<rscale>  0 0.61664612E+02</rscale>
<asrwt>0</asrwt>
<pdfrwt beam="1">  1        1 0.36454684E-01 0.93352882E+02</pdfrwt>
<pdfrwt beam="2">  1       -1 0.26424633E-02 0.93352882E+02</pdfrwt>
<totfact> 0.47090732E+04</totfact>
</mgrwt>
</event>
<event>
 6    1  0.1535419E-002  0.9153081E+02  0.7546771E-02  0.1424436E+00
          2   -1    0    0  501    0  0.00000000000E+00  0.00000000000E+00  0.14814709727E+03  0.14814709727E+03  0.00000000000E+00 0. -1.
         -2   -1    0    0    0  501 -0.00000000000E+00 -0.00000000000E+00 -0.18390603736E+02  0.18390603736E+02  0.00000000000E+00 0.  1.
         23    2    1    2    0    0 -0.84694961770E+01  0.72755078921E+01  0.10446588917E+03  0.13889208563E+03  0.90847256805E+02 0.  0.
         11    1    3    3    0    0  0.29830131875E+02  0.27449758798E+02  0.78671234458E+02  0.88501351159E+02  0.00000000000E+00 0. -1.
        -11    1    3    3    0    0 -0.38299628052E+02 -0.20174250906E+02  0.25794654713E+02  0.50390734469E+02  0.00000000000E+00 0.  1.
         22    1    1    2    0    0  0.84694961770E+01 -0.72755078921E+01  0.25290604361E+02  0.27645615376E+02  0.00000000000E+00 0. -1.
<mgrwt>
<rscale>  0 0.54093330E+02</rscale>
<asrwt>0</asrwt>
<pdfrwt beam="1">  1        2 0.22791860E-01 0.91530811E+02</pdfrwt>
<pdfrwt beam="2">  1       -2 0.28293238E-02 0.91530811E+02</pdfrwt>
<totfact> 0.94197585E+04</totfact>
</mgrwt>
</event>
<event>
 6    1  0.1535419E-002  0.9464727E+02  0.7546771E-02  0.1392355E+00
         -2   -1    0    0    0  501 -0.00000000000E+00  0.00000000000E+00  0.61497483733E+02  0.61497483733E+02  0.00000000000E+00 0.  1.
          2   -1    0    0  501    0  0.00000000000E+00 -0.00000000000E+00 -0.73970424912E+02  0.73970424912E+02  0.00000000000E+00 0. -1.
         23    2    1    2    0    0  0.14911195883E+02 -0.74769824930E+01 -0.40423475934E+02  0.10291823241E+03  0.93165745455E+02 0.  0.
         11    1    3    3    0    0 -0.13128334195E+02 -0.42439250372E+02 -0.37275690680E+02  0.57990691034E+02  0.00000000000E+00 0.  1.
        -11    1    3    3    0    0  0.28039530078E+02  0.34962267879E+02 -0.31477852533E+01  0.44927541377E+02  0.00000000000E+00 0. -1.
         22    1    1    2    0    0 -0.14911195883E+02  0.74769824930E+01  0.27950534754E+02  0.32549676234E+02  0.00000000000E+00 0. -1.
<mgrwt>
<rscale>  0 0.61324677E+02</rscale>
<asrwt>0</asrwt>
<pdfrwt beam="1">  1        2 0.11380065E-01 0.94647267E+02</pdfrwt>
<pdfrwt beam="2">  1       -2 0.94611514E-02 0.94647267E+02</pdfrwt>
<totfact> 0.34635753E+04</totfact>
</mgrwt>
</event>
<event>
 6    1  0.1535419E-002  0.9542656E+02  0.7546771E-02  0.1391205E+00
          2   -1    0    0  501    0  0.00000000000E+00  0.00000000000E+00  0.46610102635E+02  0.46610102635E+02  0.00000000000E+00 0.  1.
         -2   -1    0    0    0  501 -0.00000000000E+00 -0.00000000000E+00 -0.75201132535E+02  0.75201132535E+02  0.00000000000E+00 0. -1.
         23    2    1    2    0    0  0.12694597233E+02  0.10662332341E+02 -0.85600375685E+01  0.95809720145E+02  0.93975476063E+02 0.  0.
         11    1    3    3    0    0 -0.27595386701E+02  0.76202440497E+01 -0.36719331198E+02  0.46560528027E+02  0.00000000000E+00 0. -1.
        -11    1    3    3    0    0  0.40289983934E+02  0.30420882916E+01  0.28159293629E+02  0.49249192118E+02  0.00000000000E+00 0.  1.
         22    1    1    2    0    0 -0.12694597233E+02 -0.10662332341E+02 -0.20030992331E+02  0.26001515026E+02  0.00000000000E+00 0.  1.
<mgrwt>
<rscale>  0 0.61607924E+02</rscale>
<asrwt>0</asrwt>
<pdfrwt beam="1">  1        2 0.71707851E-02 0.95426559E+02</pdfrwt>
<pdfrwt beam="2">  1       -2 0.11569405E-01 0.95426559E+02</pdfrwt>
<totfact> 0.44605280E+04</totfact>
</mgrwt>
</event>
<event>
 6    1  0.1535419E-002  0.8919956E+02  0.7546771E-02  0.1433083E+00
         -2   -1    0    0    0  501 -0.00000000000E+00  0.00000000000E+00  0.19934674254E+01  0.19934674254E+01  0.00000000000E+00 0.  1.
          2   -1    0    0  501    0  0.00000000000E+00 -0.00000000000E+00 -0.13418523421E+04  0.13418523421E+04  0.00000000000E+00 0. -1.
         23    2    1    2    0    0 -0.62470064149E+01  0.85377483480E+01 -0.12762348135E+04  0.12793482173E+04  0.88569993862E+02 0.  0.
         11    1    3    3    0    0 -0.28512982969E+02 -0.22559221369E+02 -0.97737887712E+03  0.97805489524E+03  0.00000000000E+00 0. -1.
        -11    1    3    3    0    0  0.22265976554E+02  0.31096969717E+02 -0.29885593633E+03  0.30129332206E+03  0.00000000000E+00 0.  1.
         22    1    1    2    0    0  0.62470064149E+01 -0.85377483480E+01 -0.63624061177E+02  0.64497592178E+02  0.00000000000E+00 0. -1.
<mgrwt>
<rscale>  0 0.52346139E+02</rscale>
<asrwt>0</asrwt>
<pdfrwt beam="1">  1        2 0.20643925E+00 0.89199563E+02</pdfrwt>
<pdfrwt beam="2">  1       -2 0.30668666E-03 0.89199563E+02</pdfrwt>
<totfact> 0.17129377E+05</totfact>
</mgrwt>
</event>
<event>
 6    1  0.1535419E-002  0.9298998E+02  0.7546771E-02  0.1415201E+00
         -1   -1    0    0    0  501 -0.00000000000E+00  0.00000000000E+00  0.29079922313E+02  0.29079922313E+02  0.00000000000E+00 0.  1.
          1   -1    0    0  501    0  0.00000000000E+00 -0.00000000000E+00 -0.96303913853E+02  0.96303913853E+02  0.00000000000E+00 0. -1.
         23    2    1    2    0    0  0.39105771214E+01 -0.11634017127E+02 -0.63331007118E+02  0.11250756747E+03  0.92176424895E+02 0.  0.
         13    1    3    3    0    0  0.34767180518E+02  0.24725232347E+02 -0.43291522443E+02  0.60780341157E+02  0.00000000000E+00 0. -1.
        -13    1    3    3    0    0 -0.30856603396E+02 -0.36359249474E+02 -0.20039484675E+02  0.51727226308E+02  0.00000000000E+00 0.  1.
         22    1    1    2    0    0 -0.39105771214E+01  0.11634017127E+02 -0.38929844216E+01  0.12876268701E+02  0.00000000000E+00 0.  1.
<mgrwt>
<rscale>  0 0.56049368E+02</rscale>
<asrwt>0</asrwt>
<pdfrwt beam="1">  1        1 0.14815987E-01 0.92989979E+02</pdfrwt>
<pdfrwt beam="2">  1       -1 0.44738341E-02 0.92989979E+02</pdfrwt>
<totfact> 0.67533517E+04</totfact>
</mgrwt>
</event>
<event>
 6    1  0.1535419E-002  0.9202910E+02  0.7546771E-02  0.1399662E+00
          2   -1    0    0  501    0  0.00000000000E+00  0.00000000000E+00  0.48393245890E+03  0.48393245890E+03  0.00000000000E+00 0. -1.
         -2   -1    0    0    0  501 -0.00000000000E+00 -0.00000000000E+00 -0.75526884264E+01  0.75526884264E+01  0.00000000000E+00 0.  1.
         23    2    1    2    0    0 -0.14205633477E+02  0.76861353945E+01  0.45738535329E+03  0.46655194489E+03  0.90600657680E+02 0.  0.
         11    1    3    3    0    0 -0.48278108174E+02 -0.14427200746E+02  0.28717101625E+03  0.29155807727E+03  0.00000000000E+00 0. -1.
        -11    1    3    3    0    0  0.34072474697E+02  0.22113336141E+02  0.17021433704E+03  0.17499386761E+03  0.00000000000E+00 0.  1.
         22    1    1    2    0    0  0.14205633477E+02 -0.76861353945E+01  0.18994417179E+02  0.24933202437E+02  0.00000000000E+00 0. -1.
<mgrwt>
<rscale>  0 0.59565982E+02</rscale>
<asrwt>0</asrwt>
<pdfrwt beam="1">  1        2 0.74451123E-01 0.92029103E+02</pdfrwt>
<pdfrwt beam="2">  1       -2 0.11619524E-02 0.92029103E+02</pdfrwt>
<totfact> 0.96162955E+04</totfact>
</mgrwt>
</event>
<event>
 6    1  0.1535419E-002  0.9250996E+02  0.7546771E-02  0.1401947E+00
          1   -1    0    0  501    0  0.00000000000E+00  0.00000000000E+00  0.49275662641E+02  0.49275662641E+02  0.00000000000E+00 0. -1.
         -1   -1    0    0    0  501 -0.00000000000E+00 -0.00000000000E+00 -0.61110420014E+02  0.61110420014E+02  0.00000000000E+00 0.  1.
         23    2    1    2    0    0  0.14357462682E+02  0.53923341818E+01 -0.27295858099E+01  0.92550215652E+02  0.91229807497E+02 0.  0.
         11    1    3    3    0    0  0.43608266628E+01  0.14545422010E+01  0.44183755775E+02  0.44422255420E+02  0.00000000000E+00 0. -1.
        -11    1    3    3    0    0  0.99966360192E+01  0.39377919808E+01 -0.46913341585E+02  0.48127960232E+02  0.00000000000E+00 0.  1.
         22    1    1    2    0    0 -0.14357462682E+02 -0.53923341818E+01 -0.91051715626E+01  0.17835867004E+02  0.00000000000E+00 0.  1.
<mgrwt>
<rscale>  0 0.59030199E+02</rscale>
<asrwt>0</asrwt>
<pdfrwt beam="1">  1        1 0.75808712E-02 0.92509955E+02</pdfrwt>
<pdfrwt beam="2">  1       -1 0.94016031E-02 0.92509955E+02</pdfrwt>
<totfact> 0.53934020E+04</totfact>
</mgrwt>
</event>
<event>
 6    1  0.1535419E-002  0.9765300E+02  0.7546771E-02  0.1361035E+00
         -2   -1    0    0    0  501 -0.00000000000E+00  0.00000000000E+00  0.48827121652E+01  0.48827121652E+01  0.00000000000E+00 0.  1.
          2   -1    0    0  501    0  0.00000000000E+00 -0.00000000000E+00 -0.78628752392E+03  0.78628752392E+03  0.00000000000E+00 0. -1.
         23    2    1    2    0    0 -0.98313653613E+01  0.23397054946E+02 -0.65539649020E+03  0.66263162310E+03  0.94297564398E+02 0.  0.
         11    1    3    3    0    0  0.28315957207E+02 -0.19555386914E+02 -0.14573443925E+03  0.14974222308E+03  0.00000000000E+00 0.  1.
        -11    1    3    3    0    0 -0.38147322569E+02  0.42952441860E+02 -0.50966205095E+03  0.51288940002E+03  0.00000000000E+00 0. -1.
         22    1    1    2    0    0  0.98313653613E+01 -0.23397054946E+02 -0.12600832156E+03  0.12853861298E+03  0.00000000000E+00 0.  1.
<mgrwt>
<rscale>  0 0.69723872E+02</rscale>
<asrwt>0</asrwt>
<pdfrwt beam="1">  1        2 0.12096735E+00 0.97653001E+02</pdfrwt>
<pdfrwt beam="2">  1       -2 0.75118623E-03 0.97653001E+02</pdfrwt>
<totfact> 0.10364904E+05</totfact>
</mgrwt>
</event>
<event>
 6    1  0.1535419E-002  0.9073957E+02  0.7546771E-02  0.1394573E+00
          2   -1    0    0  501    0  0.00000000000E+00  0.00000000000E+00  0.19570002279E+03  0.19570002279E+03  0.00000000000E+00 0. -1.
         -2   -1    0    0    0  501 -0.00000000000E+00 -0.00000000000E+00 -0.18118483167E+02  0.18118483167E+02  0.00000000000E+00 0.  1.
         23    2    1    2    0    0 -0.18016962459E+02 -0.30326631132E+01  0.17240983201E+03  0.19483023217E+03  0.88881163431E+02 0.  0.
         13    1    3    3    0    0 -0.32817024374E+01  0.23971035450E+02  0.15973825996E+03  0.16156018014E+03  0.00000000000E+00 0. -1.
        -13    1    3    3    0    0 -0.14735260022E+02 -0.27003698563E+02  0.12671572047E+02  0.33270052031E+02  0.00000000000E+00 0.  1.
         22    1    1    2    0    0  0.18016962459E+02  0.30326631132E+01  0.51717076182E+01  0.18988273789E+02  0.00000000000E+00 0. -1.
<mgrwt>
<rscale>  0 0.60783348E+02</rscale>
<asrwt>0</asrwt>
<pdfrwt beam="1">  1        2 0.30107694E-01 0.90739568E+02</pdfrwt>
<pdfrwt beam="2">  1       -2 0.27874591E-02 0.90739568E+02</pdfrwt>
<totfact> 0.71090097E+04</totfact>
</mgrwt>
</event>
<event>
 6    1  0.1535419E-002  0.2456701E+03  0.7546771E-02  0.1118876E+00
          2   -1    0    0  501    0  0.00000000000E+00  0.00000000000E+00  0.22172811833E+03  0.22172811833E+03  0.00000000000E+00 0. -1.
         -2   -1    0    0    0  501 -0.00000000000E+00 -0.00000000000E+00 -0.25665379917E+03  0.25665379917E+03  0.00000000000E+00 0.  1.
         23    2    1    2    0    0 -0.13219514292E+03  0.18694018000E+03 -0.42394451590E+02  0.24930121284E+03  0.89059634448E+02 0.  0.
         11    1    3    3    0    0 -0.10251089202E+03  0.90184453871E+02 -0.55232788547E+02  0.14728333114E+03  0.00000000000E+00 0. -1.
        -11    1    3    3    0    0 -0.29684250907E+02  0.96755726125E+02  0.12838336957E+02  0.10201788170E+03  0.00000000000E+00 0.  1.
         22    1    1    2    0    0  0.13219514292E+03 -0.18694018000E+03  0.74687707547E+01  0.22908070466E+03  0.00000000000E+00 0. -1.
<mgrwt>
<rscale>  0 0.24138131E+03</rscale>
<asrwt>0</asrwt>
<pdfrwt beam="1">  1        2 0.34112018E-01 0.24567011E+03</pdfrwt>
<pdfrwt beam="2">  1       -2 0.39485200E-01 0.24567011E+03</pdfrwt>
<totfact> 0.92921535E+02</totfact>
</mgrwt>
</event>
<event>
 6    1  0.1535419E-002  0.9546713E+02  0.7546771E-02  0.1362493E+00
         -4   -1    0    0    0  501 -0.00000000000E+00  0.00000000000E+00  0.22884564327E+02  0.22884564327E+02  0.00000000000E+00 0.  1.
          4   -1    0    0  501    0  0.00000000000E+00 -0.00000000000E+00 -0.31824759797E+03  0.31824759797E+03  0.00000000000E+00 0. -1.
         23    2    1    2    0    0  0.25584108201E+02  0.69313011881E+01 -0.29946164134E+03  0.31431075082E+03  0.91713597238E+02 0.  0.
         11    1    3    3    0    0 -0.16830091214E+01  0.44304405774E+02 -0.19639661867E+03  0.20133888029E+03  0.00000000000E+00 0. -1.
        -11    1    3    3    0    0  0.27267117322E+02 -0.37373104586E+02 -0.10306502267E+03  0.11297187053E+03  0.00000000000E+00 0.  1.
         22    1    1    2    0    0 -0.25584108201E+02 -0.69313011881E+01  0.40986076963E+01  0.26821411478E+02  0.00000000000E+00 0.  1.
<mgrwt>
<rscale>  0 0.69299184E+02</rscale>
<asrwt>0</asrwt>
<pdfrwt beam="1">  1        4 0.48961165E-01 0.95467133E+02</pdfrwt>
<pdfrwt beam="2">  1       -4 0.35207025E-02 0.95467133E+02</pdfrwt>
<totfact> 0.25535333E+03</totfact>
</mgrwt>
</event>
<event>
 6    1  0.1535419E-002  0.1247944E+03  0.7546771E-02  0.1255737E+00
         -3   -1    0    0    0  501 -0.00000000000E+00  0.00000000000E+00  0.39485522615E+02  0.39485522615E+02  0.00000000000E+00 0.  1.
          3   -1    0    0  501    0  0.00000000000E+00 -0.00000000000E+00 -0.27521151772E+03  0.27521151772E+03  0.00000000000E+00 0. -1.
         23    2    1    2    0    0 -0.81919966033E+02 -0.12464565289E+02 -0.15522399920E+03  0.19916861281E+03  0.93313451216E+02 0.  0.
         13    1    3    3    0    0  0.38602220256E+01  0.69898022154E+01 -0.88260039699E+02  0.88620501335E+02  0.00000000000E+00 0.  1.
        -13    1    3    3    0    0 -0.85780188058E+02 -0.19454367504E+02 -0.66963959498E+02  0.11054811147E+03  0.00000000000E+00 0. -1.
         22    1    1    2    0    0  0.81919966033E+02  0.12464565289E+02 -0.80501995912E+02  0.11552842753E+03  0.00000000000E+00 0.  1.
<mgrwt>
<rscale>  0 0.11265132E+03</rscale>
<asrwt>0</asrwt>
<pdfrwt beam="1">  1        3 0.42340232E-01 0.12479442E+03</pdfrwt>
<pdfrwt beam="2">  1       -3 0.60746960E-02 0.12479442E+03</pdfrwt>
<totfact> 0.20952002E+03</totfact>
</mgrwt>
</event>
<event>
 6    1  0.1535419E-002  0.9297125E+02  0.7546771E-02  0.1383518E+00
          2   -1    0    0  501    0  0.00000000000E+00  0.00000000000E+00  0.45958980534E+03  0.45958980534E+03  0.00000000000E+00 0.  1.
         -2   -1    0    0    0  501 -0.00000000000E+00 -0.00000000000E+00 -0.69871633153E+01  0.69871633153E+01  0.00000000000E+00 0. -1.
         23    2    1    2    0    0 -0.11000138880E+01 -0.20263863478E+02  0.36501775690E+03  0.37667176137E+03  0.90729371056E+02 0.  0.
         13    1    3    3    0    0 -0.30930816748E+02 -0.12229663587E+02  0.32198185412E+03  0.32369521850E+03  0.00000000000E+00 0.  1.
        -13    1    3    3    0    0  0.29830802860E+02 -0.80341998918E+01  0.43035902780E+02  0.52976542878E+02  0.00000000000E+00 0. -1.
         22    1    1    2    0    0  0.11000138880E+01  0.20263863478E+02  0.87584885129E+02  0.89905207283E+02  0.00000000000E+00 0.  1.
<mgrwt>
<rscale>  0 0.63547987E+02</rscale>
<asrwt>0</asrwt>
<pdfrwt beam="1">  1        2 0.70706100E-01 0.92971248E+02</pdfrwt>
<pdfrwt beam="2">  1       -2 0.10749486E-02 0.92971248E+02</pdfrwt>
<totfact> 0.11366926E+05</totfact>
</mgrwt>
</event>
<event>
 6    1  0.1535419E-002  0.9204998E+02  0.7546771E-02  0.1403280E+00
         -4   -1    0    0    0  501 -0.00000000000E+00  0.00000000000E+00  0.18869142766E+03  0.18869142766E+03  0.00000000000E+00 0.  1.
          4   -1    0    0  501    0  0.00000000000E+00 -0.00000000000E+00 -0.17899645870E+02  0.17899645870E+02  0.00000000000E+00 0. -1.
         23    2    1    2    0    0  0.71643640594E+01  0.13455243377E+02  0.10766951149E+03  0.14165423734E+03  0.90779003985E+02 0.  0.
         13    1    3    3    0    0  0.17518412129E+02  0.50317039432E+02  0.69699588915E+02  0.87731020258E+02  0.00000000000E+00 0. -1.
        -13    1    3    3    0    0 -0.10354048070E+02 -0.36861796055E+02  0.37969922575E+02  0.53923217079E+02  0.00000000000E+00 0.  1.
         22    1    1    2    0    0 -0.71643640594E+01 -0.13455243377E+02  0.63122270297E+02  0.64936836188E+02  0.00000000000E+00 0.  1.
<mgrwt>
<rscale>  0 0.58720627E+02</rscale>
<asrwt>0</asrwt>
<pdfrwt beam="1">  1        4 0.27537918E-02 0.92049982E+02</pdfrwt>
<pdfrwt beam="2">  1       -4 0.29029449E-01 0.92049982E+02</pdfrwt>
<totfact> 0.10197696E+04</totfact>
</mgrwt>
</event>
<event>
 6    1  0.1535419E-002  0.1005149E+03  0.7546771E-02  0.1405700E+00
          2   -1    0    0  501    0  0.00000000000E+00  0.00000000000E+00  0.14798997305E+04  0.14798997305E+04  0.00000000000E+00 0. -1.
         -2   -1    0    0    0  501 -0.00000000000E+00 -0.00000000000E+00 -0.27359577311E+01  0.27359577311E+01  0.00000000000E+00 0.  1.
         23    2    1    2    0    0  0.87522029160E+01 -0.71007796461E+01  0.14461261207E+04  0.14496151193E+04  0.99881004011E+02 0.  0.
         13    1    3    3    0    0 -0.44138156367E+02 -0.12493259250E+02  0.54785873984E+03  0.54977582449E+03  0.00000000000E+00 0. -1.
        -13    1    3    3    0    0  0.52890359283E+02  0.53924796041E+01  0.89826738084E+03  0.89983929477E+03  0.00000000000E+00 0.  1.
         22    1    1    2    0    0 -0.87522029160E+01  0.71007796461E+01  0.31037652047E+02  0.33020568924E+02  0.00000000000E+00 0. -1.
<mgrwt>
<rscale>  0 0.58164450E+02</rscale>
<asrwt>0</asrwt>
<pdfrwt beam="1">  1        2 0.22767624E+00 0.10051486E+03</pdfrwt>
<pdfrwt beam="2">  1       -2 0.42091776E-03 0.10051486E+03</pdfrwt>
<totfact> 0.94714009E+04</totfact>
</mgrwt>
</event>
<event>
 6    1  0.1535419E-002  0.1058467E+03  0.7546771E-02  0.1303703E+00
         -2   -1    0    0    0  501 -0.00000000000E+00  0.00000000000E+00  0.23218519885E+02  0.23218519885E+02  0.00000000000E+00 0.  1.
          2   -1    0    0  501    0  0.00000000000E+00 -0.00000000000E+00 -0.27705581975E+03  0.27705581975E+03  0.00000000000E+00 0. -1.
         23    2    1    2    0    0  0.32932335598E+02  0.43387081745E+02 -0.16269850993E+03  0.19409874629E+03  0.90755388764E+02 0.  0.
         13    1    3    3    0    0  0.29384897757E+02 -0.24040884412E+02 -0.66382492057E+02  0.76472685262E+02  0.00000000000E+00 0. -1.
        -13    1    3    3    0    0  0.35474378408E+01  0.67427966157E+02 -0.96316017871E+02  0.11762606103E+03  0.00000000000E+00 0.  1.
         22    1    1    2    0    0 -0.32932335598E+02 -0.43387081745E+02 -0.91138789939E+02  0.10617559334E+03  0.00000000000E+00 0. -1.
<mgrwt>
<rscale>  0 0.89649360E+02</rscale>
<asrwt>0</asrwt>
<pdfrwt beam="1">  1        2 0.42623974E-01 0.10584667E+03</pdfrwt>
<pdfrwt beam="2">  1       -2 0.35720799E-02 0.10584667E+03</pdfrwt>
<totfact> 0.34941751E+04</totfact>
</mgrwt>
</event>
<event>
 6    1  0.1535419E-002  0.9442472E+02  0.7546771E-02  0.1378750E+00
         -2   -1    0    0    0  501 -0.00000000000E+00  0.00000000000E+00  0.70821772030E+01  0.70821772030E+01  0.00000000000E+00 0.  1.
          2   -1    0    0  501    0  0.00000000000E+00 -0.00000000000E+00 -0.99312725389E+03  0.99312725389E+03  0.00000000000E+00 0. -1.
         23    2    1    2    0    0 -0.14001746802E+02 -0.15563256078E+02 -0.96793096362E+03  0.97252577264E+03  0.92074775397E+02 0.  0.
         13    1    3    3    0    0 -0.65489217006E+01 -0.48628162007E+02 -0.32309008729E+03  0.32679472306E+03  0.00000000000E+00 0.  1.
        -13    1    3    3    0    0 -0.74528251010E+01  0.33064905929E+02 -0.64484087633E+03  0.64573104958E+03  0.00000000000E+00 0. -1.
         22    1    1    2    0    0  0.14001746802E+02  0.15563256078E+02 -0.18114113076E+02  0.27683658461E+02  0.00000000000E+00 0.  1.
<mgrwt>
<rscale>  0 0.64793471E+02</rscale>
<asrwt>0</asrwt>
<pdfrwt beam="1">  1        2 0.15278870E+00 0.94424722E+02</pdfrwt>
<pdfrwt beam="2">  1       -2 0.10895665E-02 0.94424722E+02</pdfrwt>
<totfact> 0.45249056E+04</totfact>
</mgrwt>
</event>
<event>
 6    1  0.1535419E-002  0.9306651E+02  0.7546771E-02  0.1394587E+00
          2   -1    0    0  501    0  0.00000000000E+00  0.00000000000E+00  0.40739739977E+03  0.40739739977E+03  0.00000000000E+00 0. -1.
         -2   -1    0    0    0  501 -0.00000000000E+00 -0.00000000000E+00 -0.75467911372E+01  0.75467911372E+01  0.00000000000E+00 0.  1.
         23    2    1    2    0    0  0.16427152511E+02  0.40967209908E+01  0.35525232825E+03  0.36724051102E+03  0.91513615044E+02 0.  0.
         11    1    3    3    0    0  0.39777566413E+02 -0.16439216888E+02  0.30586825063E+03  0.30888167538E+03  0.00000000000E+00 0. -1.
        -11    1    3    3    0    0 -0.23350413902E+02  0.20535937879E+02  0.49384077620E+02  0.58358835632E+02  0.00000000000E+00 0.  1.
         22    1    1    2    0    0 -0.16427152511E+02 -0.40967209908E+01  0.44598280382E+02  0.47703679895E+02  0.00000000000E+00 0. -1.
<mgrwt>
<rscale>  0 0.60780062E+02</rscale>
<asrwt>0</asrwt>
<pdfrwt beam="1">  1        2 0.62676506E-01 0.93066515E+02</pdfrwt>
<pdfrwt beam="2">  1       -2 0.11610451E-02 0.93066515E+02</pdfrwt>
<totfact> 0.11582519E+05</totfact>
</mgrwt>
</event>
<event>
 6    1  0.1535419E-002  0.9712387E+02  0.7546771E-02  0.1357288E+00
         -2   -1    0    0    0  501 -0.00000000000E+00  0.00000000000E+00  0.20908101667E+03  0.20908101667E+03  0.00000000000E+00 0.  1.
          2   -1    0    0  501    0  0.00000000000E+00 -0.00000000000E+00 -0.21506936993E+02  0.21506936993E+02  0.00000000000E+00 0. -1.
         23    2    1    2    0    0  0.27416139846E+02  0.17876064511E+01  0.10258450686E+03  0.14126792372E+03  0.93156883612E+02 0.  0.
         13    1    3    3    0    0  0.40799378192E+02  0.86460899955E+01  0.43982697382E+01  0.41936725072E+02  0.00000000000E+00 0. -1.
        -13    1    3    3    0    0 -0.13383238346E+02 -0.68584835444E+01  0.98186237123E+02  0.99331198651E+02  0.00000000000E+00 0.  1.
         22    1    1    2    0    0 -0.27416139846E+02 -0.17876064511E+01  0.84989572816E+02  0.89320029940E+02  0.00000000000E+00 0.  1.
<mgrwt>
<rscale>  0 0.70831486E+02</rscale>
<asrwt>0</asrwt>
<pdfrwt beam="1">  1        2 0.33087597E-02 0.97123865E+02</pdfrwt>
<pdfrwt beam="2">  1       -2 0.32166309E-01 0.97123865E+02</pdfrwt>
<totfact> 0.21861459E+04</totfact>
</mgrwt>
</event>
<event>
 6    1  0.1535419E-002  0.8881861E+02  0.7546771E-02  0.1407705E+00
         -2   -1    0    0    0  501 -0.00000000000E+00  0.00000000000E+00  0.11789653334E+03  0.11789653334E+03  0.00000000000E+00 0.  1.
          2   -1    0    0  501    0  0.00000000000E+00 -0.00000000000E+00 -0.30975429313E+02  0.30975429313E+02  0.00000000000E+00 0. -1.
         23    2    1    2    0    0 -0.14464752371E+02 -0.64300026231E+01  0.36502761116E+02  0.96027064160E+02  0.87396633157E+02 0.  0.
         13    1    3    3    0    0 -0.50742151124E+01 -0.16327186242E+02 -0.26514930839E+02  0.31549425145E+02  0.00000000000E+00 0. -1.
        -13    1    3    3    0    0 -0.93905372587E+01  0.98971836193E+01  0.63017691955E+02  0.64477639015E+02  0.00000000000E+00 0.  1.
         22    1    1    2    0    0  0.14464752371E+02  0.64300026231E+01  0.50418342914E+02  0.52844898496E+02  0.00000000000E+00 0.  1.
<mgrwt>
<rscale>  0 0.57709190E+02</rscale>
<asrwt>0</asrwt>
<pdfrwt beam="1">  1        2 0.47654507E-02 0.88818610E+02</pdfrwt>
<pdfrwt beam="2">  1       -2 0.18137928E-01 0.88818610E+02</pdfrwt>
<totfact> 0.36002467E+04</totfact>
</mgrwt>
</event>
<event>
 6    1  0.1535419E-002  0.9224693E+02  0.7546771E-02  0.1398861E+00
         -2   -1    0    0    0  501 -0.00000000000E+00  0.00000000000E+00  0.51585285056E+01  0.51585285056E+01  0.00000000000E+00 0.  1.
          2   -1    0    0  501    0  0.00000000000E+00 -0.00000000000E+00 -0.89099551771E+03  0.89099551771E+03  0.00000000000E+00 0. -1.
         23    2    1    2    0    0 -0.25464577374E+01 -0.16041746102E+02 -0.86414594621E+03  0.86905564384E+03  0.90805691875E+02 0.  0.
         11    1    3    3    0    0 -0.26751037278E+02 -0.46130875100E+02 -0.46591787281E+03  0.46895963562E+03  0.00000000000E+00 0. -1.
        -11    1    3    3    0    0  0.24204579540E+02  0.30089128998E+02 -0.39822807340E+03  0.40009600823E+03  0.00000000000E+00 0.  1.
         22    1    1    2    0    0  0.25464577374E+01  0.16041746102E+02 -0.21691042991E+02  0.27098402371E+02  0.00000000000E+00 0.  1.
<mgrwt>
<rscale>  0 0.59755492E+02</rscale>
<asrwt>0</asrwt>
<pdfrwt beam="1">  1        2 0.13707629E+00 0.92246928E+02</pdfrwt>
<pdfrwt beam="2">  1       -2 0.79361945E-03 0.92246928E+02</pdfrwt>
<totfact> 0.81468963E+04</totfact>
</mgrwt>
</event>
<event>
 6    1  0.1535419E-002  0.9751119E+02  0.7546771E-02  0.1346063E+00
          2   -1    0    0  501    0  0.00000000000E+00  0.00000000000E+00  0.25455224169E+03  0.25455224169E+03  0.00000000000E+00 0. -1.
         -2   -1    0    0    0  501 -0.00000000000E+00 -0.00000000000E+00 -0.39013664429E+02  0.39013664429E+02  0.00000000000E+00 0.  1.
         23    2    1    2    0    0 -0.26413275708E+02 -0.19554117447E+02  0.23565596905E+03  0.25503365865E+03  0.91806354111E+02 0.  0.
         11    1    3    3    0    0 -0.47765981479E+02 -0.54765991731E+01  0.57057647269E+02  0.74613385106E+02  0.00000000000E+00 0.  1.
        -11    1    3    3    0    0  0.21352705770E+02 -0.14077518274E+02  0.17859832178E+03  0.18042027355E+03  0.00000000000E+00 0. -1.
         22    1    1    2    0    0  0.26413275708E+02  0.19554117447E+02 -0.20117391785E+02  0.38532247469E+02  0.00000000000E+00 0.  1.
<mgrwt>
<rscale>  0 0.74296787E+02</rscale>
<asrwt>0</asrwt>
<pdfrwt beam="1">  1        2 0.39161882E-01 0.97511186E+02</pdfrwt>
<pdfrwt beam="2">  1       -2 0.60021024E-02 0.97511186E+02</pdfrwt>
<totfact> 0.17516383E+04</totfact>
</mgrwt>
</event>
<event>
 6    1  0.1535419E-002  0.9168871E+02  0.7546771E-02  0.1418695E+00
         -2   -1    0    0    0  501 -0.00000000000E+00  0.00000000000E+00  0.67966244621E+01  0.67966244621E+01  0.00000000000E+00 0.  1.
          2   -1    0    0  501    0  0.00000000000E+00 -0.00000000000E+00 -0.10131977593E+04  0.10131977593E+04  0.00000000000E+00 0. -1.
         23    2    1    2    0    0 -0.11877904327E+02 -0.24642893844E+01 -0.10032900425E+04  0.10074709565E+04  0.90882680345E+02 0.  0.
         11    1    3    3    0    0  0.36776032412E+02 -0.11828521711E+02 -0.58127982560E+03  0.58256212213E+03  0.00000000000E+00 0. -1.
        -11    1    3    3    0    0 -0.48653936739E+02  0.93642323263E+01 -0.42201021689E+03  0.42490883442E+03  0.00000000000E+00 0.  1.
         22    1    1    2    0    0  0.11877904327E+02  0.24642893844E+01 -0.31110923314E+01  0.12523427202E+02  0.00000000000E+00 0.  1.
<mgrwt>
<rscale>  0 0.55298025E+02</rscale>
<asrwt>0</asrwt>
<pdfrwt beam="1">  1        2 0.15587649E+00 0.91688707E+02</pdfrwt>
<pdfrwt beam="2">  1       -2 0.10456351E-02 0.91688707E+02</pdfrwt>
<totfact> 0.46540442E+04</totfact>
</mgrwt>
</event>
<event>
 6    1  0.1535419E-002  0.9510246E+02  0.7546771E-02  0.1387319E+00
         -4   -1    0    0    0  501 -0.00000000000E+00  0.00000000000E+00  0.32081634704E+02  0.32081634704E+02  0.00000000000E+00 0.  1.
          4   -1    0    0  501    0  0.00000000000E+00 -0.00000000000E+00 -0.10206541679E+03  0.10206541679E+03  0.00000000000E+00 0. -1.
         23    2    1    2    0    0 -0.14066343366E+02  0.10954790015E+02 -0.66326538124E+02  0.11594691761E+03  0.93416318721E+02 0.  0.
         11    1    3    3    0    0 -0.49822031529E+02  0.78976309284E+01 -0.13738918798E+02  0.52281596090E+02  0.00000000000E+00 0. -1.
        -11    1    3    3    0    0  0.35755688163E+02  0.30571590865E+01 -0.52587619326E+02  0.63665321518E+02  0.00000000000E+00 0.  1.
         22    1    1    2    0    0  0.14066343366E+02 -0.10954790015E+02 -0.36572439574E+01  0.18200133882E+02  0.00000000000E+00 0.  1.
<mgrwt>
<rscale>  0 0.62578466E+02</rscale>
<asrwt>0</asrwt>
<pdfrwt beam="1">  1        4 0.15702372E-01 0.95102461E+02</pdfrwt>
<pdfrwt beam="2">  1       -4 0.49356361E-02 0.95102461E+02</pdfrwt>
<totfact> 0.12447443E+04</totfact>
</mgrwt>
</event>
<event>
 6    1  0.1535419E-002  0.3089242E+03  0.7546771E-02  0.1082539E+00
          2   -1    0    0  501    0  0.00000000000E+00  0.00000000000E+00  0.10949512755E+04  0.10949512755E+04  0.00000000000E+00 0. -1.
         -2   -1    0    0    0  501 -0.00000000000E+00 -0.00000000000E+00 -0.84300295974E+02  0.84300295974E+02  0.00000000000E+00 0.  1.
         23    2    1    2    0    0  0.28902498279E+03  0.60690906762E+02  0.45446849266E+03  0.54952322882E+03  0.90638520231E+02 0.  0.
         11    1    3    3    0    0  0.24698914379E+02  0.11989184652E+02  0.83526197770E+01  0.28697441999E+02  0.00000000000E+00 0.  1.
        -11    1    3    3    0    0  0.26432606841E+03  0.48701722110E+02  0.44611587288E+03  0.52082578682E+03  0.00000000000E+00 0. -1.
         22    1    1    2    0    0 -0.28902498279E+03 -0.60690906762E+02  0.55618248682E+03  0.62972834261E+03  0.00000000000E+00 0.  1.
<mgrwt>
<rscale>  0 0.30546766E+03</rscale>
<asrwt>0</asrwt>
<pdfrwt beam="1">  1        2 0.16845403E+00 0.30892421E+03</pdfrwt>
<pdfrwt beam="2">  1       -2 0.12969277E-01 0.30892421E+03</pdfrwt>
<totfact> 0.10018175E+03</totfact>
</mgrwt>
</event>
<event>
 6    1  0.1535419E-002  0.9583219E+02  0.7546771E-02  0.1367118E+00
         -4   -1    0    0    0  501 -0.00000000000E+00  0.00000000000E+00  0.17470440073E+02  0.17470440073E+02  0.00000000000E+00 0.  1.
          4   -1    0    0  501    0  0.00000000000E+00 -0.00000000000E+00 -0.20669372275E+03  0.20669372275E+03  0.00000000000E+00 0. -1.
         23    2    1    2    0    0  0.20449735396E+01 -0.24172055369E+02 -0.14736938159E+03  0.17578835055E+03  0.92711053164E+02 0.  0.
         11    1    3    3    0    0  0.11679339966E+02  0.25594326642E+02 -0.10800341237E+03  0.11160740845E+03  0.00000000000E+00 0. -1.
        -11    1    3    3    0    0 -0.96343664262E+01 -0.49766382011E+02 -0.39365969224E+02  0.64180942092E+02  0.00000000000E+00 0.  1.
         22    1    1    2    0    0 -0.20449735396E+01  0.24172055369E+02 -0.41853901084E+02  0.48375812277E+02  0.00000000000E+00 0. -1.
<mgrwt>
<rscale>  0 0.67974987E+02</rscale>
<asrwt>0</asrwt>
<pdfrwt beam="1">  1        4 0.31799035E-01 0.95832195E+02</pdfrwt>
<pdfrwt beam="2">  1       -4 0.26877599E-02 0.95832195E+02</pdfrwt>
<totfact> 0.90278787E+03</totfact>
</mgrwt>
</event>
<event>
 6    1  0.1535419E-002  0.9498159E+02  0.7546771E-02  0.1353169E+00
          2   -1    0    0  501    0  0.00000000000E+00  0.00000000000E+00  0.90153100575E+03  0.90153100575E+03  0.00000000000E+00 0. -1.
         -2   -1    0    0    0  501 -0.00000000000E+00 -0.00000000000E+00 -0.64269482833E+01  0.64269482833E+01  0.00000000000E+00 0.  1.
         23    2    1    2    0    0 -0.14672469851E+02  0.27870904966E+02  0.83226198992E+03  0.83766432581E+03  0.89607109958E+02 0.  0.
         13    1    3    3    0    0 -0.36949285557E+02 -0.43895091286E+01  0.65780418789E+03  0.65885572556E+03  0.00000000000E+00 0. -1.
        -13    1    3    3    0    0  0.22276815706E+02  0.32260414094E+02  0.17445780203E+03  0.17880860025E+03  0.00000000000E+00 0.  1.
         22    1    1    2    0    0  0.14672469851E+02 -0.27870904966E+02  0.62842067546E+02  0.70293628222E+02  0.00000000000E+00 0.  1.
<mgrwt>
<rscale>  0 0.72077100E+02</rscale>
<asrwt>0</asrwt>
<pdfrwt beam="1">  1        2 0.13869698E+00 0.94981592E+02</pdfrwt>
<pdfrwt beam="2">  1       -2 0.98876199E-03 0.94981592E+02</pdfrwt>
<totfact> 0.59018883E+04</totfact>
</mgrwt>
</event>
<event>
 6    1  0.1535419E-002  0.9425575E+02  0.7546771E-02  0.1382749E+00
          2   -1    0    0  501    0  0.00000000000E+00  0.00000000000E+00  0.50324975943E+03  0.50324975943E+03  0.00000000000E+00 0. -1.
         -2   -1    0    0    0  501 -0.00000000000E+00 -0.00000000000E+00 -0.89927815486E+01  0.89927815486E+01  0.00000000000E+00 0.  1.
         23    2    1    2    0    0  0.19643790305E+02 -0.17311875458E+01  0.47641380419E+03  0.48564828680E+03  0.92169789735E+02 0.  0.
         11    1    3    3    0    0  0.52209693642E+02  0.16153007400E+02  0.22722074044E+03  0.23370074164E+03  0.00000000000E+00 0.  1.
        -11    1    3    3    0    0 -0.32565903337E+02 -0.17884194945E+02  0.24919306375E+03  0.25194754516E+03  0.00000000000E+00 0. -1.
         22    1    1    2    0    0 -0.19643790305E+02  0.17311875458E+01  0.17843173683E+02  0.26594254172E+02  0.00000000000E+00 0.  1.
<mgrwt>
<rscale>  0 0.63746626E+02</rscale>
<asrwt>0</asrwt>
<pdfrwt beam="1">  1        2 0.77423018E-01 0.94255746E+02</pdfrwt>
<pdfrwt beam="2">  1       -2 0.13835052E-02 0.94255746E+02</pdfrwt>
<totfact> 0.72153786E+04</totfact>
</mgrwt>
</event>
<event>
 6    1  0.1535419E-002  0.9348870E+02  0.7546771E-02  0.1393977E+00
          2   -1    0    0  501    0  0.00000000000E+00  0.00000000000E+00  0.61563275010E+02  0.61563275010E+02  0.00000000000E+00 0. -1.
         -2   -1    0    0    0  501 -0.00000000000E+00 -0.00000000000E+00 -0.58965157922E+02  0.58965157922E+02  0.00000000000E+00 0.  1.
         23    2    1    2    0    0  0.12866703745E+02  0.10903683941E+02  0.20736286848E+02  0.95760801010E+02  0.91954853211E+02 0.  0.
         13    1    3    3    0    0  0.50279270127E+02  0.21277637222E+02  0.10312155386E+02  0.55561528048E+02  0.00000000000E+00 0. -1.
        -13    1    3    3    0    0 -0.37412566382E+02 -0.10373953281E+02  0.10424131463E+02  0.40199272963E+02  0.00000000000E+00 0.  1.
         22    1    1    2    0    0 -0.12866703745E+02 -0.10903683941E+02 -0.18138169760E+02  0.24767631922E+02  0.00000000000E+00 0.  1.
<mgrwt>
<rscale>  0 0.60928241E+02</rscale>
<asrwt>0</asrwt>
<pdfrwt beam="1">  1        2 0.94712731E-02 0.93488702E+02</pdfrwt>
<pdfrwt beam="2">  1       -2 0.90715628E-02 0.93488702E+02</pdfrwt>
<totfact> 0.46070095E+04</totfact>
</mgrwt>
</event>
<event>
 6    1  0.1535419E-002  0.9608480E+02  0.7546771E-02  0.1422096E+00
         -1   -1    0    0    0  501 -0.00000000000E+00  0.00000000000E+00  0.36908676612E+02  0.36908676612E+02  0.00000000000E+00 0.  1.
          1   -1    0    0  501    0  0.00000000000E+00 -0.00000000000E+00 -0.78637644650E+02  0.78637644650E+02  0.00000000000E+00 0. -1.
         23    2    1    2    0    0 -0.97450280321E+01 -0.22606866133E+01 -0.43351517240E+02  0.10541177928E+03  0.95562612397E+02 0.  0.
         13    1    3    3    0    0 -0.91856811367E+01 -0.43896030943E+01 -0.73993627332E+02  0.74690710527E+02  0.00000000000E+00 0. -1.
        -13    1    3    3    0    0 -0.55934689541E+00  0.21289164809E+01  0.30642110092E+02  0.30721068751E+02  0.00000000000E+00 0.  1.
         22    1    1    2    0    0  0.97450280321E+01  0.22606866133E+01  0.16225492014E+01  0.10134541984E+02  0.00000000000E+00 0. -1.
<mgrwt>
<rscale>  0 0.54579860E+02</rscale>
<asrwt>0</asrwt>
<pdfrwt beam="1">  1        1 0.12098099E-01 0.96084802E+02</pdfrwt>
<pdfrwt beam="2">  1       -1 0.56782580E-02 0.96084802E+02</pdfrwt>
<totfact> 0.62130907E+04</totfact>
</mgrwt>
</event>
<event>
 6    1  0.1535419E-002  0.8973167E+02  0.7546771E-02  0.1430492E+00
         -2   -1    0    0    0  501 -0.00000000000E+00  0.00000000000E+00  0.82627111396E+01  0.82627111396E+01  0.00000000000E+00 0.  1.
          2   -1    0    0  501    0  0.00000000000E+00 -0.00000000000E+00 -0.41161908769E+03  0.41161908769E+03  0.00000000000E+00 0. -1.
         23    2    1    2    0    0 -0.16686632091E+01  0.10677640004E+02 -0.39767365009E+03  0.40767156488E+03  0.89078484524E+02 0.  0.
         13    1    3    3    0    0  0.37993548874E+02  0.26809539997E+02 -0.18741466747E+03  0.19309717444E+03  0.00000000000E+00 0. -1.
        -13    1    3    3    0    0 -0.39662212083E+02 -0.16131899993E+02 -0.21025898262E+03  0.21457439045E+03  0.00000000000E+00 0.  1.
         22    1    1    2    0    0  0.16686632091E+01 -0.10677640004E+02 -0.56827264566E+01  0.12210233943E+02  0.00000000000E+00 0.  1.
<mgrwt>
<rscale>  0 0.52861321E+02</rscale>
<asrwt>0</asrwt>
<pdfrwt beam="1">  1        2 0.63326023E-01 0.89731671E+02</pdfrwt>
<pdfrwt beam="2">  1       -2 0.12711861E-02 0.89731671E+02</pdfrwt>
<totfact> 0.10018715E+05</totfact>
</mgrwt>
</event>
<event>
 6    1  0.1535419E-002  0.9247547E+02  0.7546771E-02  0.1420006E+00
         -2   -1    0    0    0  501 -0.00000000000E+00  0.00000000000E+00  0.39263157133E+01  0.39263157133E+01  0.00000000000E+00 0.  1.
          2   -1    0    0  501    0  0.00000000000E+00 -0.00000000000E+00 -0.10345340765E+04  0.10345340765E+04  0.00000000000E+00 0. -1.
         23    2    1    2    0    0  0.99520956864E+01 -0.59351107558E+01 -0.10140095929E+04  0.10182176423E+04  0.91746622720E+02 0.  0.
         11    1    3    3    0    0  0.82787347828E+01  0.41165556332E+02 -0.61552849222E+03  0.61695904662E+03  0.00000000000E+00 0. -1.
        -11    1    3    3    0    0  0.16733609036E+01 -0.47100667087E+02 -0.39848110067E+03  0.40125859563E+03  0.00000000000E+00 0.  1.
         22    1    1    2    0    0 -0.99520956864E+01  0.59351107558E+01 -0.16598167887E+02  0.20242749948E+02  0.00000000000E+00 0. -1.
<mgrwt>
<rscale>  0 0.55019569E+02</rscale>
<asrwt>0</asrwt>
<pdfrwt beam="1">  1        2 0.15915930E+00 0.92475470E+02</pdfrwt>
<pdfrwt beam="2">  1       -2 0.60404778E-03 0.92475470E+02</pdfrwt>
<totfact> 0.98200126E+04</totfact>
</mgrwt>
</event>
<event>
 6    1  0.1535419E-002  0.9889433E+02  0.7546771E-02  0.1335185E+00
         -2   -1    0    0    0  501 -0.00000000000E+00  0.00000000000E+00  0.31984753304E+02  0.31984753304E+02  0.00000000000E+00 0.  1.
          2   -1    0    0  501    0  0.00000000000E+00 -0.00000000000E+00 -0.20482413597E+03  0.20482413597E+03  0.00000000000E+00 0. -1.
         23    2    1    2    0    0 -0.17817501249E+02 -0.33598302270E+02 -0.17242949619E+03  0.19877630755E+03  0.91289539486E+02 0.  0.
         13    1    3    3    0    0  0.26390869903E+02  0.11625434813E+02 -0.24298619062E+02  0.37710099936E+02  0.00000000000E+00 0.  1.
        -13    1    3    3    0    0 -0.44208371152E+02 -0.45223737083E+02 -0.14813087713E+03  0.16106620761E+03  0.00000000000E+00 0. -1.
         22    1    1    2    0    0  0.17817501249E+02  0.33598302270E+02 -0.40988647972E+00  0.38032581730E+02  0.00000000000E+00 0.  1.
<mgrwt>
<rscale>  0 0.77877357E+02</rscale>
<asrwt>0</asrwt>
<pdfrwt beam="1">  1        2 0.31511405E-01 0.98894334E+02</pdfrwt>
<pdfrwt beam="2">  1       -2 0.49207313E-02 0.98894334E+02</pdfrwt>
<totfact> 0.29727900E+04</totfact>
</mgrwt>
</event>
<event>
 6    1  0.1535419E-002  0.9740124E+02  0.7546771E-02  0.1344614E+00
          2   -1    0    0  501    0  0.00000000000E+00  0.00000000000E+00  0.54764051150E+02  0.54764051150E+02  0.00000000000E+00 0.  1.
         -2   -1    0    0    0  501 -0.00000000000E+00 -0.00000000000E+00 -0.10437141424E+03  0.10437141424E+03  0.00000000000E+00 0. -1.
         23    2    1    2    0    0  0.11590240072E+02 -0.31757342948E+02  0.20226642919E+01  0.97422239712E+02  0.91346259495E+02 0.  0.
         13    1    3    3    0    0  0.97044954636E+01 -0.44215642945E+02  0.38125316053E+02  0.59183950843E+02  0.00000000000E+00 0.  1.
        -13    1    3    3    0    0  0.18857446082E+01  0.12458299997E+02 -0.36102651761E+02  0.38238288870E+02  0.00000000000E+00 0. -1.
         22    1    1    2    0    0 -0.11590240072E+02  0.31757342948E+02 -0.51630027379E+02  0.61713225675E+02  0.00000000000E+00 0. -1.
<mgrwt>
<rscale>  0 0.74760572E+02</rscale>
<asrwt>0</asrwt>
<pdfrwt beam="1">  1        2 0.84252386E-02 0.97401240E+02</pdfrwt>
<pdfrwt beam="2">  1       -2 0.16057141E-01 0.97401240E+02</pdfrwt>
<totfact> 0.21623756E+04</totfact>
</mgrwt>
</event>
<event>
 6    1  0.1535419E-002  0.9087164E+02  0.7546771E-02  0.1426432E+00
         -2   -1    0    0    0  501 -0.00000000000E+00  0.00000000000E+00  0.11518276372E+03  0.11518276372E+03  0.00000000000E+00 0.  1.
          2   -1    0    0  501    0  0.00000000000E+00 -0.00000000000E+00 -0.24102027563E+02  0.24102027563E+02  0.00000000000E+00 0. -1.
         23    2    1    2    0    0  0.76309036477E+01 -0.80165433509E+01  0.67379421700E+02  0.11312665747E+03  0.90195113522E+02 0.  0.
         13    1    3    3    0    0 -0.19608734945E+02  0.18536702899E+02  0.69975382500E+02  0.74997773277E+02  0.00000000000E+00 0.  1.
        -13    1    3    3    0    0  0.27239638592E+02 -0.26553246250E+02 -0.25959608003E+01  0.38128884189E+02  0.00000000000E+00 0. -1.
         22    1    1    2    0    0 -0.76309036477E+01  0.80165433509E+01  0.23701314452E+02  0.26158133812E+02  0.00000000000E+00 0.  1.
<mgrwt>
<rscale>  0 0.53682947E+02</rscale>
<asrwt>0</asrwt>
<pdfrwt beam="1">  1        2 0.37080043E-02 0.90871636E+02</pdfrwt>
<pdfrwt beam="2">  1       -2 0.17720425E-01 0.90871636E+02</pdfrwt>
<totfact> 0.52062541E+04</totfact>
</mgrwt>
</event>
<event>
 6    1  0.1535419E-002  0.8947094E+02  0.7546771E-02  0.1396211E+00
         -2   -1    0    0    0  501 -0.00000000000E+00  0.00000000000E+00  0.98911019511E+02  0.98911019511E+02  0.00000000000E+00 0.  1.
          2   -1    0    0  501    0  0.00000000000E+00 -0.00000000000E+00 -0.33116720071E+02  0.33116720071E+02  0.00000000000E+00 0. -1.
         23    2    1    2    0    0  0.16935459772E+02  0.76120944426E+01  0.35008748929E+02  0.96076329321E+02  0.87523109947E+02 0.  0.
         11    1    3    3    0    0 -0.32978588442E+02  0.12442979352E+02  0.28855845311E+02  0.45552989357E+02  0.00000000000E+00 0.  1.
        -11    1    3    3    0    0  0.49914048214E+02 -0.48308849093E+01  0.61529036183E+01  0.50523339964E+02  0.00000000000E+00 0. -1.
         22    1    1    2    0    0 -0.16935459772E+02 -0.76120944426E+01  0.30785550511E+02  0.35951410261E+02  0.00000000000E+00 0.  1.
<mgrwt>
<rscale>  0 0.60387927E+02</rscale>
<asrwt>0</asrwt>
<pdfrwt beam="1">  1        2 0.50948801E-02 0.89470937E+02</pdfrwt>
<pdfrwt beam="2">  1       -2 0.15217080E-01 0.89470937E+02</pdfrwt>
<totfact> 0.44065191E+04</totfact>
</mgrwt>
</event>
<event>
 6    1  0.1535419E-002  0.1921584E+03  0.7546771E-02  0.1161993E+00
         -2   -1    0    0    0  501 -0.00000000000E+00  0.00000000000E+00  0.15528759211E+02  0.15528759211E+02  0.00000000000E+00 0.  1.
          2   -1    0    0  501    0  0.00000000000E+00 -0.00000000000E+00 -0.25400135384E+04  0.25400135384E+04  0.00000000000E+00 0. -1.
         23    2    1    2    0    0  0.22088285185E+01  0.16916596168E+03 -0.18583945254E+04  0.18683027268E+04  0.91120060207E+02 0.  0.
         11    1    3    3    0    0  0.44561561355E+02  0.11288494647E+03 -0.12300906144E+04  0.12360629691E+04  0.00000000000E+00 0. -1.
        -11    1    3    3    0    0 -0.42352732836E+02  0.56281015204E+02 -0.62830391101E+03  0.63223975772E+03  0.00000000000E+00 0.  1.
         22    1    1    2    0    0 -0.22088285185E+01 -0.16916596168E+03 -0.66609025381E+03  0.68723957085E+03  0.00000000000E+00 0.  1.
<mgrwt>
<rscale>  0 0.18613674E+03</rscale>
<asrwt>0</asrwt>
<pdfrwt beam="1">  1        2 0.39077187E+00 0.19215844E+03</pdfrwt>
<pdfrwt beam="2">  1       -2 0.23890365E-02 0.19215844E+03</pdfrwt>
<totfact> 0.22826527E+03</totfact>
</mgrwt>
</event>
<event>
 6    1  0.1535419E-002  0.9696372E+02  0.7546771E-02  0.1368577E+00
         -2   -1    0    0    0  501 -0.00000000000E+00  0.00000000000E+00  0.13191307085E+02  0.13191307085E+02  0.00000000000E+00 0.  1.
          2   -1    0    0  501    0  0.00000000000E+00 -0.00000000000E+00 -0.18900947055E+04  0.18900947055E+04  0.00000000000E+00 0. -1.
         23    2    1    2    0    0  0.78393600705E+01  0.21471905156E+02 -0.18779042447E+04  0.18804058909E+04  0.94230906995E+02 0.  0.
         11    1    3    3    0    0  0.41951869177E+01 -0.37496130903E+02 -0.78404777838E+03  0.78495508038E+03  0.00000000000E+00 0.  1.
        -11    1    3    3    0    0  0.36441731527E+01  0.58968036059E+02 -0.10938564663E+04  0.10954508105E+04  0.00000000000E+00 0. -1.
         22    1    1    2    0    0 -0.78393600705E+01 -0.21471905156E+02  0.10008462776E+01  0.22880121735E+02  0.00000000000E+00 0.  1.
<mgrwt>
<rscale>  0 0.67564341E+02</rscale>
<asrwt>0</asrwt>
<pdfrwt beam="1">  1        2 0.29078391E+00 0.96963715E+02</pdfrwt>
<pdfrwt beam="2">  1       -2 0.20294311E-02 0.96963715E+02</pdfrwt>
<totfact> 0.62921083E+03</totfact>
</mgrwt>
</event>
<event>
 6    1  0.1535419E-002  0.9375383E+02  0.7546771E-02  0.1385501E+00
         -4   -1    0    0    0  501 -0.00000000000E+00  0.00000000000E+00  0.11554667797E+03  0.11554667797E+03  0.00000000000E+00 0. -1.
          4   -1    0    0  501    0  0.00000000000E+00 -0.00000000000E+00 -0.34775427416E+02  0.34775427416E+02  0.00000000000E+00 0.  1.
         23    2    1    2    0    0  0.10370867112E+02  0.16115362418E+02  0.33917169052E+02  0.99700324067E+02  0.91774290911E+02 0.  0.
         11    1    3    3    0    0 -0.13102230261E+02  0.49293220236E+02  0.29236187696E+02  0.58789834751E+02  0.00000000000E+00 0. -1.
        -11    1    3    3    0    0  0.23473097373E+02 -0.33177857818E+02  0.46809813558E+01  0.40910489317E+02  0.00000000000E+00 0.  1.
         22    1    1    2    0    0 -0.10370867112E+02 -0.16115362418E+02  0.46854081498E+02  0.50621781315E+02  0.00000000000E+00 0. -1.
<mgrwt>
<rscale>  0 0.63039597E+02</rscale>
<asrwt>0</asrwt>
<pdfrwt beam="1">  1        4 0.53500658E-02 0.93753828E+02</pdfrwt>
<pdfrwt beam="2">  1       -4 0.17776412E-01 0.93753828E+02</pdfrwt>
<totfact> 0.87700433E+03</totfact>
</mgrwt>
</event>
<event>
 6    1  0.1535419E-002  0.1038444E+03  0.7546771E-02  0.1329418E+00
          3   -1    0    0  501    0  0.00000000000E+00  0.00000000000E+00  0.31849967688E+02  0.31849967688E+02  0.00000000000E+00 0. -1.
         -3   -1    0    0    0  501 -0.00000000000E+00 -0.00000000000E+00 -0.16568556842E+03  0.16568556842E+03  0.00000000000E+00 0.  1.
         23    2    1    2    0    0  0.14005376294E+02 -0.33534785754E+02 -0.73946089581E+02  0.12748208532E+03  0.97277569324E+02 0.  0.
         13    1    3    3    0    0  0.21727735970E+02 -0.57117297550E+02 -0.14129516681E+02  0.62722591077E+02  0.00000000000E+00 0. -1.
        -13    1    3    3    0    0 -0.77223596766E+01  0.23582511796E+02 -0.59816572900E+02  0.64759494247E+02  0.00000000000E+00 0.  1.
         22    1    1    2    0    0 -0.14005376294E+02  0.33534785754E+02 -0.59889511150E+02  0.70053450782E+02  0.00000000000E+00 0.  1.
<mgrwt>
<rscale>  0 0.79871004E+02</rscale>
<asrwt>0</asrwt>
<pdfrwt beam="1">  1        3 0.48999950E-02 0.10384439E+03</pdfrwt>
<pdfrwt beam="2">  1       -3 0.25490087E-01 0.10384439E+03</pdfrwt>
<totfact> 0.73127697E+03</totfact>
</mgrwt>
</event>
<event>
 6    1  0.1535419E-002  0.9214458E+02  0.7546771E-02  0.1428510E+00
          4   -1    0    0  501    0  0.00000000000E+00  0.00000000000E+00  0.18087466660E+03  0.18087466660E+03  0.00000000000E+00 0. -1.
         -4   -1    0    0    0  501 -0.00000000000E+00 -0.00000000000E+00 -0.15226178309E+02  0.15226178309E+02  0.00000000000E+00 0.  1.
         23    2    1    2    0    0 -0.13907855889E+01  0.10190559723E+02  0.15925303669E+03  0.18398954468E+03  0.91568777789E+02 0.  0.
         13    1    3    3    0    0  0.15949663733E+02 -0.15667184795E+02  0.14979006645E+03  0.15144938580E+03  0.00000000000E+00 0. -1.
        -13    1    3    3    0    0 -0.17340449322E+02  0.25857744519E+02  0.94629702399E+01  0.32540158882E+02  0.00000000000E+00 0.  1.
         22    1    1    2    0    0  0.13907855889E+01 -0.10190559723E+02  0.63954516080E+01  0.12111300231E+02  0.00000000000E+00 0. -1.
<mgrwt>
<rscale>  0 0.53260311E+02</rscale>
<asrwt>0</asrwt>
<pdfrwt beam="1">  1        4 0.27826870E-01 0.92144576E+02</pdfrwt>
<pdfrwt beam="2">  1       -4 0.23424891E-02 0.92144576E+02</pdfrwt>
<totfact> 0.14163358E+04</totfact>
</mgrwt>
</event>
<event>
 6    1  0.1535419E-002  0.9163246E+02  0.7546771E-02  0.1393235E+00
          2   -1    0    0  501    0  0.00000000000E+00  0.00000000000E+00  0.91830601856E+03  0.91830601856E+03  0.00000000000E+00 0. -1.
         -2   -1    0    0    0  501 -0.00000000000E+00 -0.00000000000E+00 -0.35245046908E+01  0.35245046908E+01  0.00000000000E+00 0.  1.
         23    2    1    2    0    0  0.32512000897E+00  0.18122134978E+02  0.83517171413E+03  0.84018349211E+03  0.89821995393E+02 0.  0.
         13    1    3    3    0    0  0.32737316348E+02  0.40180478313E+02  0.52218177483E+03  0.52474756663E+03  0.00000000000E+00 0. -1.
        -13    1    3    3    0    0 -0.32412196339E+02 -0.22058343335E+02  0.31298993930E+03  0.31543592548E+03  0.00000000000E+00 0.  1.
         22    1    1    2    0    0 -0.32512000897E+00 -0.18122134978E+02  0.79609799737E+02  0.81647031136E+02  0.00000000000E+00 0.  1.
<mgrwt>
<rscale>  0 0.61109233E+02</rscale>
<asrwt>0</asrwt>
<pdfrwt beam="1">  1        2 0.14127766E+00 0.91632463E+02</pdfrwt>
<pdfrwt beam="2">  1       -2 0.54223222E-03 0.91632463E+02</pdfrwt>
<totfact> 0.13380252E+05</totfact>
</mgrwt>
</event>
<event>
 6    1  0.1535419E-002  0.9292606E+02  0.7546771E-02  0.1407711E+00
          2   -1    0    0  501    0  0.00000000000E+00  0.00000000000E+00  0.70451519732E+03  0.70451519732E+03  0.00000000000E+00 0. -1.
         -2   -1    0    0    0  501 -0.00000000000E+00 -0.00000000000E+00 -0.71676701693E+01  0.71676701693E+01  0.00000000000E+00 0.  1.
         23    2    1    2    0    0  0.55323628401E+01  0.12664942713E+02  0.68961191762E+03  0.69584470259E+03  0.91892575266E+02 0.  0.
         13    1    3    3    0    0  0.36513117954E+02 -0.13863999207E+02  0.16131918844E+03  0.16597981449E+03  0.00000000000E+00 0.  1.
        -13    1    3    3    0    0 -0.30980755114E+02  0.26528941919E+02  0.52829272918E+03  0.52986488811E+03  0.00000000000E+00 0. -1.
         22    1    1    2    0    0 -0.55323628401E+01 -0.12664942713E+02  0.77356095310E+01  0.15838164898E+02  0.00000000000E+00 0.  1.
<mgrwt>
<rscale>  0 0.57707804E+02</rscale>
<asrwt>0</asrwt>
<pdfrwt beam="1">  1        2 0.10838690E+00 0.92926063E+02</pdfrwt>
<pdfrwt beam="2">  1       -2 0.11027190E-02 0.92926063E+02</pdfrwt>
<totfact> 0.68192771E+04</totfact>
</mgrwt>
</event>
<event>
 6    1  0.1535419E-002  0.9292961E+02  0.7546771E-02  0.1404889E+00
         -2   -1    0    0    0  501 -0.00000000000E+00  0.00000000000E+00  0.31097138369E+02  0.31097138369E+02  0.00000000000E+00 0.  1.
          2   -1    0    0  501    0  0.00000000000E+00 -0.00000000000E+00 -0.96593314201E+02  0.96593314201E+02  0.00000000000E+00 0. -1.
         23    2    1    2    0    0  0.14411638574E+02 -0.97368994959E+00 -0.64680116282E+02  0.11322292508E+03  0.91800162977E+02 0.  0.
         11    1    3    3    0    0 -0.28621145695E+02  0.26875030303E+02 -0.40976780004E+02  0.56749746556E+02  0.00000000000E+00 0.  1.
        -11    1    3    3    0    0  0.43032784270E+02 -0.27848720252E+02 -0.23703336278E+02  0.56473178522E+02  0.00000000000E+00 0. -1.
         22    1    1    2    0    0 -0.14411638574E+02  0.97368994959E+00 -0.81605954941E+00  0.14467527491E+02  0.00000000000E+00 0.  1.
<mgrwt>
<rscale>  0 0.58350043E+02</rscale>
<asrwt>0</asrwt>
<pdfrwt beam="1">  1        2 0.14860510E-01 0.92929615E+02</pdfrwt>
<pdfrwt beam="2">  1       -2 0.47841752E-02 0.92929615E+02</pdfrwt>
<totfact> 0.70826444E+04</totfact>
</mgrwt>
</event>
<event>
 6    1  0.1535419E-002  0.9299355E+02  0.7546771E-02  0.1405421E+00
         -2   -1    0    0    0  501 -0.00000000000E+00  0.00000000000E+00  0.77453208377E+02  0.77453208377E+02  0.00000000000E+00 0. -1.
          2   -1    0    0  501    0  0.00000000000E+00 -0.00000000000E+00 -0.21541286455E+03  0.21541286455E+03  0.00000000000E+00 0.  1.
         23    2    1    2    0    0 -0.87786923672E+01  0.11281681066E+02 -0.20458295540E+03  0.22472646795E+03  0.91888290814E+02 0.  0.
         13    1    3    3    0    0 -0.38521221868E+02 -0.77958489006E+01 -0.17275837695E+03  0.17717256165E+03  0.00000000000E+00 0.  1.
        -13    1    3    3    0    0  0.29742529501E+02  0.19077529966E+02 -0.31824578443E+02  0.47553906294E+02  0.00000000000E+00 0. -1.
         22    1    1    2    0    0  0.87786923672E+01 -0.11281681066E+02  0.66623299226E+02  0.68139604982E+02  0.00000000000E+00 0. -1.
<mgrwt>
<rscale>  0 0.58228319E+02</rscale>
<asrwt>0</asrwt>
<pdfrwt beam="1">  1        2 0.33140441E-01 0.92993547E+02</pdfrwt>
<pdfrwt beam="2">  1       -2 0.11915878E-01 0.92993547E+02</pdfrwt>
<totfact> 0.72463376E+03</totfact>
</mgrwt>
</event>
<event>
 6    1  0.1535419E-002  0.1023237E+03  0.7546771E-02  0.1322932E+00
          4   -1    0    0  501    0  0.00000000000E+00  0.00000000000E+00  0.27163618931E+02  0.27163618931E+02  0.00000000000E+00 0. -1.
         -4   -1    0    0    0  501 -0.00000000000E+00 -0.00000000000E+00 -0.21956721525E+03  0.21956721525E+03  0.00000000000E+00 0.  1.
         23    2    1    2    0    0  0.29772171114E+02  0.30478249932E+02 -0.91763357159E+02  0.13744330685E+03  0.93031408616E+02 0.  0.
         11    1    3    3    0    0  0.40896894565E+02  0.44597935252E+02 -0.10061289799E+03  0.11740735520E+03  0.00000000000E+00 0.  1.
        -11    1    3    3    0    0 -0.11124723451E+02 -0.14119685321E+02  0.88495408323E+01  0.20035951646E+02  0.00000000000E+00 0. -1.
         22    1    1    2    0    0 -0.29772171114E+02 -0.30478249932E+02 -0.10064023916E+03  0.10928752733E+03  0.00000000000E+00 0. -1.
<mgrwt>
<rscale>  0 0.82196069E+02</rscale>
<asrwt>0</asrwt>
<pdfrwt beam="1">  1        4 0.41790183E-02 0.10232375E+03</pdfrwt>
<pdfrwt beam="2">  1       -4 0.33779572E-01 0.10232375E+03</pdfrwt>
<totfact> 0.41100788E+03</totfact>
</mgrwt>
</event>
<event>
 6    1  0.1535419E-002  0.9813941E+02  0.7546771E-02  0.1411494E+00
         -2   -1    0    0    0  501 -0.00000000000E+00  0.00000000000E+00  0.59561550140E+01  0.59561550140E+01  0.00000000000E+00 0.  1.
          2   -1    0    0  501    0  0.00000000000E+00 -0.00000000000E+00 -0.67380973363E+03  0.67380973363E+03  0.00000000000E+00 0. -1.
         23    2    1    2    0    0 -0.10971928883E+02  0.13916375642E+01 -0.65693296911E+03  0.66422305780E+03  0.97514228384E+02 0.  0.
         13    1    3    3    0    0  0.25289728471E+02  0.26251954451E+02 -0.11805358572E+03  0.12355316500E+03  0.00000000000E+00 0.  1.
        -13    1    3    3    0    0 -0.36261657354E+02 -0.24860316887E+02 -0.53887938339E+03  0.54066989281E+03  0.00000000000E+00 0. -1.
         22    1    1    2    0    0  0.10971928883E+02 -0.13916375642E+01 -0.10920609508E+02  0.15542830841E+02  0.00000000000E+00 0.  1.
<mgrwt>
<rscale>  0 0.56861685E+02</rscale>
<asrwt>0</asrwt>
<pdfrwt beam="1">  1        2 0.10366306E+00 0.98139414E+02</pdfrwt>
<pdfrwt beam="2">  1       -2 0.91633134E-03 0.98139414E+02</pdfrwt>
<totfact> 0.94042688E+04</totfact>
</mgrwt>
</event>
<event>
 6    1  0.1535419E-002  0.9336888E+02  0.7546771E-02  0.1383219E+00
         -2   -1    0    0    0  501 -0.00000000000E+00  0.00000000000E+00  0.13145664675E+03  0.13145664675E+03  0.00000000000E+00 0.  1.
          2   -1    0    0  501    0  0.00000000000E+00 -0.00000000000E+00 -0.27016924009E+02  0.27016924009E+02  0.00000000000E+00 0. -1.
         23    2    1    2    0    0  0.19082598716E+02 -0.64185203678E+01  0.10185617592E+03  0.13817535183E+03  0.91172387834E+02 0.  0.
         11    1    3    3    0    0  0.37931013749E+02  0.24531174209E+02  0.21503381981E+02  0.50029348873E+02  0.00000000000E+00 0. -1.
        -11    1    3    3    0    0 -0.18848415033E+02 -0.30949694576E+02  0.80352793942E+02  0.88146002961E+02  0.00000000000E+00 0.  1.
         22    1    1    2    0    0 -0.19082598716E+02  0.64185203678E+01  0.25835468195E+01  0.20298218927E+02  0.00000000000E+00 0. -1.
<mgrwt>
<rscale>  0 0.63625240E+02</rscale>
<asrwt>0</asrwt>
<pdfrwt beam="1">  1        2 0.41564499E-02 0.93368877E+02</pdfrwt>
<pdfrwt beam="2">  1       -2 0.20224099E-01 0.93368877E+02</pdfrwt>
<totfact> 0.36114956E+04</totfact>
</mgrwt>
</event>
<event>
 6    1  0.1535419E-002  0.9131557E+02  0.7546771E-02  0.1431012E+00
         -3   -1    0    0    0  501 -0.00000000000E+00  0.00000000000E+00  0.20423893438E+02  0.20423893438E+02  0.00000000000E+00 0.  1.
          3   -1    0    0  501    0  0.00000000000E+00 -0.00000000000E+00 -0.15417971675E+03  0.15417971675E+03  0.00000000000E+00 0. -1.
         23    2    1    2    0    0 -0.96749115619E+01 -0.31480034585E+01 -0.13635067362E+03  0.16410374888E+03  0.90747012947E+02 0.  0.
         13    1    3    3    0    0  0.28452157564E+02 -0.98173572134E+01 -0.96264446696E+01  0.31600224836E+02  0.00000000000E+00 0.  1.
        -13    1    3    3    0    0 -0.38127069126E+02  0.66693537550E+01 -0.12672422895E+03  0.13250352404E+03  0.00000000000E+00 0. -1.
         22    1    1    2    0    0  0.96749115619E+01  0.31480034585E+01  0.25948503062E+01  0.10499861314E+02  0.00000000000E+00 0.  1.
<mgrwt>
<rscale>  0 0.52757407E+02</rscale>
<asrwt>0</asrwt>
<pdfrwt beam="1">  1        3 0.23719956E-01 0.91315575E+02</pdfrwt>
<pdfrwt beam="2">  1       -3 0.31421375E-02 0.91315575E+02</pdfrwt>
<totfact> 0.16080602E+04</totfact>
</mgrwt>
</event>
<event>
 6    1  0.1535419E-002  0.9103162E+02  0.7546771E-02  0.1420241E+00
          2   -1    0    0  501    0  0.00000000000E+00  0.00000000000E+00  0.46417303224E+03  0.46417303224E+03  0.00000000000E+00 0. -1.
         -2   -1    0    0    0  501 -0.00000000000E+00 -0.00000000000E+00 -0.59675822176E+01  0.59675822176E+01  0.00000000000E+00 0.  1.
         23    2    1    2    0    0 -0.85401561945E+01 -0.85773916855E+01  0.42852013005E+03  0.43808247761E+03  0.90223330794E+02 0.  0.
         13    1    3    3    0    0  0.27766334991E+02  0.14359802192E+02  0.66011836483E+02  0.73039275966E+02  0.00000000000E+00 0.  1.
        -13    1    3    3    0    0 -0.36306491186E+02 -0.22937193877E+02  0.36250829356E+03  0.36504320164E+03  0.00000000000E+00 0. -1.
         22    1    1    2    0    0  0.85401561945E+01  0.85773916855E+01  0.29685319977E+02  0.32058136847E+02  0.00000000000E+00 0.  1.
<mgrwt>
<rscale>  0 0.54970045E+02</rscale>
<asrwt>0</asrwt>
<pdfrwt beam="1">  1        2 0.71411207E-01 0.91031617E+02</pdfrwt>
<pdfrwt beam="2">  1       -2 0.91808994E-03 0.91031617E+02</pdfrwt>
<totfact> 0.14016824E+05</totfact>
</mgrwt>
</event>
<event>
 6    1  0.1535419E-002  0.9313090E+02  0.7546771E-02  0.1385005E+00
          2   -1    0    0  501    0  0.00000000000E+00  0.00000000000E+00  0.27127423568E+03  0.27127423568E+03  0.00000000000E+00 0.  1.
         -2   -1    0    0    0  501 -0.00000000000E+00 -0.00000000000E+00 -0.11962700648E+02  0.11962700648E+02  0.00000000000E+00 0. -1.
         23    2    1    2    0    0  0.51776772674E+01  0.19016547410E+02  0.22737329545E+03  0.24570710066E+03  0.91021571162E+02 0.  0.
         13    1    3    3    0    0 -0.24602961207E+02 -0.22686869156E+02  0.43839754147E+02  0.55153637921E+02  0.00000000000E+00 0.  1.
        -13    1    3    3    0    0  0.29780638474E+02  0.41703416565E+02  0.18353354130E+03  0.19055346274E+03  0.00000000000E+00 0. -1.
         22    1    1    2    0    0 -0.51776772674E+01 -0.19016547410E+02  0.31938239588E+02  0.37529835668E+02  0.00000000000E+00 0.  1.
<mgrwt>
<rscale>  0 0.63166304E+02</rscale>
<asrwt>0</asrwt>
<pdfrwt beam="1">  1        2 0.41734493E-01 0.93130896E+02</pdfrwt>
<pdfrwt beam="2">  1       -2 0.18404157E-02 0.93130896E+02</pdfrwt>
<totfact> 0.91933630E+04</totfact>
</mgrwt>
</event>
<event>
 6    1  0.1535419E-002  0.9798756E+02  0.7546771E-02  0.1336298E+00
         -2   -1    0    0    0  501 -0.00000000000E+00  0.00000000000E+00  0.40661633196E+01  0.40661633196E+01  0.00000000000E+00 0.  1.
          2   -1    0    0  501    0  0.00000000000E+00 -0.00000000000E+00 -0.20158287892E+04  0.20158287892E+04  0.00000000000E+00 0. -1.
         23    2    1    2    0    0  0.71240595052E+01 -0.37677383048E+02 -0.18829076633E+04  0.18854556027E+04  0.90173297302E+02 0.  0.
         13    1    3    3    0    0  0.14001037891E+01 -0.92434385001E+01 -0.17655452682E+02  0.19977899172E+02  0.00000000000E+00 0.  1.
        -13    1    3    3    0    0  0.57239557161E+01 -0.28433944548E+02 -0.18652522107E+04  0.18654777035E+04  0.00000000000E+00 0. -1.
         22    1    1    2    0    0 -0.71240595052E+01  0.37677383048E+02 -0.12885496251E+03  0.13443934982E+03  0.00000000000E+00 0.  1.
<mgrwt>
<rscale>  0 0.77500645E+02</rscale>
<asrwt>0</asrwt>
<pdfrwt beam="1">  1        2 0.31012851E+00 0.97987555E+02</pdfrwt>
<pdfrwt beam="2">  1       -2 0.62556156E-03 0.97987555E+02</pdfrwt>
<totfact> 0.29007894E+04</totfact>
</mgrwt>
</event>
<event>
 6    1  0.1535419E-002  0.9864128E+02  0.7546771E-02  0.1335106E+00
         -2   -1    0    0    0  501 -0.00000000000E+00  0.00000000000E+00  0.17565573451E+02  0.17565573451E+02  0.00000000000E+00 0.  1.
          2   -1    0    0  501    0  0.00000000000E+00 -0.00000000000E+00 -0.27001597252E+03  0.27001597252E+03  0.00000000000E+00 0. -1.
         23    2    1    2    0    0 -0.17024446537E+02 -0.34394073957E+02 -0.16795543044E+03  0.19477969347E+03  0.90869787458E+02 0.  0.
         13    1    3    3    0    0 -0.33821048603E+02 -0.51219915996E+02 -0.66168407984E+02  0.90252985205E+02  0.00000000000E+00 0.  1.
        -13    1    3    3    0    0  0.16796602067E+02  0.16825842039E+02 -0.10178702246E+03  0.10452670827E+03  0.00000000000E+00 0. -1.
         22    1    1    2    0    0  0.17024446537E+02  0.34394073957E+02 -0.84494968632E+02  0.92801852500E+02  0.00000000000E+00 0.  1.
<mgrwt>
<rscale>  0 0.77904297E+02</rscale>
<asrwt>0</asrwt>
<pdfrwt beam="1">  1        2 0.41540921E-01 0.98641281E+02</pdfrwt>
<pdfrwt beam="2">  1       -2 0.27023958E-02 0.98641281E+02</pdfrwt>
<totfact> 0.53494311E+04</totfact>
</mgrwt>
</event>
<event>
 6    1  0.1535419E-002  0.9023030E+02  0.7546771E-02  0.1412000E+00
         -2   -1    0    0    0  501 -0.00000000000E+00  0.00000000000E+00  0.12416554161E+02  0.12416554161E+02  0.00000000000E+00 0.  1.
          2   -1    0    0  501    0  0.00000000000E+00 -0.00000000000E+00 -0.21979566908E+03  0.21979566908E+03  0.00000000000E+00 0. -1.
         23    2    1    2    0    0 -0.72927902484E+01 -0.12089634837E+02 -0.17512429294E+03  0.19700259955E+03  0.89118809400E+02 0.  0.
         11    1    3    3    0    0 -0.40459560583E+02  0.17565714113E+02 -0.68554246325E+02  0.81518188424E+02  0.00000000000E+00 0. -1.
        -11    1    3    3    0    0  0.33166770334E+02 -0.29655348950E+02 -0.10657004662E+03  0.11548441112E+03  0.00000000000E+00 0.  1.
         22    1    1    2    0    0  0.72927902484E+01  0.12089634837E+02 -0.32254821975E+02  0.35209623695E+02  0.00000000000E+00 0.  1.
<mgrwt>
<rscale>  0 0.56749847E+02</rscale>
<asrwt>0</asrwt>
<pdfrwt beam="1">  1        2 0.33814717E-01 0.90230296E+02</pdfrwt>
<pdfrwt beam="2">  1       -2 0.19102392E-02 0.90230296E+02</pdfrwt>
<totfact> 0.10825557E+05</totfact>
</mgrwt>
</event>
<event>
 6    1  0.1535419E-002  0.9204272E+02  0.7546771E-02  0.1400405E+00
          2   -1    0    0  501    0  0.00000000000E+00  0.00000000000E+00  0.18023915428E+04  0.18023915428E+04  0.00000000000E+00 0.  1.
         -2   -1    0    0    0  501 -0.00000000000E+00 -0.00000000000E+00 -0.91525365436E+01  0.91525365436E+01  0.00000000000E+00 0. -1.
         23    2    1    2    0    0 -0.15623709276E+02  0.32381315882E+01  0.17932277017E+04  0.17955883306E+04  0.90649199690E+02 0.  0.
         11    1    3    3    0    0 -0.25261129198E+02  0.23007273727E+02  0.26393007537E+03  0.26613256843E+03  0.00000000000E+00 0. -1.
        -11    1    3    3    0    0  0.96374199220E+01 -0.19769142139E+02  0.15292976263E+04  0.15294557622E+04  0.00000000000E+00 0.  1.
         22    1    1    2    0    0  0.15623709276E+02 -0.32381315882E+01  0.11304576862E-01  0.15955748667E+02  0.00000000000E+00 0. -1.
<mgrwt>
<rscale>  0 0.59391100E+02</rscale>
<asrwt>0</asrwt>
<pdfrwt beam="1">  1        2 0.27729072E+00 0.92042725E+02</pdfrwt>
<pdfrwt beam="2">  1       -2 0.14080840E-02 0.92042725E+02</pdfrwt>
<totfact> 0.11729534E+04</totfact>
</mgrwt>
</event>
<event>
 6    1  0.1535419E-002  0.1258842E+03  0.7546771E-02  0.1249237E+00
         -2   -1    0    0    0  501 -0.00000000000E+00  0.00000000000E+00  0.33626554742E+02  0.33626554742E+02  0.00000000000E+00 0.  1.
          2   -1    0    0  501    0  0.00000000000E+00 -0.00000000000E+00 -0.43651634577E+03  0.43651634577E+03  0.00000000000E+00 0. -1.
         23    2    1    2    0    0  0.44233772300E+02  0.80527661152E+02 -0.32893235008E+03  0.35219785444E+03  0.86055255023E+02 0.  0.
         11    1    3    3    0    0  0.94248243175E+01  0.89426639853E+02 -0.23867728217E+03  0.25505449664E+03  0.00000000000E+00 0.  1.
        -11    1    3    3    0    0  0.34808947983E+02 -0.88989787008E+01 -0.90255067911E+02  0.97143357803E+02  0.00000000000E+00 0. -1.
         22    1    1    2    0    0 -0.44233772300E+02 -0.80527661152E+02 -0.73957440948E+02  0.11794504608E+03  0.00000000000E+00 0. -1.
<mgrwt>
<rscale>  0 0.11635361E+03</rscale>
<asrwt>0</asrwt>
<pdfrwt beam="1">  1        2 0.67156359E-01 0.12588422E+03</pdfrwt>
<pdfrwt beam="2">  1       -2 0.51733163E-02 0.12588422E+03</pdfrwt>
<totfact> 0.12674389E+04</totfact>
</mgrwt>
</event>
<event>
 6    1  0.1535419E-002  0.9542308E+02  0.7546771E-02  0.1399431E+00
          2   -1    0    0  501    0  0.00000000000E+00  0.00000000000E+00  0.54426696138E+03  0.54426696138E+03  0.00000000000E+00 0. -1.
         -2   -1    0    0    0  501 -0.00000000000E+00 -0.00000000000E+00 -0.83878119346E+01  0.83878119346E+01  0.00000000000E+00 0.  1.
         23    2    1    2    0    0 -0.11680086052E+02 -0.86629780993E+01  0.52710080388E+03  0.53566857449E+03  0.94308497181E+02 0.  0.
         11    1    3    3    0    0 -0.35884739676E+02 -0.22799377560E+02  0.47139194356E+03  0.47330528268E+03  0.00000000000E+00 0. -1.
        -11    1    3    3    0    0  0.24204653625E+02  0.14136399460E+02  0.55708860324E+02  0.62363291810E+02  0.00000000000E+00 0.  1.
         22    1    1    2    0    0  0.11680086052E+02  0.86629780993E+01  0.87783455607E+01  0.16986198825E+02  0.00000000000E+00 0.  1.
<mgrwt>
<rscale>  0 0.59620633E+02</rscale>
<asrwt>0</asrwt>
<pdfrwt beam="1">  1        2 0.83733351E-01 0.95423080E+02</pdfrwt>
<pdfrwt beam="2">  1       -2 0.12904330E-02 0.95423080E+02</pdfrwt>
<totfact> 0.73271191E+04</totfact>
</mgrwt>
</event>
<event>
 6    1  0.1535419E-002  0.9072384E+02  0.7546771E-02  0.1416630E+00
          2   -1    0    0  501    0  0.00000000000E+00  0.00000000000E+00  0.58588518807E+03  0.58588518807E+03  0.00000000000E+00 0.  1.
         -2   -1    0    0    0  501 -0.00000000000E+00 -0.00000000000E+00 -0.48059619418E+01  0.48059619418E+01  0.00000000000E+00 0. -1.
         23    2    1    2    0    0 -0.40786062901E+01 -0.12267101970E+02  0.54169020985E+03  0.54923501147E+03  0.89798093239E+02 0.  0.
         11    1    3    3    0    0  0.18468926386E+02  0.15470352776E+02  0.43192253631E+02  0.49457090802E+02  0.00000000000E+00 0. -1.
        -11    1    3    3    0    0 -0.22547532676E+02 -0.27737454746E+02  0.49849795622E+03  0.49977792066E+03  0.00000000000E+00 0.  1.
         22    1    1    2    0    0  0.40786062901E+01  0.12267101970E+02  0.39389016277E+02  0.41456138548E+02  0.00000000000E+00 0. -1.
<mgrwt>
<rscale>  0 0.55740206E+02</rscale>
<asrwt>0</asrwt>
<pdfrwt beam="1">  1        2 0.90136126E-01 0.90723836E+02</pdfrwt>
<pdfrwt beam="2">  1       -2 0.73937922E-03 0.90723836E+02</pdfrwt>
<totfact> 0.14755263E+05</totfact>
</mgrwt>
</event>
<event>
 6    1  0.1535419E-002  0.9236991E+02  0.7546771E-02  0.1402897E+00
         -4   -1    0    0    0  501 -0.00000000000E+00  0.00000000000E+00  0.20424466462E+02  0.20424466462E+02  0.00000000000E+00 0.  1.
          4   -1    0    0  501    0  0.00000000000E+00 -0.00000000000E+00 -0.26290684121E+03  0.26290684121E+03  0.00000000000E+00 0. -1.
         23    2    1    2    0    0  0.15176069563E+02  0.19442246632E+00 -0.24990978731E+03  0.26643404917E+03  0.91114487718E+02 0.  0.
         11    1    3    3    0    0 -0.14667179857E+02  0.70829171604E+01 -0.22846504124E+03  0.22904490596E+03  0.00000000000E+00 0. -1.
        -11    1    3    3    0    0  0.29843249420E+02 -0.68884946941E+01 -0.21444746076E+02  0.37389143202E+02  0.00000000000E+00 0.  1.
         22    1    1    2    0    0 -0.15176069563E+02 -0.19442246632E+00  0.74274125684E+01  0.16897258503E+02  0.00000000000E+00 0.  1.
<mgrwt>
<rscale>  0 0.58809385E+02</rscale>
<asrwt>0</asrwt>
<pdfrwt beam="1">  1        4 0.40447204E-01 0.92369913E+02</pdfrwt>
<pdfrwt beam="2">  1       -4 0.31422258E-02 0.92369913E+02</pdfrwt>
<totfact> 0.44160686E+03</totfact>
</mgrwt>
</event>
<event>
 6    1  0.1535419E-002  0.9906490E+02  0.7546771E-02  0.1360413E+00
         -1   -1    0    0    0  501 -0.00000000000E+00  0.00000000000E+00  0.65554092687E+01  0.65554092687E+01  0.00000000000E+00 0.  1.
          1   -1    0    0  501    0  0.00000000000E+00 -0.00000000000E+00 -0.61238327389E+03  0.61238327389E+03  0.00000000000E+00 0. -1.
         23    2    1    2    0    0  0.23905673320E+02 -0.56484889588E+01 -0.53160758369E+03  0.54075916701E+03  0.95971178065E+02 0.  0.
         13    1    3    3    0    0  0.15100623415E+02 -0.11195082751E+02 -0.15006137835E+02  0.24052918286E+02  0.00000000000E+00 0.  1.
        -13    1    3    3    0    0  0.88050499043E+01  0.55465937922E+01 -0.51660144586E+03  0.51670624872E+03  0.00000000000E+00 0. -1.
         22    1    1    2    0    0 -0.23905673320E+02  0.56484889588E+01 -0.74220280922E+02  0.78179516144E+02  0.00000000000E+00 0.  1.
<mgrwt>
<rscale>  0 0.69905976E+02</rscale>
<asrwt>0</asrwt>
<pdfrwt beam="1">  1        1 0.94212813E-01 0.99064896E+02</pdfrwt>
<pdfrwt beam="2">  1       -1 0.10085245E-02 0.99064896E+02</pdfrwt>
<totfact> 0.56795847E+04</totfact>
</mgrwt>
</event>
<event>
 6    1  0.1535419E-002  0.1680677E+03  0.7546771E-02  0.1186152E+00
         -4   -1    0    0    0  501 -0.00000000000E+00  0.00000000000E+00  0.15425119230E+03  0.15425119230E+03  0.00000000000E+00 0.  1.
          4   -1    0    0  501    0  0.00000000000E+00 -0.00000000000E+00 -0.16885224658E+03  0.16885224658E+03  0.00000000000E+00 0. -1.
         23    2    1    2    0    0  0.23732193027E+02  0.14412812912E+03  0.29250460548E+02  0.17059412788E+03  0.83130213734E+02 0.  0.
         11    1    3    3    0    0  0.53976595138E+02  0.10956704232E+03  0.21014614533E+02  0.12393556232E+03  0.00000000000E+00 0.  1.
        -11    1    3    3    0    0 -0.30244402112E+02  0.34561086803E+02  0.82358460157E+01  0.46658565555E+02  0.00000000000E+00 0. -1.
         22    1    1    2    0    0 -0.23732193027E+02 -0.14412812912E+03 -0.43851514829E+02  0.15250931100E+03  0.00000000000E+00 0. -1.
<mgrwt>
<rscale>  0 0.16227542E+03</rscale>
<asrwt>0</asrwt>
<pdfrwt beam="1">  1        4 0.25977269E-01 0.16806775E+03</pdfrwt>
<pdfrwt beam="2">  1       -4 0.23730953E-01 0.16806775E+03</pdfrwt>
<totfact> 0.39758128E+02</totfact>
</mgrwt>
</event>
<event>
 6    1  0.1535419E-002  0.1118444E+03  0.7546771E-02  0.1318322E+00
         -2   -1    0    0    0  501 -0.00000000000E+00  0.00000000000E+00  0.12209986816E+02  0.12209986816E+02  0.00000000000E+00 0.  1.
          2   -1    0    0  501    0  0.00000000000E+00 -0.00000000000E+00 -0.51552830427E+03  0.51552830427E+03  0.00000000000E+00 0. -1.
         23    2    1    2    0    0  0.18602472239E+02 -0.30146549320E+02 -0.45024706483E+03  0.46393057788E+03  0.10608626346E+03 0.  0.
         11    1    3    3    0    0  0.41851470602E+02  0.25122747927E+02 -0.25702141642E+03  0.26161557017E+03  0.00000000000E+00 0. -1.
        -11    1    3    3    0    0 -0.23248998363E+02 -0.55269297247E+02 -0.19322564841E+03  0.20231500771E+03  0.00000000000E+00 0.  1.
         22    1    1    2    0    0 -0.18602472239E+02  0.30146549320E+02 -0.53071252623E+02  0.63807713204E+02  0.00000000000E+00 0.  1.
<mgrwt>
<rscale>  0 0.83904502E+02</rscale>
<asrwt>0</asrwt>
<pdfrwt beam="1">  1        2 0.79312044E-01 0.11184436E+03</pdfrwt>
<pdfrwt beam="2">  1       -2 0.18784596E-02 0.11184436E+03</pdfrwt>
<totfact> 0.46305640E+04</totfact>
</mgrwt>
</event>
<event>
 6    1  0.1535419E-002  0.9217966E+02  0.7546771E-02  0.1384291E+00
          2   -1    0    0  501    0  0.00000000000E+00  0.00000000000E+00  0.61768535354E+02  0.61768535354E+02  0.00000000000E+00 0.  1.
         -2   -1    0    0    0  501 -0.00000000000E+00 -0.00000000000E+00 -0.52555800464E+02  0.52555800464E+02  0.00000000000E+00 0. -1.
         23    2    1    2    0    0  0.90431500858E+01  0.18466170759E+02  0.13936247680E+02  0.93227189114E+02  0.89857174253E+02 0.  0.
         11    1    3    3    0    0  0.37833010356E+01  0.55058822594E+02  0.73408958983E+01  0.55674734528E+02  0.00000000000E+00 0.  1.
        -11    1    3    3    0    0  0.52598490501E+01 -0.36592651835E+02  0.65953517821E+01  0.37552454586E+02  0.00000000000E+00 0. -1.
         22    1    1    2    0    0 -0.90431500858E+01 -0.18466170759E+02 -0.47235127905E+01  0.21097146704E+02  0.00000000000E+00 0. -1.
<mgrwt>
<rscale>  0 0.63349090E+02</rscale>
<asrwt>0</asrwt>
<pdfrwt beam="1">  1        2 0.95028516E-02 0.92179660E+02</pdfrwt>
<pdfrwt beam="2">  1       -2 0.80855078E-02 0.92179660E+02</pdfrwt>
<totfact> 0.54653865E+04</totfact>
</mgrwt>
</event>
<event>
 6    1  0.1535419E-002  0.8990616E+02  0.7546771E-02  0.1418119E+00
          2   -1    0    0  501    0  0.00000000000E+00  0.00000000000E+00  0.38453506439E+02  0.38453506439E+02  0.00000000000E+00 0. -1.
         -2   -1    0    0    0  501 -0.00000000000E+00 -0.00000000000E+00 -0.71768546601E+02  0.71768546601E+02  0.00000000000E+00 0.  1.
         23    2    1    2    0    0  0.11969272854E+02 -0.50255899788E+01 -0.20994963187E+02  0.92325004570E+02  0.88964026113E+02 0.  0.
         13    1    3    3    0    0  0.12141136331E+02  0.10730158574E+02  0.32630793313E+02  0.36432295655E+02  0.00000000000E+00 0. -1.
        -13    1    3    3    0    0 -0.17186347778E+00 -0.15755748553E+02 -0.53625756501E+02  0.55892708915E+02  0.00000000000E+00 0.  1.
         22    1    1    2    0    0 -0.11969272854E+02  0.50255899788E+01 -0.12320076975E+02  0.17897048470E+02  0.00000000000E+00 0. -1.
<mgrwt>
<rscale>  0 0.55420896E+02</rscale>
<asrwt>0</asrwt>
<pdfrwt beam="1">  1        2 0.59159241E-02 0.89906162E+02</pdfrwt>
<pdfrwt beam="2">  1       -2 0.11041315E-01 0.89906162E+02</pdfrwt>
<totfact> 0.60705970E+04</totfact>
</mgrwt>
</event>
<event>
 6    1  0.1535419E-002  0.9146455E+02  0.7546771E-02  0.1367027E+00
          2   -1    0    0  501    0  0.00000000000E+00  0.00000000000E+00  0.31657774392E+03  0.31657774392E+03  0.00000000000E+00 0. -1.
         -2   -1    0    0    0  501 -0.00000000000E+00 -0.00000000000E+00 -0.17828025111E+02  0.17828025111E+02  0.00000000000E+00 0.  1.
         23    2    1    2    0    0  0.25331674527E+02  0.11798231798E+02  0.29153343282E+03  0.30554460496E+03  0.87091165809E+02 0.  0.
         11    1    3    3    0    0  0.30682485961E+02 -0.87248643047E+01  0.27918728875E+03  0.28100370176E+03  0.00000000000E+00 0. -1.
        -11    1    3    3    0    0 -0.53508114345E+01  0.20523096103E+02  0.12346144068E+02  0.24540903203E+02  0.00000000000E+00 0.  1.
         22    1    1    2    0    0 -0.25331674527E+02 -0.11798231798E+02  0.72162859885E+01  0.28861164068E+02  0.00000000000E+00 0.  1.
<mgrwt>
<rscale>  0 0.68000712E+02</rscale>
<asrwt>0</asrwt>
<pdfrwt beam="1">  1        2 0.48704264E-01 0.91464546E+02</pdfrwt>
<pdfrwt beam="2">  1       -2 0.27427733E-02 0.91464546E+02</pdfrwt>
<totfact> 0.43900803E+04</totfact>
</mgrwt>
</event>
<event>
 6    1  0.1535419E-002  0.9459873E+02  0.7546771E-02  0.1368515E+00
          1   -1    0    0  501    0  0.00000000000E+00  0.00000000000E+00  0.35298765104E+03  0.35298765104E+03  0.00000000000E+00 0. -1.
         -1   -1    0    0    0  501 -0.00000000000E+00 -0.00000000000E+00 -0.11475184548E+02  0.11475184548E+02  0.00000000000E+00 0.  1.
         23    2    1    2    0    0 -0.33205645446E+01 -0.24416286640E+02  0.31194685469E+03  0.32597508944E+03  0.91333113285E+02 0.  0.
         11    1    3    3    0    0  0.75052938824E+01 -0.40453200124E+02  0.30088962825E+03  0.30368957708E+03  0.00000000000E+00 0. -1.
        -11    1    3    3    0    0 -0.10825858427E+02  0.16036913485E+02  0.11057226442E+02  0.22285512365E+02  0.00000000000E+00 0.  1.
         22    1    1    2    0    0  0.33205645446E+01  0.24416286640E+02  0.29565611797E+02  0.38487746142E+02  0.00000000000E+00 0. -1.
<mgrwt>
<rscale>  0 0.67581644E+02</rscale>
<asrwt>0</asrwt>
<pdfrwt beam="1">  1        1 0.54305784E-01 0.94598725E+02</pdfrwt>
<pdfrwt beam="2">  1       -1 0.17654133E-02 0.94598725E+02</pdfrwt>
<totfact> 0.51579906E+04</totfact>
</mgrwt>
</event>
<event>
 6    1  0.1535419E-002  0.8837862E+02  0.7546771E-02  0.1423874E+00
         -2   -1    0    0    0  501 -0.00000000000E+00  0.00000000000E+00  0.40363156859E+01  0.40363156859E+01  0.00000000000E+00 0.  1.
          2   -1    0    0  501    0  0.00000000000E+00 -0.00000000000E+00 -0.82662556291E+03  0.82662556291E+03  0.00000000000E+00 0. -1.
         23    2    1    2    0    0 -0.59281026783E+01 -0.11016571118E+02 -0.79977001586E+03  0.80463834001E+03  0.87488700423E+02 0.  0.
         11    1    3    3    0    0  0.36048343609E+02 -0.47358698471E+01 -0.55704979757E+03  0.55823506564E+03  0.00000000000E+00 0. -1.
        -11    1    3    3    0    0 -0.41976446287E+02 -0.62807012710E+01 -0.24272021830E+03  0.24640327437E+03  0.00000000000E+00 0.  1.
         22    1    1    2    0    0  0.59281026783E+01  0.11016571118E+02 -0.22819231361E+02  0.26023538585E+02  0.00000000000E+00 0.  1.
<mgrwt>
<rscale>  0 0.54209725E+02</rscale>
<asrwt>0</asrwt>
<pdfrwt beam="1">  1        2 0.12717330E+00 0.88378617E+02</pdfrwt>
<pdfrwt beam="2">  1       -2 0.62097099E-03 0.88378617E+02</pdfrwt>
<totfact> 0.12570582E+05</totfact>
</mgrwt>
</event>
<event>
 6    1  0.1535419E-002  0.9552571E+02  0.7546771E-02  0.1371562E+00
         -1   -1    0    0    0  501 -0.00000000000E+00  0.00000000000E+00  0.13190429966E+03  0.13190429966E+03  0.00000000000E+00 0.  1.
          1   -1    0    0  501    0  0.00000000000E+00 -0.00000000000E+00 -0.27199004938E+02  0.27199004938E+02  0.00000000000E+00 0. -1.
         23    2    1    2    0    0 -0.24150064803E+01 -0.22625248033E+02  0.73736160294E+02  0.12067387067E+03  0.92776223368E+02 0.  0.
         13    1    3    3    0    0  0.80434066496E+01  0.35376884380E+02  0.32858463659E+02  0.48947921029E+02  0.00000000000E+00 0. -1.
        -13    1    3    3    0    0 -0.10458413130E+02 -0.58002132413E+02  0.40877696634E+02  0.71725949640E+02  0.00000000000E+00 0.  1.
         22    1    1    2    0    0  0.24150064803E+01  0.22625248033E+02  0.30969134425E+02  0.38429433926E+02  0.00000000000E+00 0. -1.
<mgrwt>
<rscale>  0 0.66734984E+02</rscale>
<asrwt>0</asrwt>
<pdfrwt beam="1">  1        1 0.41844624E-02 0.95525712E+02</pdfrwt>
<pdfrwt beam="2">  1       -1 0.20292969E-01 0.95525712E+02</pdfrwt>
<totfact> 0.36723849E+04</totfact>
</mgrwt>
</event>
<event>
 6    1  0.1535419E-002  0.9421910E+02  0.7546771E-02  0.1388174E+00
         -2   -1    0    0    0  501 -0.00000000000E+00  0.00000000000E+00  0.12418166325E+02  0.12418166325E+02  0.00000000000E+00 0.  1.
          2   -1    0    0  501    0  0.00000000000E+00 -0.00000000000E+00 -0.44306376612E+03  0.44306376612E+03  0.00000000000E+00 0. -1.
         23    2    1    2    0    0 -0.15991975910E+02 -0.84434439543E+01 -0.42669212776E+03  0.43697072016E+03  0.92467309598E+02 0.  0.
         13    1    3    3    0    0  0.15643142610E+02  0.26921130690E+01 -0.96374963175E+01  0.18569779718E+02  0.00000000000E+00 0.  1.
        -13    1    3    3    0    0 -0.31635118520E+02 -0.11135557023E+02 -0.41705463144E+03  0.41840094044E+03  0.00000000000E+00 0. -1.
         22    1    1    2    0    0  0.15991975910E+02  0.84434439543E+01 -0.39534720400E+01  0.18511212291E+02  0.00000000000E+00 0.  1.
<mgrwt>
<rscale>  0 0.62363214E+02</rscale>
<asrwt>0</asrwt>
<pdfrwt beam="1">  1        2 0.68163651E-01 0.94219098E+02</pdfrwt>
<pdfrwt beam="2">  1       -2 0.19104873E-02 0.94219098E+02</pdfrwt>
<totfact> 0.52132069E+04</totfact>
</mgrwt>
</event>
<event>
 6    1  0.1535419E-002  0.9277648E+02  0.7546771E-02  0.1397662E+00
         -2   -1    0    0    0  501 -0.00000000000E+00  0.00000000000E+00  0.10055061551E+02  0.10055061551E+02  0.00000000000E+00 0. -1.
          2   -1    0    0  501    0  0.00000000000E+00 -0.00000000000E+00 -0.51471413603E+03  0.51471413603E+03  0.00000000000E+00 0.  1.
         23    2    1    2    0    0  0.14546721536E+02  0.72934538716E+01 -0.49898331977E+03  0.50753505216E+03  0.91338240551E+02 0.  0.
         11    1    3    3    0    0  0.30338984175E+02 -0.10991459012E+02 -0.62093002531E+02  0.69977189821E+02  0.00000000000E+00 0. -1.
        -11    1    3    3    0    0 -0.15792262639E+02  0.18284912884E+02 -0.43689031724E+03  0.43755786234E+03  0.00000000000E+00 0.  1.
         22    1    1    2    0    0 -0.14546721536E+02 -0.72934538716E+01 -0.56757547089E+01  0.17234145419E+02  0.00000000000E+00 0. -1.
<mgrwt>
<rscale>  0 0.60040389E+02</rscale>
<asrwt>0</asrwt>
<pdfrwt beam="1">  1        2 0.79186773E-01 0.92776483E+02</pdfrwt>
<pdfrwt beam="2">  1       -2 0.15469329E-02 0.92776483E+02</pdfrwt>
<totfact> 0.59918000E+04</totfact>
</mgrwt>
</event>
<event>
 6    1  0.1535419E-002  0.9259147E+02  0.7546771E-02  0.1398800E+00
         -2   -1    0    0    0  501 -0.00000000000E+00  0.00000000000E+00  0.62468380127E+02  0.62468380127E+02  0.00000000000E+00 0.  1.
          2   -1    0    0  501    0  0.00000000000E+00 -0.00000000000E+00 -0.47291041404E+02  0.47291041404E+02  0.00000000000E+00 0. -1.
         23    2    1    2    0    0  0.40662407030E+00 -0.16072341975E+02  0.13932241842E+02  0.93633796398E+02  0.91184949117E+02 0.  0.
         13    1    3    3    0    0 -0.25496999945E+02 -0.34190392083E+02  0.35395342985E+02  0.55424815941E+02  0.00000000000E+00 0.  1.
        -13    1    3    3    0    0  0.25903624016E+02  0.18118050108E+02 -0.21463101143E+02  0.38208980457E+02  0.00000000000E+00 0. -1.
         22    1    1    2    0    0 -0.40662407030E+00  0.16072341975E+02  0.12450968808E+01  0.16125625133E+02  0.00000000000E+00 0. -1.
<mgrwt>
<rscale>  0 0.59769932E+02</rscale>
<asrwt>0</asrwt>
<pdfrwt beam="1">  1        2 0.72755448E-02 0.92591471E+02</pdfrwt>
<pdfrwt beam="2">  1       -2 0.96105201E-02 0.92591471E+02</pdfrwt>
<totfact> 0.58298042E+04</totfact>
</mgrwt>
</event>
<event>
 6    1  0.1535419E-002  0.9439530E+02  0.7546771E-02  0.1363968E+00
          1   -1    0    0  501    0  0.00000000000E+00  0.00000000000E+00  0.75370445794E+03  0.75370445794E+03  0.00000000000E+00 0. -1.
         -1   -1    0    0    0  501 -0.00000000000E+00 -0.00000000000E+00 -0.66536917479E+01  0.66536917479E+01  0.00000000000E+00 0.  1.
         23    2    1    2    0    0  0.19664405733E+02 -0.18136741416E+02  0.69915054212E+03  0.70549412042E+03  0.90525372958E+02 0.  0.
         11    1    3    3    0    0  0.54034039811E+01  0.24545386601E+02  0.64100912413E+02  0.68852013406E+02  0.00000000000E+00 0.  1.
        -11    1    3    3    0    0  0.14261001752E+02 -0.42682128017E+02  0.63504962971E+03  0.63664210701E+03  0.00000000000E+00 0. -1.
         22    1    1    2    0    0 -0.19664405733E+02  0.18136741416E+02  0.47900224069E+02  0.54864029271E+02  0.00000000000E+00 0.  1.
<mgrwt>
<rscale>  0 0.68872980E+02</rscale>
<asrwt>0</asrwt>
<pdfrwt beam="1">  1        1 0.11595446E+00 0.94395304E+02</pdfrwt>
<pdfrwt beam="2">  1       -1 0.10236455E-02 0.94395304E+02</pdfrwt>
<totfact> 0.41372343E+04</totfact>
</mgrwt>
</event>
<event>
 6    1  0.1535419E-002  0.1015364E+03  0.7546771E-02  0.1326857E+00
          2   -1    0    0  501    0  0.00000000000E+00  0.00000000000E+00  0.71155576415E+01  0.71155576415E+01  0.00000000000E+00 0. -1.
         -2   -1    0    0    0  501 -0.00000000000E+00 -0.00000000000E+00 -0.72642154904E+03  0.72642154904E+03  0.00000000000E+00 0.  1.
         23    2    1    2    0    0  0.10665507450E+02  0.39250658160E+02 -0.55933282909E+03  0.56847414938E+03  0.93033744397E+02 0.  0.
         13    1    3    3    0    0  0.31990228760E+02 -0.14965758607E+02 -0.11396783560E+03  0.11931477787E+03  0.00000000000E+00 0. -1.
        -13    1    3    3    0    0 -0.21324721310E+02  0.54216416767E+02 -0.44536499349E+03  0.44915937150E+03  0.00000000000E+00 0.  1.
         22    1    1    2    0    0 -0.10665507450E+02 -0.39250658160E+02 -0.15997316230E+03  0.16506295730E+03  0.00000000000E+00 0. -1.
<mgrwt>
<rscale>  0 0.80778424E+02</rscale>
<asrwt>0</asrwt>
<pdfrwt beam="1">  1        2 0.10947013E-02 0.10153642E+03</pdfrwt>
<pdfrwt beam="2">  1       -2 0.11175715E+00 0.10153642E+03</pdfrwt>
<totfact> 0.76011066E+03</totfact>
</mgrwt>
</event>
<event>
 6    1  0.1535419E-002  0.9770855E+02  0.7546771E-02  0.1413369E+00
          2   -1    0    0  501    0  0.00000000000E+00  0.00000000000E+00  0.71853799695E+03  0.71853799695E+03  0.00000000000E+00 0. -1.
         -2   -1    0    0    0  501 -0.00000000000E+00 -0.00000000000E+00 -0.41322313674E+01  0.41322313674E+01  0.00000000000E+00 0.  1.
         23    2    1    2    0    0 -0.55155215303E+01  0.93840271890E+01  0.65915377398E+03  0.66635625562E+03  0.97100364151E+02 0.  0.
         11    1    3    3    0    0 -0.36301701902E+02 -0.13989033323E+02  0.12759910281E+03  0.13339804216E+03  0.00000000000E+00 0.  1.
        -11    1    3    3    0    0  0.30786180372E+02  0.23373060512E+02  0.53155467117E+03  0.53295821347E+03  0.00000000000E+00 0. -1.
         22    1    1    2    0    0  0.55155215303E+01 -0.93840271890E+01  0.55251991612E+02  0.56313972699E+02  0.00000000000E+00 0. -1.
<mgrwt>
<rscale>  0 0.56448903E+02</rscale>
<asrwt>0</asrwt>
<pdfrwt beam="1">  1        2 0.11054421E+00 0.97708555E+02</pdfrwt>
<pdfrwt beam="2">  1       -2 0.63572847E-03 0.97708555E+02</pdfrwt>
<totfact> 0.14611506E+05</totfact>
</mgrwt>
</event>
<event>
 6    1  0.1535419E-002  0.8999810E+02  0.7546771E-02  0.1426934E+00
          4   -1    0    0  501    0  0.00000000000E+00  0.00000000000E+00  0.23294149548E+02  0.23294149548E+02  0.00000000000E+00 0. -1.
         -4   -1    0    0    0  501 -0.00000000000E+00 -0.00000000000E+00 -0.12362295670E+03  0.12362295670E+03  0.00000000000E+00 0.  1.
         23    2    1    2    0    0  0.27311743762E+01 -0.10971647304E+02 -0.68385999520E+02  0.11303231147E+03  0.89285061163E+02 0.  0.
         11    1    3    3    0    0 -0.27621293809E+02  0.14653926064E+02 -0.66242467071E+02  0.73251197017E+02  0.00000000000E+00 0.  1.
        -11    1    3    3    0    0  0.30352468185E+02 -0.25625573368E+02 -0.21435324482E+01  0.39781114448E+02  0.00000000000E+00 0. -1.
         22    1    1    2    0    0 -0.27311743762E+01  0.10971647304E+02 -0.31942807631E+02  0.33884794781E+02  0.00000000000E+00 0.  1.
<mgrwt>
<rscale>  0 0.53580506E+02</rscale>
<asrwt>0</asrwt>
<pdfrwt beam="1">  1        4 0.35837153E-02 0.89998103E+02</pdfrwt>
<pdfrwt beam="2">  1       -4 0.19018916E-01 0.89998103E+02</pdfrwt>
<totfact> 0.14496085E+04</totfact>
</mgrwt>
</event>
<event>
 6    1  0.1535419E-002  0.9348630E+02  0.7546771E-02  0.1374249E+00
         -2   -1    0    0    0  501 -0.00000000000E+00  0.00000000000E+00  0.90884202546E+02  0.90884202546E+02  0.00000000000E+00 0.  1.
          2   -1    0    0  501    0  0.00000000000E+00 -0.00000000000E+00 -0.59660397076E+02  0.59660397076E+02  0.00000000000E+00 0. -1.
         23    2    1    2    0    0 -0.11460865623E+02  0.20198509274E+02 -0.18831676540E+02  0.95364145683E+02  0.90555822689E+02 0.  0.
         11    1    3    3    0    0  0.15040529890E+02 -0.28255389924E+02  0.93702164637E+01  0.33352444524E+02  0.00000000000E+00 0. -1.
        -11    1    3    3    0    0 -0.26501395514E+02  0.48453899198E+02 -0.28201893003E+02  0.62011701159E+02  0.00000000000E+00 0.  1.
         22    1    1    2    0    0  0.11460865623E+02 -0.20198509274E+02  0.50055482009E+02  0.55180453939E+02  0.00000000000E+00 0.  1.
<mgrwt>
<rscale>  0 0.65999846E+02</rscale>
<asrwt>0</asrwt>
<pdfrwt beam="1">  1        2 0.91785226E-02 0.93486300E+02</pdfrwt>
<pdfrwt beam="2">  1       -2 0.13982185E-01 0.93486300E+02</pdfrwt>
<totfact> 0.24234407E+04</totfact>
</mgrwt>
</event>
<event>
 6    1  0.1535419E-002  0.9262104E+02  0.7546771E-02  0.1394953E+00
         -2   -1    0    0    0  501 -0.00000000000E+00  0.00000000000E+00  0.54181692648E+01  0.54181692648E+01  0.00000000000E+00 0.  1.
          2   -1    0    0  501    0  0.00000000000E+00 -0.00000000000E+00 -0.99511835816E+03  0.99511835816E+03  0.00000000000E+00 0. -1.
         23    2    1    2    0    0 -0.17052725290E+02 -0.88659737923E+00 -0.97022310957E+03  0.97463405430E+03  0.91033378333E+02 0.  0.
         11    1    3    3    0    0 -0.94859656334E+01 -0.35031279515E+02 -0.80165994591E+03  0.80248105459E+03  0.00000000000E+00 0. -1.
        -11    1    3    3    0    0 -0.75667596567E+01  0.34144682135E+02 -0.16856316366E+03  0.17215299972E+03  0.00000000000E+00 0.  1.
         22    1    1    2    0    0  0.17052725290E+02  0.88659737923E+00 -0.19477079325E+02  0.25902473120E+02  0.00000000000E+00 0.  1.
<mgrwt>
<rscale>  0 0.60691412E+02</rscale>
<asrwt>0</asrwt>
<pdfrwt beam="1">  1        2 0.15309524E+00 0.92621042E+02</pdfrwt>
<pdfrwt beam="2">  1       -2 0.83356390E-03 0.92621042E+02</pdfrwt>
<totfact> 0.65787430E+04</totfact>
</mgrwt>
</event>
<event>
 6    1  0.1535419E-002  0.9244986E+02  0.7546771E-02  0.1381864E+00
         -1   -1    0    0    0  501 -0.00000000000E+00  0.00000000000E+00  0.11199206692E+03  0.11199206692E+03  0.00000000000E+00 0.  1.
          1   -1    0    0  501    0  0.00000000000E+00 -0.00000000000E+00 -0.61028962404E+02  0.61028962404E+02  0.00000000000E+00 0. -1.
         23    2    1    2    0    0 -0.19079037838E+02 -0.92455994498E+01 -0.23672578127E+02  0.95432525553E+02  0.89986027716E+02 0.  0.
         11    1    3    3    0    0  0.86677743957E+01  0.37223245868E+02 -0.12077124348E+02  0.40081882172E+02  0.00000000000E+00 0.  1.
        -11    1    3    3    0    0 -0.27746812234E+02 -0.46468845318E+02 -0.11595453779E+02  0.55350643381E+02  0.00000000000E+00 0. -1.
         22    1    1    2    0    0  0.19079037838E+02  0.92455994498E+01  0.74635682644E+02  0.77588503773E+02  0.00000000000E+00 0.  1.
<mgrwt>
<rscale>  0 0.63976398E+02</rscale>
<asrwt>0</asrwt>
<pdfrwt beam="1">  1        1 0.93890712E-02 0.92449857E+02</pdfrwt>
<pdfrwt beam="2">  1       -1 0.17229549E-01 0.92449857E+02</pdfrwt>
<totfact> 0.16046273E+04</totfact>
</mgrwt>
</event>
<event>
 6    1  0.1535419E-002  0.9258910E+02  0.7546771E-02  0.1397005E+00
         -1   -1    0    0    0  501 -0.00000000000E+00  0.00000000000E+00  0.28713084879E+02  0.28713084879E+02  0.00000000000E+00 0. -1.
          1   -1    0    0  501    0  0.00000000000E+00 -0.00000000000E+00 -0.13956404257E+03  0.13956404257E+03  0.00000000000E+00 0.  1.
         23    2    1    2    0    0  0.83064744750E+01 -0.14307193065E+02 -0.11822350478E+03  0.15016503916E+03  0.91099114231E+02 0.  0.
         13    1    3    3    0    0 -0.38026252384E+02 -0.22813907103E+02 -0.45644458386E+02  0.63638720989E+02  0.00000000000E+00 0. -1.
        -13    1    3    3    0    0  0.46332726859E+02  0.85067140376E+01 -0.72579046392E+02  0.86526318176E+02  0.00000000000E+00 0.  1.
         22    1    1    2    0    0 -0.83064744750E+01  0.14307193065E+02  0.73725470851E+01  0.18112088287E+02  0.00000000000E+00 0. -1.
<mgrwt>
<rscale>  0 0.60197426E+02</rscale>
<asrwt>0</asrwt>
<pdfrwt beam="1">  1        1 0.21471391E-01 0.92589103E+02</pdfrwt>
<pdfrwt beam="2">  1       -1 0.44173977E-02 0.92589103E+02</pdfrwt>
<totfact> 0.42991143E+04</totfact>
</mgrwt>
</event>
<event>
 6    1  0.1535419E-002  0.9722357E+02  0.7546771E-02  0.1343905E+00
          2   -1    0    0  501    0  0.00000000000E+00  0.00000000000E+00  0.10039369918E+04  0.10039369918E+04  0.00000000000E+00 0. -1.
         -2   -1    0    0    0  501 -0.00000000000E+00 -0.00000000000E+00 -0.46878394557E+01  0.46878394557E+01  0.00000000000E+00 0.  1.
         23    2    1    2    0    0 -0.34200410920E+02  0.37884361424E+01  0.84554233866E+03  0.85111354617E+03  0.90930751979E+02 0.  0.
         11    1    3    3    0    0  0.48471319904E+01 -0.38885248210E+02  0.31537682348E+03  0.31780197923E+03  0.00000000000E+00 0.  1.
        -11    1    3    3    0    0 -0.39047542911E+02  0.42673684352E+02  0.53016551518E+03  0.53331156693E+03  0.00000000000E+00 0. -1.
         22    1    1    2    0    0  0.34200410920E+02 -0.37884361424E+01  0.15370681366E+03  0.15751128506E+03  0.00000000000E+00 0.  1.
<mgrwt>
<rscale>  0 0.74989172E+02</rscale>
<asrwt>0</asrwt>
<pdfrwt beam="1">  1        2 0.15445167E+00 0.97223567E+02</pdfrwt>
<pdfrwt beam="2">  1       -2 0.72120687E-03 0.97223567E+02</pdfrwt>
<totfact> 0.80206815E+04</totfact>
</mgrwt>
</event>
<event>
 6    1  0.1535419E-002  0.8990006E+02  0.7546771E-02  0.1426231E+00
          2   -1    0    0  501    0  0.00000000000E+00  0.00000000000E+00  0.10467085575E+04  0.10467085575E+04  0.00000000000E+00 0. -1.
         -2   -1    0    0    0  501 -0.00000000000E+00 -0.00000000000E+00 -0.30817733443E+01  0.30817733443E+01  0.00000000000E+00 0.  1.
         23    2    1    2    0    0 -0.87059990242E+01  0.74608745606E+01  0.10146916763E+04  0.10186663925E+04  0.89165925630E+02 0.  0.
         13    1    3    3    0    0 -0.16366548299E+02  0.19601984137E+02  0.98824255668E+03  0.98857243160E+03  0.00000000000E+00 0. -1.
        -13    1    3    3    0    0  0.76605492753E+01 -0.12141109577E+02  0.26449119599E+02  0.30093960931E+02  0.00000000000E+00 0.  1.
         22    1    1    2    0    0  0.87059990242E+01 -0.74608745606E+01  0.28935107853E+02  0.31123938290E+02  0.00000000000E+00 0. -1.
<mgrwt>
<rscale>  0 0.53724059E+02</rscale>
<asrwt>0</asrwt>
<pdfrwt beam="1">  1        2 0.16103180E+00 0.89900063E+02</pdfrwt>
<pdfrwt beam="2">  1       -2 0.47411981E-03 0.89900063E+02</pdfrwt>
<totfact> 0.13521245E+05</totfact>
</mgrwt>
</event>
<event>
 6    1  0.1535419E-002  0.9477752E+02  0.7546771E-02  0.1362552E+00
         -2   -1    0    0    0  501 -0.00000000000E+00  0.00000000000E+00  0.30679921897E+01  0.30679921897E+01  0.00000000000E+00 0.  1.
          2   -1    0    0  501    0  0.00000000000E+00 -0.00000000000E+00 -0.13156119282E+04  0.13156119282E+04  0.00000000000E+00 0. -1.
         23    2    1    2    0    0 -0.23045951839E+02 -0.14186440043E+02 -0.11499605429E+04  0.11538596222E+04  0.90831748631E+02 0.  0.
         13    1    3    3    0    0  0.19816469342E+02 -0.28844211567E+02 -0.82671921957E+03  0.82745957545E+03  0.00000000000E+00 0. -1.
        -13    1    3    3    0    0 -0.42862421181E+02  0.14657771524E+02 -0.32324132331E+03  0.32640004674E+03  0.00000000000E+00 0.  1.
         22    1    1    2    0    0  0.23045951839E+02  0.14186440043E+02 -0.16258339311E+03  0.16482029818E+03  0.00000000000E+00 0.  1.
<mgrwt>
<rscale>  0 0.69281995E+02</rscale>
<asrwt>0</asrwt>
<pdfrwt beam="1">  1        2 0.20240222E+00 0.94777516E+02</pdfrwt>
<pdfrwt beam="2">  1       -2 0.47199791E-03 0.94777516E+02</pdfrwt>
<totfact> 0.97570118E+04</totfact>
</mgrwt>
</event>
<event>
 6    1  0.1535419E-002  0.9284538E+02  0.7546771E-02  0.1402299E+00
         -1   -1    0    0    0  501 -0.00000000000E+00  0.00000000000E+00  0.10536234486E+02  0.10536234486E+02  0.00000000000E+00 0.  1.
          1   -1    0    0  501    0  0.00000000000E+00 -0.00000000000E+00 -0.37103628940E+03  0.37103628940E+03  0.00000000000E+00 0. -1.
         23    2    1    2    0    0  0.14612478155E+02 -0.37545982226E+01 -0.35244623001E+03  0.36447031288E+03  0.91611366081E+02 0.  0.
         11    1    3    3    0    0  0.17671244420E+02 -0.42762630711E+02 -0.11739068326E+03  0.12618037875E+03  0.00000000000E+00 0. -1.
        -11    1    3    3    0    0 -0.30587662648E+01  0.39008032489E+02 -0.23505554675E+03  0.23828993413E+03  0.00000000000E+00 0.  1.
         22    1    1    2    0    0 -0.14612478155E+02  0.37545982226E+01 -0.80538248969E+01  0.17102211001E+02  0.00000000000E+00 0.  1.
<mgrwt>
<rscale>  0 0.58948380E+02</rscale>
<asrwt>0</asrwt>
<pdfrwt beam="1">  1        1 0.57082509E-01 0.92845376E+02</pdfrwt>
<pdfrwt beam="2">  1       -1 0.16209591E-02 0.92845376E+02</pdfrwt>
<totfact> 0.54633702E+04</totfact>
</mgrwt>
</event>
<event>
 6    1  0.1535419E-002  0.1238150E+03  0.7546771E-02  0.1358292E+00
          2   -1    0    0  501    0  0.00000000000E+00  0.00000000000E+00  0.48303635529E+02  0.48303635529E+02  0.00000000000E+00 0. -1.
         -2   -1    0    0    0  501 -0.00000000000E+00 -0.00000000000E+00 -0.97820370220E+02  0.97820370220E+02  0.00000000000E+00 0.  1.
         23    2    1    2    0    0 -0.34959233881E+01  0.12561357036E+02 -0.40497187709E+02  0.13026962469E+03  0.12312653546E+03 0.  0.
         13    1    3    3    0    0 -0.42649312232E+02 -0.39754022786E+02 -0.22472208954E+02  0.62484768839E+02  0.00000000000E+00 0.  1.
        -13    1    3    3    0    0  0.39153388844E+02  0.52315379823E+02 -0.18024978755E+02  0.67784855853E+02  0.00000000000E+00 0. -1.
         22    1    1    2    0    0  0.34959233881E+01 -0.12561357036E+02 -0.90195469821E+01  0.15854381057E+02  0.00000000000E+00 0.  1.
<mgrwt>
<rscale>  0 0.70532451E+02</rscale>
<asrwt>0</asrwt>
<pdfrwt beam="1">  1        2 0.74313287E-02 0.12381499E+03</pdfrwt>
<pdfrwt beam="2">  1       -2 0.15049287E-01 0.12381499E+03</pdfrwt>
<totfact> 0.28906773E+04</totfact>
</mgrwt>
</event>
<event>
 6    1  0.1535419E-002  0.9903306E+02  0.7546771E-02  0.1335934E+00
         -2   -1    0    0    0  501 -0.00000000000E+00  0.00000000000E+00  0.50111080797E+02  0.50111080797E+02  0.00000000000E+00 0.  1.
          2   -1    0    0  501    0  0.00000000000E+00 -0.00000000000E+00 -0.93896353604E+02  0.93896353604E+02  0.00000000000E+00 0. -1.
         23    2    1    2    0    0 -0.13148683729E+00 -0.37379278218E+02 -0.38511945307E+02  0.10625778921E+03  0.91707797424E+02 0.  0.
         13    1    3    3    0    0  0.23546694183E+02 -0.11941044895E+02  0.23386991638E+02  0.35270196172E+02  0.00000000000E+00 0.  1.
        -13    1    3    3    0    0 -0.23678181020E+02 -0.25438233323E+02 -0.61898936945E+02  0.70987593042E+02  0.00000000000E+00 0. -1.
         22    1    1    2    0    0  0.13148683729E+00  0.37379278218E+02 -0.52733275000E+01  0.37749645188E+02  0.00000000000E+00 0.  1.
<mgrwt>
<rscale>  0 0.77623561E+02</rscale>
<asrwt>0</asrwt>
<pdfrwt beam="1">  1        2 0.14445593E-01 0.99033064E+02</pdfrwt>
<pdfrwt beam="2">  1       -2 0.77093970E-02 0.99033064E+02</pdfrwt>
<totfact> 0.36015912E+04</totfact>
</mgrwt>
</event>
<event>
 6    1  0.1535419E-002  0.9902846E+02  0.7546771E-02  0.1331367E+00
          2   -1    0    0  501    0  0.00000000000E+00  0.00000000000E+00  0.30856079076E+04  0.30856079076E+04  0.00000000000E+00 0.  1.
         -2   -1    0    0    0  501 -0.00000000000E+00 -0.00000000000E+00 -0.28625862841E+01  0.28625862841E+01  0.00000000000E+00 0. -1.
         23    2    1    2    0    0  0.12312021311E+02 -0.38577049439E+02  0.28809937342E+04  0.28826951855E+04  0.90370690701E+02 0.  0.
         13    1    3    3    0    0 -0.15812978972E+02 -0.48312799420E+02  0.87167922056E+03  0.87316026046E+03  0.00000000000E+00 0. -1.
        -13    1    3    3    0    0  0.28125000283E+02  0.97357499812E+01  0.20093145136E+04  0.20095349251E+04  0.00000000000E+00 0.  1.
         22    1    1    2    0    0 -0.12312021311E+02  0.38577049439E+02  0.20175158712E+03  0.20577530833E+03  0.00000000000E+00 0. -1.
<mgrwt>
<rscale>  0 0.79189581E+02</rscale>
<asrwt>0</asrwt>
<pdfrwt beam="1">  1        2 0.47470625E+00 0.99028462E+02</pdfrwt>
<pdfrwt beam="2">  1       -2 0.44040036E-03 0.99028462E+02</pdfrwt>
<totfact> 0.12739900E+04</totfact>
</mgrwt>
</event>
<event>
 6    1  0.1535419E-002  0.1125074E+03  0.7546771E-02  0.1284188E+00
         -2   -1    0    0    0  501 -0.00000000000E+00  0.00000000000E+00  0.15134634349E+02  0.15134634349E+02  0.00000000000E+00 0.  1.
          2   -1    0    0  501    0  0.00000000000E+00 -0.00000000000E+00 -0.55440537942E+03  0.55440537942E+03  0.00000000000E+00 0. -1.
         23    2    1    2    0    0 -0.10281250263E+02 -0.64408082483E+02 -0.40388185611E+03  0.41925942137E+03  0.91672261459E+02 0.  0.
         13    1    3    3    0    0  0.18902493195E+02  0.75216190951E+01 -0.23700971058E+02  0.31234836832E+02  0.00000000000E+00 0.  1.
        -13    1    3    3    0    0 -0.29183743459E+02 -0.71929701578E+02 -0.38018088505E+03  0.38802458454E+03  0.00000000000E+00 0. -1.
         22    1    1    2    0    0  0.10281250263E+02  0.64408082483E+02 -0.13538888896E+03  0.15028059239E+03  0.00000000000E+00 0.  1.
<mgrwt>
<rscale>  0 0.98171802E+02</rscale>
<asrwt>0</asrwt>
<pdfrwt beam="1">  1        2 0.85293134E-01 0.11250737E+03</pdfrwt>
<pdfrwt beam="2">  1       -2 0.23284053E-02 0.11250737E+03</pdfrwt>
<totfact> 0.31348420E+04</totfact>
</mgrwt>
</event>
<event>
 6    1  0.1535419E-002  0.9020180E+02  0.7546771E-02  0.1429125E+00
          2   -1    0    0  501    0  0.00000000000E+00  0.00000000000E+00  0.23544402154E+04  0.23544402154E+04  0.00000000000E+00 0. -1.
         -2   -1    0    0    0  501 -0.00000000000E+00 -0.00000000000E+00 -0.32905450215E+01  0.32905450215E+01  0.00000000000E+00 0.  1.
         23    2    1    2    0    0 -0.10132502239E+02 -0.39134247818E+01  0.23413941541E+04  0.23431310141E+04  0.89545417988E+02 0.  0.
         13    1    3    3    0    0 -0.19664724634E+02  0.64600222509E+01  0.22818158161E+04  0.22819096941E+04  0.00000000000E+00 0. -1.
        -13    1    3    3    0    0  0.95322223952E+01 -0.10373447033E+02  0.59578337938E+02  0.61221319968E+02  0.00000000000E+00 0.  1.
         22    1    1    2    0    0  0.10132502239E+02  0.39134247818E+01  0.97555163116E+01  0.14599746356E+02  0.00000000000E+00 0.  1.
<mgrwt>
<rscale>  0 0.53135968E+02</rscale>
<asrwt>0</asrwt>
<pdfrwt beam="1">  1        2 0.36222022E+00 0.90201798E+02</pdfrwt>
<pdfrwt beam="2">  1       -2 0.50623958E-03 0.90201798E+02</pdfrwt>
<totfact> 0.26112675E+04</totfact>
</mgrwt>
</event>
<event>
 6    1  0.1535419E-002  0.9655157E+02  0.7546771E-02  0.1335783E+00
          2   -1    0    0  501    0  0.00000000000E+00  0.00000000000E+00  0.15319997088E+03  0.15319997088E+03  0.00000000000E+00 0. -1.
         -2   -1    0    0    0  501 -0.00000000000E+00 -0.00000000000E+00 -0.35359251487E+02  0.35359251487E+02  0.00000000000E+00 0.  1.
         23    2    1    2    0    0 -0.13247607732E+02 -0.38211372317E+02  0.11171295991E+03  0.14765497416E+03  0.87673245054E+02 0.  0.
         11    1    3    3    0    0 -0.26205608319E+02 -0.43207732349E+02  0.12087782958E+03  0.13101561634E+03  0.00000000000E+00 0. -1.
        -11    1    3    3    0    0  0.12958000587E+02  0.49963600319E+01 -0.91648696651E+01  0.16639357823E+02  0.00000000000E+00 0.  1.
         22    1    1    2    0    0  0.13247607732E+02  0.38211372317E+02  0.61277594840E+01  0.40904248206E+02  0.00000000000E+00 0.  1.
<mgrwt>
<rscale>  0 0.77674670E+02</rscale>
<asrwt>0</asrwt>
<pdfrwt beam="1">  1        2 0.23569226E-01 0.96551572E+02</pdfrwt>
<pdfrwt beam="2">  1       -2 0.54398849E-02 0.96551572E+02</pdfrwt>
<totfact> 0.34951755E+04</totfact>
</mgrwt>
</event>
<event>
 6    1  0.1535419E-002  0.9687159E+02  0.7546771E-02  0.1349614E+00
          2   -1    0    0  501    0  0.00000000000E+00  0.00000000000E+00  0.10178059416E+04  0.10178059416E+04  0.00000000000E+00 0. -1.
         -2   -1    0    0    0  501 -0.00000000000E+00 -0.00000000000E+00 -0.58402760902E+01  0.58402760902E+01  0.00000000000E+00 0.  1.
         23    2    1    2    0    0  0.31037366249E+02  0.56175305004E+01  0.94116768398E+03  0.94613990219E+03  0.91592742093E+02 0.  0.
         13    1    3    3    0    0 -0.22182442202E+02 -0.12735816193E+01  0.62906130707E+03  0.62945358114E+03  0.00000000000E+00 0. -1.
        -13    1    3    3    0    0  0.53219808451E+02  0.68911121198E+01  0.31210637691E+03  0.31668632106E+03  0.00000000000E+00 0.  1.
         22    1    1    2    0    0 -0.31037366249E+02 -0.56175305004E+01  0.70797981501E+02  0.77506315466E+02  0.00000000000E+00 0.  1.
<mgrwt>
<rscale>  0 0.73175951E+02</rscale>
<asrwt>0</asrwt>
<pdfrwt beam="1">  1        2 0.15658539E+00 0.96871591E+02</pdfrwt>
<pdfrwt beam="2">  1       -2 0.89850482E-03 0.96871591E+02</pdfrwt>
<totfact> 0.57679315E+04</totfact>
</mgrwt>
</event>
<event>
 6    1  0.1535419E-002  0.9450749E+02  0.7546771E-02  0.1381418E+00
         -2   -1    0    0    0  501 -0.00000000000E+00  0.00000000000E+00  0.54448042195E+03  0.54448042195E+03  0.00000000000E+00 0.  1.
          2   -1    0    0  501    0  0.00000000000E+00 -0.00000000000E+00 -0.65526788776E+01  0.65526788776E+01  0.00000000000E+00 0. -1.
         23    2    1    2    0    0 -0.19184239606E+02 -0.56207445864E+01  0.49119577518E+03  0.50020491335E+03  0.92369031432E+02 0.  0.
         13    1    3    3    0    0 -0.32250979354E+02 -0.37569903687E+02  0.16724992512E+03  0.17442522978E+03  0.00000000000E+00 0. -1.
        -13    1    3    3    0    0  0.13066739748E+02  0.31949159100E+02  0.32394585006E+03  0.32577968357E+03  0.00000000000E+00 0.  1.
         22    1    1    2    0    0  0.19184239606E+02  0.56207445864E+01  0.46731967890E+02  0.50828187473E+02  0.00000000000E+00 0. -1.
<mgrwt>
<rscale>  0 0.64092415E+02</rscale>
<asrwt>0</asrwt>
<pdfrwt beam="1">  1        2 0.10081049E-02 0.94507491E+02</pdfrwt>
<pdfrwt beam="2">  1       -2 0.83766183E-01 0.94507491E+02</pdfrwt>
<totfact> 0.16229493E+04</totfact>
</mgrwt>
</event>
<event>
 6    1  0.1535419E-002  0.9162670E+02  0.7546771E-02  0.1402661E+00
          2   -1    0    0  501    0  0.00000000000E+00  0.00000000000E+00  0.17465440847E+04  0.17465440847E+04  0.00000000000E+00 0. -1.
         -2   -1    0    0    0  501 -0.00000000000E+00 -0.00000000000E+00 -0.32508588214E+01  0.32508588214E+01  0.00000000000E+00 0.  1.
         23    2    1    2    0    0  0.14223543244E+02  0.64257483643E+01  0.17152934985E+04  0.17177389900E+04  0.90287608503E+02 0.  0.
         11    1    3    3    0    0 -0.13789698560E+02 -0.16128156363E+02  0.10918374955E+03  0.11122663520E+03  0.00000000000E+00 0.  1.
        -11    1    3    3    0    0  0.28013241804E+02  0.22553904727E+02  0.16061097490E+04  0.16065123548E+04  0.00000000000E+00 0. -1.
         22    1    1    2    0    0 -0.14223543244E+02 -0.64257483643E+01  0.27999727351E+02  0.32055953522E+02  0.00000000000E+00 0.  1.
<mgrwt>
<rscale>  0 0.58864174E+02</rscale>
<asrwt>0</asrwt>
<pdfrwt beam="1">  1        2 0.26869834E+00 0.91626697E+02</pdfrwt>
<pdfrwt beam="2">  1       -2 0.50013352E-03 0.91626697E+02</pdfrwt>
<totfact> 0.53959154E+04</totfact>
</mgrwt>
</event>
<event>
 6    1  0.1535419E-002  0.9155569E+02  0.7546771E-02  0.1429482E+00
         -2   -1    0    0    0  501 -0.00000000000E+00  0.00000000000E+00  0.84788930615E+01  0.84788930615E+01  0.00000000000E+00 0.  1.
          2   -1    0    0  501    0  0.00000000000E+00 -0.00000000000E+00 -0.33921400330E+03  0.33921400330E+03  0.00000000000E+00 0. -1.
         23    2    1    2    0    0  0.82045519266E+01  0.62782643584E+01 -0.31980714198E+03  0.33265455317E+03  0.90970942654E+02 0.  0.
         13    1    3    3    0    0 -0.12648464179E+02 -0.37614387624E+02 -0.10100497474E+03  0.10852110727E+03  0.00000000000E+00 0.  1.
        -13    1    3    3    0    0  0.20853016105E+02  0.43892651982E+02 -0.21880216725E+03  0.22413344590E+03  0.00000000000E+00 0. -1.
         22    1    1    2    0    0 -0.82045519266E+01 -0.62782643584E+01 -0.10927968255E+02  0.15038343188E+02  0.00000000000E+00 0.  1.
<mgrwt>
<rscale>  0 0.53064057E+02</rscale>
<asrwt>0</asrwt>
<pdfrwt beam="1">  1        2 0.52186777E-01 0.91555686E+02</pdfrwt>
<pdfrwt beam="2">  1       -2 0.13044449E-02 0.91555686E+02</pdfrwt>
<totfact> 0.11867876E+05</totfact>
</mgrwt>
</event>
<event>
 6    1  0.1535419E-002  0.8967657E+02  0.7546771E-02  0.1405720E+00
          2   -1    0    0  501    0  0.00000000000E+00  0.00000000000E+00  0.44307124384E+03  0.44307124384E+03  0.00000000000E+00 0. -1.
         -2   -1    0    0    0  501 -0.00000000000E+00 -0.00000000000E+00 -0.62852335743E+01  0.62852335743E+01  0.00000000000E+00 0.  1.
         23    2    1    2    0    0  0.53730385273E+01  0.14928057198E+02  0.37155861905E+03  0.38222728109E+03  0.88261943001E+02 0.  0.
         13    1    3    3    0    0 -0.16922221682E+02 -0.30881067459E+02  0.20663436348E+03  0.20961336332E+03  0.00000000000E+00 0. -1.
        -13    1    3    3    0    0  0.22295260210E+02  0.45809124656E+02  0.16492425558E+03  0.17261391777E+03  0.00000000000E+00 0.  1.
         22    1    1    2    0    0 -0.53730385273E+01 -0.14928057198E+02  0.65227391210E+02  0.67129196322E+02  0.00000000000E+00 0. -1.
<mgrwt>
<rscale>  0 0.58159837E+02</rscale>
<asrwt>0</asrwt>
<pdfrwt beam="1">  1        2 0.68164782E-01 0.89676569E+02</pdfrwt>
<pdfrwt beam="2">  1       -2 0.96695936E-03 0.89676569E+02</pdfrwt>
<totfact> 0.13656148E+05</totfact>
</mgrwt>
</event>
<event>
 6    1  0.1535419E-002  0.1080098E+03  0.7546771E-02  0.1297295E+00
          2   -1    0    0  501    0  0.00000000000E+00  0.00000000000E+00  0.97309668091E+03  0.97309668091E+03  0.00000000000E+00 0. -1.
         -2   -1    0    0    0  501 -0.00000000000E+00 -0.00000000000E+00 -0.18072099674E+02  0.18072099674E+02  0.00000000000E+00 0.  1.
         23    2    1    2    0    0  0.66239075012E+00 -0.57681584568E+02  0.91405624881E+03  0.92041563068E+03  0.91315405317E+02 0.  0.
         11    1    3    3    0    0  0.22554124971E+02 -0.72603415710E+02  0.78469159927E+03  0.78836593692E+03  0.00000000000E+00 0. -1.
        -11    1    3    3    0    0 -0.21891734221E+02  0.14921831142E+02  0.12936464954E+03  0.13204969376E+03  0.00000000000E+00 0.  1.
         22    1    1    2    0    0 -0.66239075012E+00  0.57681584568E+02  0.40968332424E+02  0.70753149904E+02  0.00000000000E+00 0.  1.
<mgrwt>
<rscale>  0 0.92334434E+02</rscale>
<asrwt>0</asrwt>
<pdfrwt beam="1">  1        2 0.14970714E+00 0.10800976E+03</pdfrwt>
<pdfrwt beam="2">  1       -2 0.27803238E-02 0.10800976E+03</pdfrwt>
<totfact> 0.12251639E+04</totfact>
</mgrwt>
</event>
<event>
 6    1  0.1535419E-002  0.8150804E+02  0.7546771E-02  0.1442007E+00
         -2   -1    0    0    0  501 -0.00000000000E+00  0.00000000000E+00  0.13976630404E+02  0.13976630404E+02  0.00000000000E+00 0.  1.
          2   -1    0    0  501    0  0.00000000000E+00 -0.00000000000E+00 -0.16793406152E+03  0.16793406152E+03  0.00000000000E+00 0. -1.
         23    2    1    2    0    0 -0.11652059857E+02 -0.33660253910E+01 -0.14657117483E+03  0.16771007899E+03  0.80600624548E+02 0.  0.
         13    1    3    3    0    0 -0.79862130077E+01 -0.41836844504E+02 -0.70002328560E+02  0.81941608235E+02  0.00000000000E+00 0. -1.
        -13    1    3    3    0    0 -0.36658468491E+01  0.38470819113E+02 -0.76568846271E+02  0.85768470754E+02  0.00000000000E+00 0.  1.
         22    1    1    2    0    0  0.11652059857E+02  0.33660253910E+01 -0.73862562874E+01  0.14200612937E+02  0.00000000000E+00 0.  1.
<mgrwt>
<rscale>  0 0.50623500E+02</rscale>
<asrwt>0</asrwt>
<pdfrwt beam="1">  1        2 0.25836009E-01 0.81508044E+02</pdfrwt>
<pdfrwt beam="2">  1       -2 0.21502509E-02 0.81508044E+02</pdfrwt>
<totfact> 0.11983839E+05</totfact>
</mgrwt>
</event>
<event>
 6    1  0.1535419E-002  0.9960467E+02  0.7546771E-02  0.1340137E+00
         -2   -1    0    0    0  501 -0.00000000000E+00  0.00000000000E+00  0.21925772436E+02  0.21925772436E+02  0.00000000000E+00 0. -1.
          2   -1    0    0  501    0  0.00000000000E+00 -0.00000000000E+00 -0.20418916403E+03  0.20418916403E+03  0.00000000000E+00 0.  1.
         23    2    1    2    0    0  0.17728783482E+02 -0.29189607193E+02 -0.13262402947E+03  0.16586205932E+03  0.93566802866E+02 0.  0.
         11    1    3    3    0    0 -0.14299505822E+02 -0.48875167852E+02 -0.36517120229E+02  0.62663848981E+02  0.00000000000E+00 0. -1.
        -11    1    3    3    0    0  0.32028289304E+02  0.19685560658E+02 -0.96106909241E+02  0.10319821034E+03  0.00000000000E+00 0.  1.
         22    1    1    2    0    0 -0.17728783482E+02  0.29189607193E+02 -0.49639362124E+02  0.60252877142E+02  0.00000000000E+00 0. -1.
<mgrwt>
<rscale>  0 0.76218965E+02</rscale>
<asrwt>0</asrwt>
<pdfrwt beam="1">  1        2 0.31413718E-01 0.99604666E+02</pdfrwt>
<pdfrwt beam="2">  1       -2 0.33731958E-02 0.99604666E+02</pdfrwt>
<totfact> 0.52109724E+04</totfact>
</mgrwt>
</event>
<event>
 6    1  0.1535419E-002  0.9287982E+02  0.7546771E-02  0.1409561E+00
          2   -1    0    0  501    0  0.00000000000E+00  0.00000000000E+00  0.12879356560E+04  0.12879356560E+04  0.00000000000E+00 0. -1.
         -2   -1    0    0    0  501 -0.00000000000E+00 -0.00000000000E+00 -0.37512871373E+01  0.37512871373E+01  0.00000000000E+00 0.  1.
         23    2    1    2    0    0 -0.11321812853E+02 -0.72544531131E+01  0.12641557142E+04  0.12675631470E+04  0.91901311915E+02 0.  0.
         13    1    3    3    0    0  0.26314879377E+02 -0.34164895547E+02  0.43953891695E+03  0.44164937731E+03  0.00000000000E+00 0. -1.
        -13    1    3    3    0    0 -0.37636692230E+02  0.26910442434E+02  0.82461679730E+03  0.82591376965E+03  0.00000000000E+00 0.  1.
         22    1    1    2    0    0  0.11321812853E+02  0.72544531131E+01  0.20028654610E+02  0.24123796172E+02  0.00000000000E+00 0.  1.
<mgrwt>
<rscale>  0 0.57292003E+02</rscale>
<asrwt>0</asrwt>
<pdfrwt beam="1">  1        2 0.19814360E+00 0.92879824E+02</pdfrwt>
<pdfrwt beam="2">  1       -2 0.57712212E-03 0.92879824E+02</pdfrwt>
<totfact> 0.75930351E+04</totfact>
</mgrwt>
</event>
<event>
 6    1  0.1535419E-002  0.9605890E+02  0.7546771E-02  0.1366466E+00
          2   -1    0    0  501    0  0.00000000000E+00  0.00000000000E+00  0.30572098741E+02  0.30572098741E+02  0.00000000000E+00 0. -1.
         -2   -1    0    0    0  501 -0.00000000000E+00 -0.00000000000E+00 -0.12261406188E+03  0.12261406188E+03  0.00000000000E+00 0.  1.
         23    2    1    2    0    0  0.16595867036E+02 -0.17817945732E+02 -0.61229246778E+02  0.11391370867E+03  0.92921528017E+02 0.  0.
         11    1    3    3    0    0  0.39988154376E+02 -0.44898706026E+02 -0.41432193072E+02  0.73017620586E+02  0.00000000000E+00 0. -1.
        -11    1    3    3    0    0 -0.23392287340E+02  0.27080760295E+02 -0.19797053705E+02  0.40896088083E+02  0.00000000000E+00 0.  1.
         22    1    1    2    0    0 -0.16595867036E+02  0.17817945732E+02 -0.30812716362E+02  0.39272451953E+02  0.00000000000E+00 0.  1.
<mgrwt>
<rscale>  0 0.68159449E+02</rscale>
<asrwt>0</asrwt>
<pdfrwt beam="1">  1        2 0.47033997E-02 0.96058900E+02</pdfrwt>
<pdfrwt beam="2">  1       -2 0.18863702E-01 0.96058900E+02</pdfrwt>
<totfact> 0.34675220E+04</totfact>
</mgrwt>
</event>
<event>
 6    1  0.1535419E-002  0.9262560E+02  0.7546771E-02  0.1395693E+00
         -2   -1    0    0    0  501 -0.00000000000E+00  0.00000000000E+00  0.79023739316E+01  0.79023739316E+01  0.00000000000E+00 0.  1.
          2   -1    0    0  501    0  0.00000000000E+00 -0.00000000000E+00 -0.41260796151E+03  0.41260796151E+03  0.00000000000E+00 0. -1.
         23    2    1    2    0    0 -0.57406605560E+01  0.15866215305E+02 -0.37574287203E+03  0.38699122352E+03  0.91075843300E+02 0.  0.
         11    1    3    3    0    0 -0.89507613013E+01 -0.29460384280E+01 -0.36493995863E+03  0.36506159573E+03  0.00000000000E+00 0. -1.
        -11    1    3    3    0    0  0.32101007453E+01  0.18812253733E+02 -0.10802913394E+02  0.21929627793E+02  0.00000000000E+00 0.  1.
         22    1    1    2    0    0  0.57406605560E+01 -0.15866215305E+02 -0.28962715553E+02  0.33519111920E+02  0.00000000000E+00 0.  1.
<mgrwt>
<rscale>  0 0.60512510E+02</rscale>
<asrwt>0</asrwt>
<pdfrwt beam="1">  1        2 0.63478127E-01 0.92625597E+02</pdfrwt>
<pdfrwt beam="2">  1       -2 0.12157502E-02 0.92625597E+02</pdfrwt>
<totfact> 0.10697069E+05</totfact>
</mgrwt>
</event>
<event>
 6    1  0.1535419E-002  0.9412785E+02  0.7546771E-02  0.1371302E+00
          2   -1    0    0  501    0  0.00000000000E+00  0.00000000000E+00  0.86314395360E+03  0.86314395360E+03  0.00000000000E+00 0. -1.
         -2   -1    0    0    0  501 -0.00000000000E+00 -0.00000000000E+00 -0.41664245503E+01  0.41664245503E+01  0.00000000000E+00 0.  1.
         23    2    1    2    0    0  0.43703036493E+01  0.23481394932E+02  0.73970647722E+03  0.74567132494E+03  0.91047113798E+02 0.  0.
         13    1    3    3    0    0  0.23998198772E+02  0.25741880065E+02  0.70386973654E+03  0.70474900777E+03  0.00000000000E+00 0. -1.
        -13    1    3    3    0    0 -0.19627895122E+02 -0.22604851327E+01  0.35836740684E+02  0.40922317173E+02  0.00000000000E+00 0.  1.
         22    1    1    2    0    0 -0.43703036493E+01 -0.23481394932E+02  0.11927105183E+03  0.12163905321E+03  0.00000000000E+00 0.  1.
<mgrwt>
<rscale>  0 0.66806425E+02</rscale>
<asrwt>0</asrwt>
<pdfrwt beam="1">  1        2 0.13279124E+00 0.94127851E+02</pdfrwt>
<pdfrwt beam="2">  1       -2 0.64098908E-03 0.94127851E+02</pdfrwt>
<totfact> 0.11490815E+05</totfact>
</mgrwt>
</event>
<event>
 6    1  0.1535419E-002  0.9495438E+02  0.7546771E-02  0.1420447E+00
          1   -1    0    0  501    0  0.00000000000E+00  0.00000000000E+00  0.28710713595E+02  0.28710713595E+02  0.00000000000E+00 0. -1.
         -1   -1    0    0    0  501 -0.00000000000E+00 -0.00000000000E+00 -0.10314859396E+03  0.10314859396E+03  0.00000000000E+00 0.  1.
         23    2    1    2    0    0  0.10614413091E+02 -0.59716772227E+00 -0.55077020983E+02  0.10977163564E+03  0.94357359949E+02 0.  0.
         11    1    3    3    0    0  0.24177935644E+02  0.31258173105E+02 -0.62892982601E+02  0.74277676447E+02  0.00000000000E+00 0. -1.
        -11    1    3    3    0    0 -0.13563522553E+02 -0.31855340827E+02  0.78159616184E+01  0.35493959195E+02  0.00000000000E+00 0.  1.
         22    1    1    2    0    0 -0.10614413091E+02  0.59716772227E+00 -0.19360859378E+02  0.22087671910E+02  0.00000000000E+00 0.  1.
<mgrwt>
<rscale>  0 0.54926484E+02</rscale>
<asrwt>0</asrwt>
<pdfrwt beam="1">  1        1 0.44170329E-02 0.94954377E+02</pdfrwt>
<pdfrwt beam="2">  1       -1 0.15869014E-01 0.94954377E+02</pdfrwt>
<totfact> 0.50221970E+04</totfact>
</mgrwt>
</event>
<event>
 6    1  0.1535419E-002  0.9371544E+02  0.7546771E-02  0.1386824E+00
          2   -1    0    0  501    0  0.00000000000E+00  0.00000000000E+00  0.58082685398E+02  0.58082685398E+02  0.00000000000E+00 0. -1.
         -2   -1    0    0    0  501 -0.00000000000E+00 -0.00000000000E+00 -0.55058806383E+02  0.55058806383E+02  0.00000000000E+00 0.  1.
         23    2    1    2    0    0  0.42314115043E+01 -0.18298864864E+02  0.68812974520E+01  0.93967734308E+02  0.91814103153E+02 0.  0.
         11    1    3    3    0    0  0.11446398064E+02  0.18468910129E+02  0.38981761770E+02  0.44628448558E+02  0.00000000000E+00 0. -1.
        -11    1    3    3    0    0 -0.72149865594E+01 -0.36767774993E+02 -0.32100464318E+02  0.49339285751E+02  0.00000000000E+00 0.  1.
         22    1    1    2    0    0 -0.42314115043E+01  0.18298864864E+02 -0.38574184376E+01  0.19173757473E+02  0.00000000000E+00 0.  1.
<mgrwt>
<rscale>  0 0.62703565E+02</rscale>
<asrwt>0</asrwt>
<pdfrwt beam="1">  1        2 0.89357979E-02 0.93715435E+02</pdfrwt>
<pdfrwt beam="2">  1       -2 0.84705855E-02 0.93715435E+02</pdfrwt>
<totfact> 0.54996288E+04</totfact>
</mgrwt>
</event>
<event>
 6    1  0.1535419E-002  0.8828365E+02  0.7546771E-02  0.1399033E+00
          2   -1    0    0  501    0  0.00000000000E+00  0.00000000000E+00  0.41271649683E+03  0.41271649683E+03  0.00000000000E+00 0. -1.
         -2   -1    0    0    0  501 -0.00000000000E+00 -0.00000000000E+00 -0.75985798545E+01  0.75985798545E+01  0.00000000000E+00 0.  1.
         23    2    1    2    0    0  0.15024619024E+02  0.10758586486E+02  0.37257157833E+03  0.38288847492E+03  0.86327961240E+02 0.  0.
         11    1    3    3    0    0 -0.30075528797E+02  0.14127089660E+02  0.76812285225E+02  0.83691333220E+02  0.00000000000E+00 0. -1.
        -11    1    3    3    0    0  0.45100147820E+02 -0.33685031745E+01  0.29575929310E+03  0.29919714170E+03  0.00000000000E+00 0.  1.
         22    1    1    2    0    0 -0.15024619024E+02 -0.10758586486E+02  0.32546338648E+02  0.37426601761E+02  0.00000000000E+00 0. -1.
<mgrwt>
<rscale>  0 0.59714787E+02</rscale>
<asrwt>0</asrwt>
<pdfrwt beam="1">  1        2 0.63494828E-01 0.88283652E+02</pdfrwt>
<pdfrwt beam="2">  1       -2 0.11690126E-02 0.88283652E+02</pdfrwt>
<totfact> 0.11225096E+05</totfact>
</mgrwt>
</event>
<event>
 6    1  0.1535419E-002  0.9145149E+02  0.7546771E-02  0.1411649E+00
         -2   -1    0    0    0  501 -0.00000000000E+00  0.00000000000E+00  0.19807435949E+03  0.19807435949E+03  0.00000000000E+00 0.  1.
          2   -1    0    0  501    0  0.00000000000E+00 -0.00000000000E+00 -0.13972125463E+02  0.13972125463E+02  0.00000000000E+00 0. -1.
         23    2    1    2    0    0 -0.13622888588E+02  0.57922025666E+00  0.15653369147E+03  0.18129029650E+03  0.90429289777E+02 0.  0.
         13    1    3    3    0    0 -0.26221376704E+02 -0.19737034401E+02  0.12236503194E+02  0.35026320584E+02  0.00000000000E+00 0. -1.
        -13    1    3    3    0    0  0.12598488116E+02  0.20316254658E+02  0.14429718827E+03  0.14626397591E+03  0.00000000000E+00 0.  1.
         22    1    1    2    0    0  0.13622888588E+02 -0.57922025666E+00  0.27568542562E+02  0.30756188460E+02  0.00000000000E+00 0.  1.
<mgrwt>
<rscale>  0 0.56827486E+02</rscale>
<asrwt>0</asrwt>
<pdfrwt beam="1">  1        2 0.21495579E-02 0.91451490E+02</pdfrwt>
<pdfrwt beam="2">  1       -2 0.30472976E-01 0.91451490E+02</pdfrwt>
<totfact> 0.42516121E+04</totfact>
</mgrwt>
</event>
<event>
 6    1  0.1535419E-002  0.9247424E+02  0.7546771E-02  0.1412671E+00
          2   -1    0    0  501    0  0.00000000000E+00  0.00000000000E+00  0.54918045084E+03  0.54918045084E+03  0.00000000000E+00 0. -1.
         -2   -1    0    0    0  501 -0.00000000000E+00 -0.00000000000E+00 -0.50656050603E+01  0.50656050603E+01  0.00000000000E+00 0.  1.
         23    2    1    2    0    0 -0.84918321910E+01 -0.98163796261E+01  0.48164164873E+03  0.49043874540E+03  0.91558793575E+02 0.  0.
         11    1    3    3    0    0 -0.48149349025E+02 -0.17394204921E+02  0.30269759595E+03  0.30699634000E+03  0.00000000000E+00 0. -1.
        -11    1    3    3    0    0  0.39657516834E+02  0.75778252952E+01  0.17894405277E+03  0.18344240540E+03  0.00000000000E+00 0.  1.
         22    1    1    2    0    0  0.84918321910E+01  0.98163796261E+01  0.62473197051E+02  0.63807310496E+02  0.00000000000E+00 0.  1.
<mgrwt>
<rscale>  0 0.56601992E+02</rscale>
<asrwt>0</asrwt>
<pdfrwt beam="1">  1        2 0.84489253E-01 0.92474241E+02</pdfrwt>
<pdfrwt beam="2">  1       -2 0.77932429E-03 0.92474241E+02</pdfrwt>
<totfact> 0.14758983E+05</totfact>
</mgrwt>
</event>
<event>
 6    1  0.1535419E-002  0.9644460E+02  0.7546771E-02  0.1411234E+00
         -3   -1    0    0    0  501 -0.00000000000E+00  0.00000000000E+00  0.27509519236E+03  0.27509519236E+03  0.00000000000E+00 0.  1.
          3   -1    0    0  501    0  0.00000000000E+00 -0.00000000000E+00 -0.10721093591E+02  0.10721093591E+02  0.00000000000E+00 0. -1.
         23    2    1    2    0    0 -0.11678108877E+02  0.72363144873E+00  0.22656726987E+03  0.24624030611E+03  0.95732223960E+02 0.  0.
         11    1    3    3    0    0  0.25126053585E+02 -0.35103823666E+02  0.79542799880E+02  0.90502232113E+02  0.00000000000E+00 0. -1.
        -11    1    3    3    0    0 -0.36804162462E+02  0.35827455114E+02  0.14702446999E+03  0.15573807399E+03  0.00000000000E+00 0.  1.
         22    1    1    2    0    0  0.11678108877E+02 -0.72363144873E+00  0.37806828897E+02  0.39575979845E+02  0.00000000000E+00 0.  1.
<mgrwt>
<rscale>  0 0.56919307E+02</rscale>
<asrwt>0</asrwt>
<pdfrwt beam="1">  1        3 0.16493992E-02 0.96444598E+02</pdfrwt>
<pdfrwt beam="2">  1       -3 0.42322332E-01 0.96444598E+02</pdfrwt>
<totfact> 0.14855901E+04</totfact>
</mgrwt>
</event>
<event>
 6    1  0.1535419E-002  0.9055975E+02  0.7546771E-02  0.1385741E+00
         -2   -1    0    0    0  501 -0.00000000000E+00  0.00000000000E+00  0.60919185183E+02  0.60919185183E+02  0.00000000000E+00 0.  1.
          2   -1    0    0  501    0  0.00000000000E+00 -0.00000000000E+00 -0.97732057211E+02  0.97732057211E+02  0.00000000000E+00 0. -1.
         23    2    1    2    0    0 -0.21164676531E+02 -0.85314005865E+00 -0.73269258333E+02  0.11648799438E+03  0.88047698650E+02 0.  0.
         13    1    3    3    0    0 -0.30674773791E+02  0.35412619695E+02 -0.61255381567E+02  0.77118202467E+02  0.00000000000E+00 0. -1.
        -13    1    3    3    0    0  0.95100972599E+01 -0.36265759754E+02 -0.12013876767E+02  0.39369791914E+02  0.00000000000E+00 0.  1.
         22    1    1    2    0    0  0.21164676531E+02  0.85314005865E+00  0.36456386305E+02  0.42163248013E+02  0.00000000000E+00 0. -1.
<mgrwt>
<rscale>  0 0.62978522E+02</rscale>
<asrwt>0</asrwt>
<pdfrwt beam="1">  1        2 0.15035701E-01 0.90559752E+02</pdfrwt>
<pdfrwt beam="2">  1       -2 0.93721824E-02 0.90559752E+02</pdfrwt>
<totfact> 0.25191765E+04</totfact>
</mgrwt>
</event>
<event>
 6    1  0.1535419E-002  0.9672569E+02  0.7546771E-02  0.1404316E+00
          2   -1    0    0  501    0  0.00000000000E+00  0.00000000000E+00  0.34654525990E+03  0.34654525990E+03  0.00000000000E+00 0. -1.
         -2   -1    0    0    0  501 -0.00000000000E+00 -0.00000000000E+00 -0.23310140309E+02  0.23310140309E+02  0.00000000000E+00 0.  1.
         23    2    1    2    0    0 -0.11190359707E+02 -0.64691342438E+01  0.33721653515E+03  0.35081455388E+03  0.95858154510E+02 0.  0.
         11    1    3    3    0    0  0.36606957097E+02 -0.15304355590E+02  0.83041753266E+02  0.92033827441E+02  0.00000000000E+00 0.  1.
        -11    1    3    3    0    0 -0.47797316804E+02  0.88352213462E+01  0.25417478188E+03  0.25878072644E+03  0.00000000000E+00 0. -1.
         22    1    1    2    0    0  0.11190359707E+02  0.64691342438E+01 -0.13981415554E+02  0.19040846335E+02  0.00000000000E+00 0.  1.
<mgrwt>
<rscale>  0 0.58481694E+02</rscale>
<asrwt>0</asrwt>
<pdfrwt beam="1">  1        2 0.53314651E-01 0.96725693E+02</pdfrwt>
<pdfrwt beam="2">  1       -2 0.35861757E-02 0.96725693E+02</pdfrwt>
<totfact> 0.27191226E+04</totfact>
</mgrwt>
</event>
<event>
 6    1  0.1535419E-002  0.9008622E+02  0.7546771E-02  0.1421420E+00
          4   -1    0    0  501    0  0.00000000000E+00  0.00000000000E+00  0.32743929632E+02  0.32743929632E+02  0.00000000000E+00 0. -1.
         -4   -1    0    0    0  501 -0.00000000000E+00 -0.00000000000E+00 -0.11558734735E+03  0.11558734735E+03  0.00000000000E+00 0.  1.
         23    2    1    2    0    0 -0.41852286243E+01 -0.11528582613E+02 -0.31331183890E+02  0.95379085435E+02  0.89247422925E+02 0.  0.
         13    1    3    3    0    0 -0.21441634034E+02  0.21255807757E+02  0.16869474724E+02  0.34585144368E+02  0.00000000000E+00 0. -1.
        -13    1    3    3    0    0  0.17256405409E+02 -0.32784390371E+02 -0.48200658614E+02  0.60793941067E+02  0.00000000000E+00 0.  1.
         22    1    1    2    0    0  0.41852286243E+01  0.11528582613E+02 -0.51512233829E+02  0.52952191549E+02  0.00000000000E+00 0.  1.
<mgrwt>
<rscale>  0 0.54721569E+02</rscale>
<asrwt>0</asrwt>
<pdfrwt beam="1">  1        4 0.50375276E-02 0.90086219E+02</pdfrwt>
<pdfrwt beam="2">  1       -4 0.17782669E-01 0.90086219E+02</pdfrwt>
<totfact> 0.95365314E+03</totfact>
</mgrwt>
</event>
<event>
 6    1  0.1535419E-002  0.1047887E+03  0.7546771E-02  0.1307223E+00
          2   -1    0    0  501    0  0.00000000000E+00  0.00000000000E+00  0.32079141838E+03  0.32079141838E+03  0.00000000000E+00 0. -1.
         -2   -1    0    0    0  501 -0.00000000000E+00 -0.00000000000E+00 -0.22064451808E+02  0.22064451808E+02  0.00000000000E+00 0.  1.
         23    2    1    2    0    0 -0.23363478560E+02 -0.47169369683E+02  0.25021819132E+03  0.27127442816E+03  0.90608335916E+02 0.  0.
         13    1    3    3    0    0 -0.17125685924E+02 -0.74657686783E+02  0.18175432928E+03  0.19723512752E+03  0.00000000000E+00 0. -1.
        -13    1    3    3    0    0 -0.62377926362E+01  0.27488317100E+02  0.68463862040E+02  0.74039300641E+02  0.00000000000E+00 0.  1.
         22    1    1    2    0    0  0.23363478560E+02  0.47169369683E+02  0.48508775249E+02  0.71581442029E+02  0.00000000000E+00 0.  1.
<mgrwt>
<rscale>  0 0.88218877E+02</rscale>
<asrwt>0</asrwt>
<pdfrwt beam="1">  1        2 0.49352523E-01 0.10478870E+03</pdfrwt>
<pdfrwt beam="2">  1       -2 0.33945313E-02 0.10478870E+03</pdfrwt>
<totfact> 0.32246200E+04</totfact>
</mgrwt>
</event>
<event>
 6    1  0.1535419E-002  0.9390338E+02  0.7546771E-02  0.1417402E+00
         -2   -1    0    0    0  501 -0.00000000000E+00  0.00000000000E+00  0.24804193324E+02  0.24804193324E+02  0.00000000000E+00 0.  1.
          2   -1    0    0  501    0  0.00000000000E+00 -0.00000000000E+00 -0.13821065540E+03  0.13821065540E+03  0.00000000000E+00 0. -1.
         23    2    1    2    0    0  0.16732930319E+01  0.11397874709E+02 -0.11783324063E+03  0.15067354305E+03  0.93194058398E+02 0.  0.
         13    1    3    3    0    0  0.56534449570E+01  0.35473141046E+02 -0.12085946789E+03  0.12608455954E+03  0.00000000000E+00 0. -1.
        -13    1    3    3    0    0 -0.39801519251E+01 -0.24075266337E+02  0.30262272633E+01  0.24588983509E+02  0.00000000000E+00 0.  1.
         22    1    1    2    0    0 -0.16732930319E+01 -0.11397874709E+02  0.44267785501E+01  0.12341305675E+02  0.00000000000E+00 0.  1.
<mgrwt>
<rscale>  0 0.55574358E+02</rscale>
<asrwt>0</asrwt>
<pdfrwt beam="1">  1        2 0.21263178E-01 0.93903376E+02</pdfrwt>
<pdfrwt beam="2">  1       -2 0.38160297E-02 0.93903376E+02</pdfrwt>
<totfact> 0.65964441E+04</totfact>
</mgrwt>
</event>
<event>
 6    1  0.1535419E-002  0.9103879E+02  0.7546771E-02  0.1429039E+00
          2   -1    0    0  501    0  0.00000000000E+00  0.00000000000E+00  0.11067309029E+04  0.11067309029E+04  0.00000000000E+00 0. -1.
         -2   -1    0    0    0  501 -0.00000000000E+00 -0.00000000000E+00 -0.99976288094E+01  0.99976288094E+01  0.00000000000E+00 0.  1.
         23    2    1    2    0    0 -0.60386627359E+01  0.86861120168E+01  0.11014070585E+04  0.11051631415E+04  0.90422047460E+02 0.  0.
         11    1    3    3    0    0 -0.42378533190E+02  0.44345883450E+01  0.31047459839E+03  0.31338487821E+03  0.00000000000E+00 0. -1.
        -11    1    3    3    0    0  0.36339870454E+02  0.42515236718E+01  0.79093246015E+03  0.79177826325E+03  0.00000000000E+00 0.  1.
         22    1    1    2    0    0  0.60386627359E+01 -0.86861120168E+01 -0.46737844730E+01  0.11565390218E+02  0.00000000000E+00 0.  1.
<mgrwt>
<rscale>  0 0.53153320E+02</rscale>
<asrwt>0</asrwt>
<pdfrwt beam="1">  1        2 0.17026620E+00 0.91038787E+02</pdfrwt>
<pdfrwt beam="2">  1       -2 0.15380976E-02 0.91038787E+02</pdfrwt>
<totfact> 0.23757409E+04</totfact>
</mgrwt>
</event>
<event>
 6    1  0.1535419E-002  0.9782923E+02  0.7546771E-02  0.1350423E+00
         -1   -1    0    0    0  501 -0.00000000000E+00  0.00000000000E+00  0.59124423331E+02  0.59124423331E+02  0.00000000000E+00 0.  1.
          1   -1    0    0  501    0  0.00000000000E+00 -0.00000000000E+00 -0.11361101134E+03  0.11361101134E+03  0.00000000000E+00 0. -1.
         23    2    1    2    0    0 -0.22661975557E+02 -0.19968698831E+02 -0.85148510210E+02  0.12969513330E+03  0.93049689641E+02 0.  0.
         13    1    3    3    0    0 -0.20134610498E+02 -0.26444178553E+02 -0.10422254347E+03  0.10939394721E+03  0.00000000000E+00 0. -1.
        -13    1    3    3    0    0 -0.25273650587E+01  0.64754797221E+01  0.19074033261E+02  0.20301186089E+02  0.00000000000E+00 0.  1.
         22    1    1    2    0    0  0.22661975557E+02  0.19968698831E+02  0.30661922200E+02  0.43040301371E+02  0.00000000000E+00 0. -1.
<mgrwt>
<rscale>  0 0.72923841E+02</rscale>
<asrwt>0</asrwt>
<pdfrwt beam="1">  1        1 0.17478617E-01 0.97829233E+02</pdfrwt>
<pdfrwt beam="2">  1       -1 0.90960652E-02 0.97829233E+02</pdfrwt>
<totfact> 0.19260731E+04</totfact>
</mgrwt>
</event>
<event>
 6    1  0.1535419E-002  0.9269214E+02  0.7546771E-02  0.1406984E+00
         -2   -1    0    0    0  501 -0.00000000000E+00  0.00000000000E+00  0.25955841727E+01  0.25955841727E+01  0.00000000000E+00 0.  1.
          2   -1    0    0  501    0  0.00000000000E+00 -0.00000000000E+00 -0.12232171647E+04  0.12232171647E+04  0.00000000000E+00 0. -1.
         23    2    1    2    0    0 -0.14080238637E+02  0.36552749464E+00 -0.11541024785E+04  0.11578187957E+04  0.91615752580E+02 0.  0.
         13    1    3    3    0    0  0.25331338312E+02  0.92902009671E+01 -0.90955821453E+03  0.90995831232E+03  0.00000000000E+00 0. -1.
        -13    1    3    3    0    0 -0.39411576949E+02 -0.89246734725E+01 -0.24454426395E+03  0.24786048339E+03  0.00000000000E+00 0.  1.
         22    1    1    2    0    0  0.14080238637E+02 -0.36552749464E+00 -0.66519102070E+02  0.67993953191E+02  0.00000000000E+00 0. -1.
<mgrwt>
<rscale>  0 0.57872369E+02</rscale>
<asrwt>0</asrwt>
<pdfrwt beam="1">  1        2 0.18818712E+00 0.92692140E+02</pdfrwt>
<pdfrwt beam="2">  1       -2 0.39932094E-03 0.92692140E+02</pdfrwt>
<totfact> 0.13774850E+05</totfact>
</mgrwt>
</event>
<event>
 6    1  0.1535419E-002  0.9114525E+02  0.7546771E-02  0.1405803E+00
          2   -1    0    0  501    0  0.00000000000E+00  0.00000000000E+00  0.17174512591E+04  0.17174512591E+04  0.00000000000E+00 0. -1.
         -2   -1    0    0    0  501 -0.00000000000E+00 -0.00000000000E+00 -0.29283475050E+01  0.29283475050E+01  0.00000000000E+00 0.  1.
         23    2    1    2    0    0  0.41133807997E+01 -0.14519852894E+02  0.16826260593E+04  0.16850928497E+04  0.89887209848E+02 0.  0.
         13    1    3    3    0    0 -0.27009827853E+02 -0.27126117289E+02  0.35791242978E+03  0.35995369762E+03  0.00000000000E+00 0. -1.
        -13    1    3    3    0    0  0.31123208653E+02  0.12606264395E+02  0.13247136295E+04  0.13251391520E+04  0.00000000000E+00 0.  1.
         22    1    1    2    0    0 -0.41133807997E+01  0.14519852894E+02  0.31896852288E+02  0.35286756943E+02  0.00000000000E+00 0.  1.
<mgrwt>
<rscale>  0 0.58140917E+02</rscale>
<asrwt>0</asrwt>
<pdfrwt beam="1">  1        2 0.26422246E+00 0.91145250E+02</pdfrwt>
<pdfrwt beam="2">  1       -2 0.45051637E-03 0.91145250E+02</pdfrwt>
<totfact> 0.64566546E+04</totfact>
</mgrwt>
</event>
<event>
 6    1  0.1535419E-002  0.9080379E+02  0.7546771E-02  0.1404411E+00
          2   -1    0    0  501    0  0.00000000000E+00  0.00000000000E+00  0.30339529725E+03  0.30339529725E+03  0.00000000000E+00 0. -1.
         -2   -1    0    0    0  501 -0.00000000000E+00 -0.00000000000E+00 -0.13307023462E+02  0.13307023462E+02  0.00000000000E+00 0.  1.
         23    2    1    2    0    0 -0.14609840838E+02  0.54686506056E+01  0.28670360800E+03  0.30073956558E+03  0.89453752734E+02 0.  0.
         11    1    3    3    0    0  0.24418722836E+02  0.17974907039E+02  0.22259399605E+03  0.22464963473E+03  0.00000000000E+00 0. -1.
        -11    1    3    3    0    0 -0.39028563674E+02 -0.12506256434E+02  0.64109611950E+02  0.76089930850E+02  0.00000000000E+00 0.  1.
         22    1    1    2    0    0  0.14609840838E+02 -0.54686506056E+01  0.33846657866E+01  0.15962755127E+02  0.00000000000E+00 0.  1.
<mgrwt>
<rscale>  0 0.58459848E+02</rscale>
<asrwt>0</asrwt>
<pdfrwt beam="1">  1        2 0.46676194E-01 0.90803786E+02</pdfrwt>
<pdfrwt beam="2">  1       -2 0.20472346E-02 0.90803786E+02</pdfrwt>
<totfact> 0.69934125E+04</totfact>
</mgrwt>
</event>
<event>
 6    1  0.1535419E-002  0.9505977E+02  0.7546771E-02  0.1383340E+00
         -2   -1    0    0    0  501 -0.00000000000E+00  0.00000000000E+00  0.27430323792E+02  0.27430323792E+02  0.00000000000E+00 0.  1.
          2   -1    0    0  501    0  0.00000000000E+00 -0.00000000000E+00 -0.25359018192E+03  0.25359018192E+03  0.00000000000E+00 0. -1.
         23    2    1    2    0    0  0.15283602089E+02  0.11355294855E+02 -0.23956425693E+03  0.25773512142E+03  0.93133390369E+02 0.  0.
         11    1    3    3    0    0  0.25801795346E+02 -0.24316094999E+02 -0.35006873983E+02  0.49824555644E+02  0.00000000000E+00 0.  1.
        -11    1    3    3    0    0 -0.10518193257E+02  0.35671389854E+02 -0.20455738295E+03  0.20791056578E+03  0.00000000000E+00 0. -1.
         22    1    1    2    0    0 -0.15283602089E+02 -0.11355294855E+02  0.13404398806E+02  0.23285384288E+02  0.00000000000E+00 0.  1.
<mgrwt>
<rscale>  0 0.63593941E+02</rscale>
<asrwt>0</asrwt>
<pdfrwt beam="1">  1        2 0.39013875E-01 0.95059769E+02</pdfrwt>
<pdfrwt beam="2">  1       -2 0.42200498E-02 0.95059769E+02</pdfrwt>
<totfact> 0.29631278E+04</totfact>
</mgrwt>
</event>
<event>
 6    1  0.1535419E-002  0.9400219E+02  0.7546771E-02  0.1377368E+00
         -1   -1    0    0    0  501 -0.00000000000E+00  0.00000000000E+00  0.42886788050E+01  0.42886788050E+01  0.00000000000E+00 0.  1.
          1   -1    0    0  501    0  0.00000000000E+00 -0.00000000000E+00 -0.78538183157E+03  0.78538183157E+03  0.00000000000E+00 0. -1.
         23    2    1    2    0    0  0.81122607511E+01  0.20130277962E+02 -0.65760328920E+03  0.66428796267E+03  0.91462421344E+02 0.  0.
         13    1    3    3    0    0  0.17845756763E+02  0.52556238086E+02 -0.30045262474E+03  0.30553626447E+03  0.00000000000E+00 0.  1.
        -13    1    3    3    0    0 -0.97334960124E+01 -0.32425960123E+02 -0.35715066446E+03  0.35875169820E+03  0.00000000000E+00 0. -1.
         22    1    1    2    0    0 -0.81122607511E+01 -0.20130277962E+02 -0.12348986357E+03  0.12538254771E+03  0.00000000000E+00 0. -1.
<mgrwt>
<rscale>  0 0.65160639E+02</rscale>
<asrwt>0</asrwt>
<pdfrwt beam="1">  1        1 0.12082792E+00 0.94002188E+02</pdfrwt>
<pdfrwt beam="2">  1       -1 0.65979703E-03 0.94002188E+02</pdfrwt>
<totfact> 0.72279509E+04</totfact>
</mgrwt>
</event>
<event>
 6    1  0.1535419E-002  0.9289842E+02  0.7546771E-02  0.1410954E+00
          2   -1    0    0  501    0  0.00000000000E+00  0.00000000000E+00  0.13954116065E+03  0.13954116065E+03  0.00000000000E+00 0.  1.
         -2   -1    0    0    0  501 -0.00000000000E+00 -0.00000000000E+00 -0.20583144488E+02  0.20583144488E+02  0.00000000000E+00 0. -1.
         23    2    1    2    0    0  0.71079375337E+01  0.11062820796E+02  0.11103694023E+03  0.14477333696E+03  0.91963080748E+02 0.  0.
         13    1    3    3    0    0  0.38912713507E+02  0.35536621749E+02  0.60248697030E+02  0.80043464765E+02  0.00000000000E+00 0.  1.
        -13    1    3    3    0    0 -0.31804775973E+02 -0.24473800953E+02  0.50788243197E+02  0.64729872198E+02  0.00000000000E+00 0. -1.
         22    1    1    2    0    0 -0.71079375337E+01 -0.11062820796E+02  0.79210759378E+01  0.15350968177E+02  0.00000000000E+00 0. -1.
<mgrwt>
<rscale>  0 0.56981436E+02</rscale>
<asrwt>0</asrwt>
<pdfrwt beam="1">  1        2 0.21467870E-01 0.92898423E+02</pdfrwt>
<pdfrwt beam="2">  1       -2 0.31666377E-02 0.92898423E+02</pdfrwt>
<totfact> 0.85615337E+04</totfact>
</mgrwt>
</event>
<event>
 6    1  0.1535419E-002  0.8946031E+02  0.7546771E-02  0.1408054E+00
          2   -1    0    0  501    0  0.00000000000E+00  0.00000000000E+00  0.23992373575E+03  0.23992373575E+03  0.00000000000E+00 0. -1.
         -2   -1    0    0    0  501 -0.00000000000E+00 -0.00000000000E+00 -0.15214422976E+02  0.15214422976E+02  0.00000000000E+00 0.  1.
         23    2    1    2    0    0 -0.15385138321E+02  0.81910603802E+00  0.22219396569E+03  0.23952725270E+03  0.88123623283E+02 0.  0.
         13    1    3    3    0    0 -0.19001628611E+02  0.21888062611E+02  0.21504027939E+03  0.21698495555E+03  0.00000000000E+00 0. -1.
        -13    1    3    3    0    0  0.36164902905E+01 -0.21068956573E+02  0.71536863004E+01  0.22542297149E+02  0.00000000000E+00 0.  1.
         22    1    1    2    0    0  0.15385138321E+02 -0.81910603802E+00  0.25153470763E+01  0.15610906020E+02  0.00000000000E+00 0.  1.
<mgrwt>
<rscale>  0 0.57630421E+02</rscale>
<asrwt>0</asrwt>
<pdfrwt beam="1">  1        2 0.36911341E-01 0.89460306E+02</pdfrwt>
<pdfrwt beam="2">  1       -2 0.23406806E-02 0.89460306E+02</pdfrwt>
<totfact> 0.73583484E+04</totfact>
</mgrwt>
</event>
<event>
 6    1  0.1535419E-002  0.9499220E+02  0.7546771E-02  0.1394480E+00
          2   -1    0    0  501    0  0.00000000000E+00  0.00000000000E+00  0.90847929415E+02  0.90847929415E+02  0.00000000000E+00 0. -1.
         -2   -1    0    0    0  501 -0.00000000000E+00 -0.00000000000E+00 -0.72304190640E+02  0.72304190640E+02  0.00000000000E+00 0.  1.
         23    2    1    2    0    0  0.11647958718E+02  0.10894302163E+02  0.64291780506E+02  0.11470375492E+03  0.93643780309E+02 0.  0.
         13    1    3    3    0    0  0.42972028992E+02  0.11054185230E+02  0.69985598621E+02  0.82866002082E+02  0.00000000000E+00 0. -1.
        -13    1    3    3    0    0 -0.31324070273E+02 -0.15988306687E+00 -0.56938181157E+01  0.31837752839E+02  0.00000000000E+00 0.  1.
         22    1    1    2    0    0 -0.11647958718E+02 -0.10894302163E+02 -0.45748041731E+02  0.48448365133E+02  0.00000000000E+00 0.  1.
<mgrwt>
<rscale>  0 0.60806111E+02</rscale>
<asrwt>0</asrwt>
<pdfrwt beam="1">  1        2 0.13976605E-01 0.94992202E+02</pdfrwt>
<pdfrwt beam="2">  1       -2 0.11123722E-01 0.94992202E+02</pdfrwt>
<totfact> 0.21110229E+04</totfact>
</mgrwt>
</event>
<event>
 6    1  0.1535419E-002  0.9187300E+02  0.7546771E-02  0.1409174E+00
          2   -1    0    0  501    0  0.00000000000E+00  0.00000000000E+00  0.74914733436E+02  0.74914733436E+02  0.00000000000E+00 0. -1.
         -2   -1    0    0    0  501 -0.00000000000E+00 -0.00000000000E+00 -0.39119861510E+02  0.39119861510E+02  0.00000000000E+00 0.  1.
         23    2    1    2    0    0  0.11965934999E+02  0.72242449420E+01  0.38812535601E+02  0.99734958257E+02  0.90803500281E+02 0.  0.
         13    1    3    3    0    0  0.33422530220E+01 -0.38170421703E+02 -0.15989950005E+01  0.38349817904E+02  0.00000000000E+00 0.  1.
        -13    1    3    3    0    0  0.86236819774E+01  0.45394666645E+02  0.40411530601E+02  0.61385140353E+02  0.00000000000E+00 0. -1.
         22    1    1    2    0    0 -0.11965934999E+02 -0.72242449420E+01 -0.30176636743E+01  0.14299636689E+02  0.00000000000E+00 0.  1.
<mgrwt>
<rscale>  0 0.57378487E+02</rscale>
<asrwt>0</asrwt>
<pdfrwt beam="1">  1        2 0.11525344E-01 0.91873005E+02</pdfrwt>
<pdfrwt beam="2">  1       -2 0.60184402E-02 0.91873005E+02</pdfrwt>
<totfact> 0.67699783E+04</totfact>
</mgrwt>
</event>
<event>
 6    1  0.1535419E-002  0.9332582E+02  0.7546771E-02  0.1382991E+00
         -2   -1    0    0    0  501 -0.00000000000E+00  0.00000000000E+00  0.40731465268E+01  0.40731465268E+01  0.00000000000E+00 0.  1.
          2   -1    0    0  501    0  0.00000000000E+00 -0.00000000000E+00 -0.11940792462E+04  0.11940792462E+04  0.00000000000E+00 0. -1.
         23    2    1    2    0    0  0.62956768267E+01 -0.19231404159E+02 -0.11451094509E+04  0.11489061591E+04  0.91105573236E+02 0.  0.
         11    1    3    3    0    0 -0.42468174800E+00 -0.10661897919E+02 -0.11311540820E+04  0.11312044084E+04  0.00000000000E+00 0. -1.
        -11    1    3    3    0    0  0.67203585747E+01 -0.85695062398E+01 -0.13955368911E+02  0.17701750705E+02  0.00000000000E+00 0.  1.
         22    1    1    2    0    0 -0.62956768267E+01  0.19231404159E+02 -0.44896648704E+02  0.49246233536E+02  0.00000000000E+00 0. -1.
<mgrwt>
<rscale>  0 0.63684062E+02</rscale>
<asrwt>0</asrwt>
<pdfrwt beam="1">  1        2 0.18370439E+00 0.93325816E+02</pdfrwt>
<pdfrwt beam="2">  1       -2 0.62663829E-03 0.93325816E+02</pdfrwt>
<totfact> 0.76007414E+04</totfact>
</mgrwt>
</event>
<event>
 6    1  0.1535419E-002  0.9198023E+02  0.7546771E-02  0.1420242E+00
         -4   -1    0    0    0  501 -0.00000000000E+00  0.00000000000E+00  0.21733914303E+03  0.21733914303E+03  0.00000000000E+00 0. -1.
          4   -1    0    0  501    0  0.00000000000E+00 -0.00000000000E+00 -0.12637407929E+02  0.12637407929E+02  0.00000000000E+00 0.  1.
         23    2    1    2    0    0  0.58926064529E+01 -0.10146106433E+02  0.16918403628E+03  0.19257102709E+03  0.91228811540E+02 0.  0.
         11    1    3    3    0    0  0.50002507311E+00  0.29306330773E+02  0.14042720287E+03  0.14345351286E+03  0.00000000000E+00 0. -1.
        -11    1    3    3    0    0  0.53925813798E+01 -0.39452437206E+02  0.28756833413E+02  0.49117514222E+02  0.00000000000E+00 0.  1.
         22    1    1    2    0    0 -0.58926064529E+01  0.10146106433E+02  0.35517698825E+02  0.37405523875E+02  0.00000000000E+00 0.  1.
<mgrwt>
<rscale>  0 0.54969820E+02</rscale>
<asrwt>0</asrwt>
<pdfrwt beam="1">  1        4 0.19442168E-02 0.91980228E+02</pdfrwt>
<pdfrwt beam="2">  1       -4 0.33436788E-01 0.91980228E+02</pdfrwt>
<totfact> 0.13337643E+04</totfact>
</mgrwt>
</event>
<event>
 6    1  0.1535419E-002  0.9073894E+02  0.7546771E-02  0.1364252E+00
         -2   -1    0    0    0  501 -0.00000000000E+00  0.00000000000E+00  0.16576537236E+02  0.16576537236E+02  0.00000000000E+00 0.  1.
          2   -1    0    0  501    0  0.00000000000E+00 -0.00000000000E+00 -0.27340420989E+03  0.27340420989E+03  0.00000000000E+00 0. -1.
         23    2    1    2    0    0 -0.29961707591E+02  0.87730566138E+00 -0.23768165858E+03  0.25441329794E+03  0.85645091834E+02 0.  0.
         11    1    3    3    0    0 -0.30837692564E+02  0.33926108298E+02 -0.71223294019E+02  0.84703611008E+02  0.00000000000E+00 0. -1.
        -11    1    3    3    0    0  0.87598497352E+00 -0.33048802636E+02 -0.16645836456E+03  0.16970968693E+03  0.00000000000E+00 0.  1.
         22    1    1    2    0    0  0.29961707591E+02 -0.87730566138E+00 -0.19146014078E+02  0.35567449193E+02  0.00000000000E+00 0.  1.
<mgrwt>
<rscale>  0 0.68791288E+02</rscale>
<asrwt>0</asrwt>
<pdfrwt beam="1">  1        2 0.42062187E-01 0.90738941E+02</pdfrwt>
<pdfrwt beam="2">  1       -2 0.25502365E-02 0.90738941E+02</pdfrwt>
<totfact> 0.56799080E+04</totfact>
</mgrwt>
</event>
<event>
 6    1  0.1535419E-002  0.9584065E+02  0.7546771E-02  0.1356079E+00
          1   -1    0    0  501    0  0.00000000000E+00  0.00000000000E+00  0.30076105375E+03  0.30076105375E+03  0.00000000000E+00 0. -1.
         -1   -1    0    0    0  501 -0.00000000000E+00 -0.00000000000E+00 -0.13713333500E+02  0.13713333500E+02  0.00000000000E+00 0.  1.
         23    2    1    2    0    0  0.29035601443E+02  0.29251388034E+01  0.24683520737E+03  0.26478868730E+03  0.91289685794E+02 0.  0.
         13    1    3    3    0    0 -0.11938353716E+02  0.27447567674E+02  0.18100579785E+03  0.18346387142E+03  0.00000000000E+00 0. -1.
        -13    1    3    3    0    0  0.40973955159E+02 -0.24522428870E+02  0.65829409522E+02  0.81324815875E+02  0.00000000000E+00 0.  1.
         22    1    1    2    0    0 -0.29035601443E+02 -0.29251388034E+01  0.40212512878E+02  0.49685699956E+02  0.00000000000E+00 0.  1.
<mgrwt>
<rscale>  0 0.71193967E+02</rscale>
<asrwt>0</asrwt>
<pdfrwt beam="1">  1        1 0.46270927E-01 0.95840645E+02</pdfrwt>
<pdfrwt beam="2">  1       -1 0.21097438E-02 0.95840645E+02</pdfrwt>
<totfact> 0.48762341E+04</totfact>
</mgrwt>
</event>
<event>
 6    1  0.1535419E-002  0.9182925E+02  0.7546771E-02  0.1429982E+00
          2   -1    0    0  501    0  0.00000000000E+00  0.00000000000E+00  0.65045040398E+03  0.65045040398E+03  0.00000000000E+00 0. -1.
         -2   -1    0    0    0  501 -0.00000000000E+00 -0.00000000000E+00 -0.48886154049E+01  0.48886154049E+01  0.00000000000E+00 0.  1.
         23    2    1    2    0    0  0.81034616127E+01  0.61314471889E+01  0.63060966548E+03  0.63726066991E+03  0.91265275325E+02 0.  0.
         13    1    3    3    0    0  0.14943276930E+02 -0.30724744639E+02  0.10725575430E+03  0.11256601747E+03  0.00000000000E+00 0.  1.
        -13    1    3    3    0    0 -0.68398153177E+01  0.36856191828E+02  0.52335391118E+03  0.52469465244E+03  0.00000000000E+00 0. -1.
         22    1    1    2    0    0 -0.81034616127E+01 -0.61314471889E+01  0.14952123092E+02  0.18078349474E+02  0.00000000000E+00 0.  1.
<mgrwt>
<rscale>  0 0.52963622E+02</rscale>
<asrwt>0</asrwt>
<pdfrwt beam="1">  1        2 0.10006922E+00 0.91829250E+02</pdfrwt>
<pdfrwt beam="2">  1       -2 0.75209519E-03 0.91829250E+02</pdfrwt>
<totfact> 0.12826803E+05</totfact>
</mgrwt>
</event>
<event>
 6    1  0.1535419E-002  0.9132959E+02  0.7546771E-02  0.1407273E+00
         -1   -1    0    0    0  501 -0.00000000000E+00  0.00000000000E+00  0.14521698454E+03  0.14521698454E+03  0.00000000000E+00 0.  1.
          1   -1    0    0  501    0  0.00000000000E+00 -0.00000000000E+00 -0.22458504712E+02  0.22458504712E+02  0.00000000000E+00 0. -1.
         23    2    1    2    0    0 -0.13284684920E+01  0.14597983390E+02  0.76454119839E+02  0.11910636633E+03  0.90145593969E+02 0.  0.
         13    1    3    3    0    0 -0.26364368882E+02  0.28035298651E+02  0.81609498204E+02  0.90228421875E+02  0.00000000000E+00 0.  1.
        -13    1    3    3    0    0  0.25035900390E+02 -0.13437315262E+02 -0.51553783647E+01  0.28877944453E+02  0.00000000000E+00 0. -1.
         22    1    1    2    0    0  0.13284684920E+01 -0.14597983390E+02  0.46304359989E+02  0.48569122924E+02  0.00000000000E+00 0.  1.
<mgrwt>
<rscale>  0 0.57806887E+02</rscale>
<asrwt>0</asrwt>
<pdfrwt beam="1">  1        1 0.34551547E-02 0.91329590E+02</pdfrwt>
<pdfrwt beam="2">  1       -1 0.22341074E-01 0.91329590E+02</pdfrwt>
<totfact> 0.40630994E+04</totfact>
</mgrwt>
</event>
<event>
 6    1  0.1535419E-002  0.9060986E+02  0.7546771E-02  0.1412081E+00
          2   -1    0    0  501    0  0.00000000000E+00  0.00000000000E+00  0.63434556830E+02  0.63434556830E+02  0.00000000000E+00 0. -1.
         -2   -1    0    0    0  501 -0.00000000000E+00 -0.00000000000E+00 -0.73019426670E+02  0.73019426670E+02  0.00000000000E+00 0.  1.
         23    2    1    2    0    0 -0.13091889593E+01 -0.13863099420E+02  0.29237258710E+02  0.95210109210E+02  0.89533502655E+02 0.  0.
         13    1    3    3    0    0  0.15986250248E+01 -0.33962190589E+02  0.53611824189E+02  0.63483963994E+02  0.00000000000E+00 0. -1.
        -13    1    3    3    0    0 -0.29078139841E+01  0.20099091169E+02 -0.24374565479E+02  0.31726145216E+02  0.00000000000E+00 0.  1.
         22    1    1    2    0    0  0.13091889593E+01  0.13863099420E+02 -0.38822128550E+02  0.41243874290E+02  0.00000000000E+00 0.  1.
<mgrwt>
<rscale>  0 0.56732079E+02</rscale>
<asrwt>0</asrwt>
<pdfrwt beam="1">  1        2 0.97591626E-02 0.90609865E+02</pdfrwt>
<pdfrwt beam="2">  1       -2 0.11233758E-01 0.90609865E+02</pdfrwt>
<totfact> 0.31713520E+04</totfact>
</mgrwt>
</event>
<event>
 6    1  0.1535419E-002  0.9443298E+02  0.7546771E-02  0.1360906E+00
          4   -1    0    0  501    0  0.00000000000E+00  0.00000000000E+00  0.14005313966E+03  0.14005313966E+03  0.00000000000E+00 0. -1.
         -4   -1    0    0    0  501 -0.00000000000E+00 -0.00000000000E+00 -0.27909633374E+02  0.27909633374E+02  0.00000000000E+00 0.  1.
         23    2    1    2    0    0  0.54196513141E+01  0.27597773776E+02  0.99335367090E+02  0.13705875764E+03  0.90147535484E+02 0.  0.
         11    1    3    3    0    0 -0.22166715414E+01 -0.32279390385E+02  0.47622658896E+02  0.57574215728E+02  0.00000000000E+00 0. -1.
        -11    1    3    3    0    0  0.76363228556E+01  0.59877164160E+02  0.51712708194E+02  0.79484541914E+02  0.00000000000E+00 0.  1.
         22    1    1    2    0    0 -0.54196513141E+01 -0.27597773776E+02  0.12808139199E+02  0.30904015394E+02  0.00000000000E+00 0.  1.
<mgrwt>
<rscale>  0 0.69761451E+02</rscale>
<asrwt>0</asrwt>
<pdfrwt beam="1">  1        4 0.21546637E-01 0.94432981E+02</pdfrwt>
<pdfrwt beam="2">  1       -4 0.42937898E-02 0.94432981E+02</pdfrwt>
<totfact> 0.88546301E+03</totfact>
</mgrwt>
</event>
<event>
 6    1  0.1535419E-002  0.9127505E+02  0.7546771E-02  0.1402087E+00
          2   -1    0    0  501    0  0.00000000000E+00  0.00000000000E+00  0.19922860347E+02  0.19922860347E+02  0.00000000000E+00 0. -1.
         -2   -1    0    0    0  501 -0.00000000000E+00 -0.00000000000E+00 -0.16016299197E+03  0.16016299197E+03  0.00000000000E+00 0.  1.
         23    2    1    2    0    0  0.12154518761E+01  0.15885942666E+02 -0.93328413007E+02  0.13054243862E+03  0.89873773193E+02 0.  0.
         13    1    3    3    0    0 -0.13767837439E+02  0.26712883220E+02  0.50228448250E+01  0.30469007989E+02  0.00000000000E+00 0. -1.
        -13    1    3    3    0    0  0.14983289315E+02 -0.10826940555E+02 -0.98351257832E+02  0.10007343063E+03  0.00000000000E+00 0.  1.
         22    1    1    2    0    0 -0.12154518761E+01 -0.15885942666E+02 -0.46911718615E+02  0.49543413700E+02  0.00000000000E+00 0.  1.
<mgrwt>
<rscale>  0 0.58997579E+02</rscale>
<asrwt>0</asrwt>
<pdfrwt beam="1">  1        2 0.30650555E-02 0.91275055E+02</pdfrwt>
<pdfrwt beam="2">  1       -2 0.24640460E-01 0.91275055E+02</pdfrwt>
<totfact> 0.38415169E+04</totfact>
</mgrwt>
</event>
<event>
 6    1  0.1535419E-002  0.1056839E+03  0.7546771E-02  0.1390159E+00
          1   -1    0    0  501    0  0.00000000000E+00  0.00000000000E+00  0.64364174758E+03  0.64364174758E+03  0.00000000000E+00 0. -1.
         -1   -1    0    0    0  501 -0.00000000000E+00 -0.00000000000E+00 -0.55556271925E+01  0.55556271925E+01  0.00000000000E+00 0.  1.
         23    2    1    2    0    0 -0.84610344033E+01 -0.90801117421E+01  0.59683212867E+03  0.60611687611E+03  0.10495256147E+03 0.  0.
         11    1    3    3    0    0  0.68417791537E+00 -0.33904614967E+02  0.62308731407E+02  0.70939192447E+02  0.00000000000E+00 0.  1.
        -11    1    3    3    0    0 -0.91452123186E+01  0.24824503225E+02  0.53452339726E+03  0.53517768366E+03  0.00000000000E+00 0. -1.
         22    1    1    2    0    0  0.84610344033E+01  0.90801117421E+01  0.41253991716E+02  0.43080498661E+02  0.00000000000E+00 0. -1.
<mgrwt>
<rscale>  0 0.61867107E+02</rscale>
<asrwt>0</asrwt>
<pdfrwt beam="1">  1        1 0.99021748E-01 0.10568386E+03</pdfrwt>
<pdfrwt beam="2">  1       -1 0.85471238E-03 0.10568386E+03</pdfrwt>
<totfact> 0.67597894E+04</totfact>
</mgrwt>
</event>
<event>
 6    1  0.1535419E-002  0.1047894E+03  0.7546771E-02  0.1334917E+00
         -2   -1    0    0    0  501 -0.00000000000E+00  0.00000000000E+00  0.68893168439E+01  0.68893168439E+01  0.00000000000E+00 0.  1.
          2   -1    0    0  501    0  0.00000000000E+00 -0.00000000000E+00 -0.68305353853E+03  0.68305353853E+03  0.00000000000E+00 0. -1.
         23    2    1    2    0    0 -0.39025744700E+00  0.32114355496E+02 -0.49773085213E+03  0.50864213419E+03  0.99746355241E+02 0.  0.
         13    1    3    3    0    0 -0.21386684845E+02 -0.20219242185E+02 -0.33745981503E+03  0.33874080770E+03  0.00000000000E+00 0. -1.
        -13    1    3    3    0    0  0.20996427398E+02  0.52333597681E+02 -0.16027103710E+03  0.16990132649E+03  0.00000000000E+00 0.  1.
         22    1    1    2    0    0  0.39025744700E+00 -0.32114355496E+02 -0.17843336956E+03  0.18130072119E+03  0.00000000000E+00 0. -1.
<mgrwt>
<rscale>  0 0.77968800E+02</rscale>
<asrwt>0</asrwt>
<pdfrwt beam="1">  1        2 0.10508521E+00 0.10478941E+03</pdfrwt>
<pdfrwt beam="2">  1       -2 0.10598944E-02 0.10478941E+03</pdfrwt>
<totfact> 0.75932541E+04</totfact>
</mgrwt>
</event>
<event>
 6    1  0.1535419E-002  0.9746996E+02  0.7546771E-02  0.1350030E+00
          1   -1    0    0  501    0  0.00000000000E+00  0.00000000000E+00  0.48983969623E+03  0.48983969623E+03  0.00000000000E+00 0. -1.
         -1   -1    0    0    0  501 -0.00000000000E+00 -0.00000000000E+00 -0.12139336293E+02  0.12139336293E+02  0.00000000000E+00 0.  1.
         23    2    1    2    0    0 -0.24512023135E+01 -0.30647756183E+02  0.45051503108E+03  0.46093837638E+03  0.92493784852E+02 0.  0.
         13    1    3    3    0    0  0.12591704323E+02 -0.55754245438E+02  0.38451138934E+03  0.38873653730E+03  0.00000000000E+00 0. -1.
        -13    1    3    3    0    0 -0.15042906637E+02  0.25106489255E+02  0.66003641744E+02  0.72201839078E+02  0.00000000000E+00 0.  1.
         22    1    1    2    0    0  0.24512023135E+01  0.30647756183E+02  0.27185328860E+02  0.41040656148E+02  0.00000000000E+00 0. -1.
<mgrwt>
<rscale>  0 0.73046418E+02</rscale>
<asrwt>0</asrwt>
<pdfrwt beam="1">  1        1 0.75359938E-01 0.97469962E+02</pdfrwt>
<pdfrwt beam="2">  1       -1 0.18675906E-02 0.97469962E+02</pdfrwt>
<totfact> 0.31687295E+04</totfact>
</mgrwt>
</event>
<event>
 6    1  0.1535419E-002  0.9467337E+02  0.7546771E-02  0.1373021E+00
          2   -1    0    0  501    0  0.00000000000E+00  0.00000000000E+00  0.29320822225E+03  0.29320822225E+03  0.00000000000E+00 0. -1.
         -2   -1    0    0    0  501 -0.00000000000E+00 -0.00000000000E+00 -0.12231657365E+02  0.12231657365E+02  0.00000000000E+00 0.  1.
         23    2    1    2    0    0  0.15869929438E+02 -0.16395203115E+02  0.24690340222E+03  0.26443210280E+03  0.91882477199E+02 0.  0.
         13    1    3    3    0    0 -0.35436043190E+02 -0.35870604601E+00  0.14445012807E+03  0.14873359179E+03  0.00000000000E+00 0. -1.
        -13    1    3    3    0    0  0.51305972628E+02 -0.16036497069E+02  0.10245327415E+03  0.11569851101E+03  0.00000000000E+00 0.  1.
         22    1    1    2    0    0 -0.15869929438E+02  0.16395203115E+02  0.34073162664E+02  0.41007776817E+02  0.00000000000E+00 0.  1.
<mgrwt>
<rscale>  0 0.66334564E+02</rscale>
<asrwt>0</asrwt>
<pdfrwt beam="1">  1        2 0.45108952E-01 0.94673370E+02</pdfrwt>
<pdfrwt beam="2">  1       -2 0.18817937E-02 0.94673370E+02</pdfrwt>
<totfact> 0.82281081E+04</totfact>
</mgrwt>
</event>
<event>
 6    1  0.1535419E-002  0.9306570E+02  0.7546771E-02  0.1380582E+00
         -1   -1    0    0    0  501 -0.00000000000E+00  0.00000000000E+00  0.37728357982E+02  0.37728357982E+02  0.00000000000E+00 0.  1.
          1   -1    0    0  501    0  0.00000000000E+00 -0.00000000000E+00 -0.10269006666E+03  0.10269006666E+03  0.00000000000E+00 0. -1.
         23    2    1    2    0    0 -0.34362292025E+01 -0.20941213550E+02 -0.72421572088E+02  0.11792416630E+03  0.90613921659E+02 0.  0.
         11    1    3    3    0    0 -0.32219007723E+02 -0.17396870666E+02  0.33732334895E+01  0.36770834527E+02  0.00000000000E+00 0.  1.
        -11    1    3    3    0    0  0.28782778520E+02 -0.35443428837E+01 -0.75794805578E+02  0.81153331776E+02  0.00000000000E+00 0. -1.
         22    1    1    2    0    0  0.34362292025E+01  0.20941213550E+02  0.74598634105E+01  0.22494258338E+02  0.00000000000E+00 0. -1.
<mgrwt>
<rscale>  0 0.64310970E+02</rscale>
<asrwt>0</asrwt>
<pdfrwt beam="1">  1        1 0.15798472E-01 0.93065702E+02</pdfrwt>
<pdfrwt beam="2">  1       -1 0.58043627E-02 0.93065702E+02</pdfrwt>
<totfact> 0.42485072E+04</totfact>
</mgrwt>
</event>
<event>
 6    1  0.1535419E-002  0.9139618E+02  0.7546771E-02  0.1402809E+00
          4   -1    0    0  501    0  0.00000000000E+00  0.00000000000E+00  0.68368035498E+02  0.68368035498E+02  0.00000000000E+00 0. -1.
         -4   -1    0    0    0  501 -0.00000000000E+00 -0.00000000000E+00 -0.42181671737E+02  0.42181671737E+02  0.00000000000E+00 0.  1.
         23    2    1    2    0    0  0.30925222305E+01  0.15381509124E+02  0.25309918572E+02  0.94835933887E+02  0.90039479460E+02 0.  0.
         13    1    3    3    0    0  0.35205626317E+01  0.11014663535E+02 -0.33717687602E+02  0.35645471399E+02  0.00000000000E+00 0.  1.
        -13    1    3    3    0    0 -0.42804040115E+00  0.43668455886E+01  0.59027606174E+02  0.59190462489E+02  0.00000000000E+00 0. -1.
         22    1    1    2    0    0 -0.30925222305E+01 -0.15381509124E+02  0.87644518884E+00  0.15713773348E+02  0.00000000000E+00 0.  1.
<mgrwt>
<rscale>  0 0.58829753E+02</rscale>
<asrwt>0</asrwt>
<pdfrwt beam="1">  1        4 0.10518159E-01 0.91396184E+02</pdfrwt>
<pdfrwt beam="2">  1       -4 0.64894879E-02 0.91396184E+02</pdfrwt>
<totfact> 0.15706915E+04</totfact>
</mgrwt>
</event>
<event>
 6    1  0.1535419E-002  0.9206828E+02  0.7546771E-02  0.1395789E+00
         -4   -1    0    0    0  501 -0.00000000000E+00  0.00000000000E+00  0.10998356250E+02  0.10998356250E+02  0.00000000000E+00 0.  1.
          4   -1    0    0  501    0  0.00000000000E+00 -0.00000000000E+00 -0.58563210935E+03  0.58563210935E+03  0.00000000000E+00 0. -1.
         23    2    1    2    0    0 -0.17064097222E+02  0.17624307104E+01 -0.57189477019E+03  0.57925831538E+03  0.90455946086E+02 0.  0.
         11    1    3    3    0    0  0.73899099700E+00  0.24810725704E+02 -0.43670269424E+02  0.50231570244E+02  0.00000000000E+00 0.  1.
        -11    1    3    3    0    0 -0.17803088219E+02 -0.23048294993E+02 -0.52822450077E+03  0.52902674513E+03  0.00000000000E+00 0. -1.
         22    1    1    2    0    0  0.17064097222E+02 -0.17624307104E+01 -0.27389829063E+01  0.17372150223E+02  0.00000000000E+00 0.  1.
<mgrwt>
<rscale>  0 0.60489414E+02</rscale>
<asrwt>0</asrwt>
<pdfrwt beam="1">  1        4 0.90097284E-01 0.92068278E+02</pdfrwt>
<pdfrwt beam="2">  1       -4 0.16920541E-02 0.92068278E+02</pdfrwt>
<totfact> 0.21447696E+03</totfact>
</mgrwt>
</event>
<event>
 6    1  0.1535419E-002  0.9650331E+02  0.7546771E-02  0.1357093E+00
         -4   -1    0    0    0  501 -0.00000000000E+00  0.00000000000E+00  0.14267065337E+03  0.14267065337E+03  0.00000000000E+00 0.  1.
          4   -1    0    0  501    0  0.00000000000E+00 -0.00000000000E+00 -0.31720666185E+02  0.31720666185E+02  0.00000000000E+00 0. -1.
         23    2    1    2    0    0 -0.78759590571E+01 -0.26973937045E+02  0.53267904996E+02  0.11022866206E+03  0.92321526345E+02 0.  0.
         11    1    3    3    0    0  0.12167667519E+02 -0.44839495233E+02  0.65838813307E+02  0.80581522716E+02  0.00000000000E+00 0.  1.
        -11    1    3    3    0    0 -0.20043626577E+02  0.17865558187E+02 -0.12570908310E+02  0.29647139347E+02  0.00000000000E+00 0. -1.
         22    1    1    2    0    0  0.78759590571E+01  0.26973937045E+02  0.57682082193E+02  0.64162657495E+02  0.00000000000E+00 0.  1.
<mgrwt>
<rscale>  0 0.70889872E+02</rscale>
<asrwt>0</asrwt>
<pdfrwt beam="1">  1        4 0.48801026E-02 0.96503307E+02</pdfrwt>
<pdfrwt beam="2">  1       -4 0.21949331E-01 0.96503307E+02</pdfrwt>
<totfact> 0.70326117E+03</totfact>
</mgrwt>
</event>
<event>
 6    1  0.1535419E-002  0.9278574E+02  0.7546771E-02  0.1396017E+00
         -2   -1    0    0    0  501 -0.00000000000E+00  0.00000000000E+00  0.47803057767E+01  0.47803057767E+01  0.00000000000E+00 0.  1.
          2   -1    0    0  501    0  0.00000000000E+00 -0.00000000000E+00 -0.86080099666E+03  0.86080099666E+03  0.00000000000E+00 0. -1.
         23    2    1    2    0    0  0.94716004982E+01 -0.13753302214E+02 -0.82627799092E+03  0.83147129307E+03  0.91270632658E+02 0.  0.
         13    1    3    3    0    0  0.46213997765E+02  0.12175160803E+02 -0.43534027596E+03  0.43795561876E+03  0.00000000000E+00 0.  1.
        -13    1    3    3    0    0 -0.36742397267E+02 -0.25928463017E+02 -0.39093771496E+03  0.39351567431E+03  0.00000000000E+00 0. -1.
         22    1    1    2    0    0 -0.94716004982E+01  0.13753302214E+02 -0.29742699963E+02  0.34110009365E+02  0.00000000000E+00 0.  1.
<mgrwt>
<rscale>  0 0.60434520E+02</rscale>
<asrwt>0</asrwt>
<pdfrwt beam="1">  1        2 0.13243072E+00 0.92785737E+02</pdfrwt>
<pdfrwt beam="2">  1       -2 0.73543279E-03 0.92785737E+02</pdfrwt>
<totfact> 0.94829381E+04</totfact>
</mgrwt>
</event>
<event>
 6    1  0.1535419E-002  0.9614884E+02  0.7546771E-02  0.1347146E+00
         -2   -1    0    0    0  501 -0.00000000000E+00  0.00000000000E+00  0.40654875047E+02  0.40654875047E+02  0.00000000000E+00 0.  1.
          2   -1    0    0  501    0  0.00000000000E+00 -0.00000000000E+00 -0.11322702784E+03  0.11322702784E+03  0.00000000000E+00 0. -1.
         23    2    1    2    0    0 -0.32932341249E+02 -0.69106200808E+01 -0.72184973687E+02  0.12023007266E+03  0.90068330594E+02 0.  0.
         13    1    3    3    0    0 -0.33699214787E+02 -0.23212316758E+02 -0.88283836255E+02  0.97306137887E+02  0.00000000000E+00 0. -1.
        -13    1    3    3    0    0  0.76687353787E+00  0.16301696677E+02  0.16098862568E+02  0.22923934775E+02  0.00000000000E+00 0.  1.
         22    1    1    2    0    0  0.32932341249E+02  0.69106200808E+01 -0.38717910934E+00  0.33651830228E+02  0.00000000000E+00 0.  1.
<mgrwt>
<rscale>  0 0.73952529E+02</rscale>
<asrwt>0</asrwt>
<pdfrwt beam="1">  1        2 0.17419543E-01 0.96148843E+02</pdfrwt>
<pdfrwt beam="2">  1       -2 0.62545962E-02 0.96148843E+02</pdfrwt>
<totfact> 0.39722924E+04</totfact>
</mgrwt>
</event>
<event>
 6    1  0.1535419E-002  0.9589576E+02  0.7546771E-02  0.1410363E+00
         -2   -1    0    0    0  501 -0.00000000000E+00  0.00000000000E+00  0.31621610613E+02  0.31621610613E+02  0.00000000000E+00 0.  1.
          2   -1    0    0  501    0  0.00000000000E+00 -0.00000000000E+00 -0.97777161041E+02  0.97777161041E+02  0.00000000000E+00 0. -1.
         23    2    1    2    0    0  0.11849026256E+02  0.22745131471E+01 -0.67483620119E+02  0.11726054269E+03  0.95133711451E+02 0.  0.
         11    1    3    3    0    0  0.14007219647E+02  0.36939665254E+02 -0.72108693333E+02  0.82221680386E+02  0.00000000000E+00 0. -1.
        -11    1    3    3    0    0 -0.21581933910E+01 -0.34665152107E+02  0.46250732147E+01  0.35038862304E+02  0.00000000000E+00 0.  1.
         22    1    1    2    0    0 -0.11849026256E+02 -0.22745131471E+01  0.13280696906E+01  0.12138228964E+02  0.00000000000E+00 0. -1.
<mgrwt>
<rscale>  0 0.57112948E+02</rscale>
<asrwt>0</asrwt>
<pdfrwt beam="1">  1        2 0.15042640E-01 0.95895755E+02</pdfrwt>
<pdfrwt beam="2">  1       -2 0.48648632E-02 0.95895755E+02</pdfrwt>
<totfact> 0.68428889E+04</totfact>
</mgrwt>
</event>
<event>
 6    1  0.1535419E-002  0.9585473E+02  0.7546771E-02  0.1393023E+00
          2   -1    0    0  501    0  0.00000000000E+00  0.00000000000E+00  0.92365931233E+02  0.92365931233E+02  0.00000000000E+00 0. -1.
         -2   -1    0    0    0  501 -0.00000000000E+00 -0.00000000000E+00 -0.34651172915E+02  0.34651172915E+02  0.00000000000E+00 0.  1.
         23    2    1    2    0    0 -0.15830412703E+02 -0.13480073538E+01  0.56057713629E+02  0.11104322274E+03  0.94528889600E+02 0.  0.
         11    1    3    3    0    0 -0.34165941214E+02 -0.26041263830E+02 -0.44285689671E+01  0.43186469918E+02  0.00000000000E+00 0.  1.
        -11    1    3    3    0    0  0.18335528512E+02  0.24693256476E+02  0.60486282596E+02  0.67856752821E+02  0.00000000000E+00 0. -1.
         22    1    1    2    0    0  0.15830412703E+02  0.13480073538E+01  0.16570446892E+01  0.15973881409E+02  0.00000000000E+00 0. -1.
<mgrwt>
<rscale>  0 0.61161123E+02</rscale>
<asrwt>0</asrwt>
<pdfrwt beam="1">  1        2 0.14210143E-01 0.95854734E+02</pdfrwt>
<pdfrwt beam="2">  1       -2 0.53309497E-02 0.95854734E+02</pdfrwt>
<totfact> 0.63792513E+04</totfact>
</mgrwt>
</event>
<event>
 6    1  0.1535419E-002  0.9131432E+02  0.7546771E-02  0.1370526E+00
         -2   -1    0    0    0  501 -0.00000000000E+00  0.00000000000E+00  0.19970343333E+01  0.19970343333E+01  0.00000000000E+00 0.  1.
          2   -1    0    0  501    0  0.00000000000E+00 -0.00000000000E+00 -0.36001180475E+04  0.36001180475E+04  0.00000000000E+00 0. -1.
         23    2    1    2    0    0 -0.76839690867E+01  0.25360609718E+02 -0.34738609322E+04  0.34750608744E+04  0.87384784539E+02 0.  0.
         11    1    3    3    0    0 -0.31393955325E+02 -0.17014248350E+02 -0.84863005095E+03  0.84938096780E+03  0.00000000000E+00 0.  1.
        -11    1    3    3    0    0  0.23709986238E+02  0.42374858068E+02 -0.26252308813E+04  0.26256799066E+04  0.00000000000E+00 0. -1.
         22    1    1    2    0    0  0.76839690867E+01 -0.25360609718E+02 -0.12426008094E+03  0.12705420742E+03  0.00000000000E+00 0.  1.
<mgrwt>
<rscale>  0 0.67021179E+02</rscale>
<asrwt>0</asrwt>
<pdfrwt beam="1">  1        2 0.55385762E+00 0.91314317E+02</pdfrwt>
<pdfrwt beam="2">  1       -2 0.30723976E-03 0.91314317E+02</pdfrwt>
<totfact> 0.10145679E+04</totfact>
</mgrwt>
</event>
<event>
 6    1  0.1535419E-002  0.1016360E+03  0.7546771E-02  0.1322699E+00
         -2   -1    0    0    0  501 -0.00000000000E+00  0.00000000000E+00  0.76737999992E+02  0.76737999992E+02  0.00000000000E+00 0. -1.
          2   -1    0    0  501    0  0.00000000000E+00 -0.00000000000E+00 -0.96195277181E+02  0.96195277181E+02  0.00000000000E+00 0.  1.
         23    2    1    2    0    0 -0.42430895574E+02 -0.10279999013E+02 -0.55961925182E+02  0.11602415133E+03  0.91781301710E+02 0.  0.
         11    1    3    3    0    0 -0.32672138573E+02  0.41673046306E+01  0.19700564209E+02  0.38378995518E+02  0.00000000000E+00 0. -1.
        -11    1    3    3    0    0 -0.97587570008E+01 -0.14447303644E+02 -0.75662489390E+02  0.77645155815E+02  0.00000000000E+00 0.  1.
         22    1    1    2    0    0  0.42430895574E+02  0.10279999013E+02  0.36504647992E+02  0.56909125840E+02  0.00000000000E+00 0.  1.
<mgrwt>
<rscale>  0 0.82281570E+02</rscale>
<asrwt>0</asrwt>
<pdfrwt beam="1">  1        2 0.14799273E-01 0.10163595E+03</pdfrwt>
<pdfrwt beam="2">  1       -2 0.11805846E-01 0.10163595E+03</pdfrwt>
<totfact> 0.18113111E+04</totfact>
</mgrwt>
</event>
<event>
 6    1  0.1535419E-002  0.8872189E+02  0.7546771E-02  0.1384190E+00
         -2   -1    0    0    0  501 -0.00000000000E+00  0.00000000000E+00  0.43914830076E+01  0.43914830076E+01  0.00000000000E+00 0.  1.
          2   -1    0    0  501    0  0.00000000000E+00 -0.00000000000E+00 -0.10626884717E+04  0.10626884717E+04  0.00000000000E+00 0. -1.
         23    2    1    2    0    0  0.23087774563E+02 -0.70626786752E+00 -0.10060522377E+04  0.10099567706E+04  0.85662299107E+02 0.  0.
         13    1    3    3    0    0  0.35942280644E+02  0.32593608985E+02 -0.72928126788E+03  0.73089353435E+03  0.00000000000E+00 0. -1.
        -13    1    3    3    0    0 -0.12854506082E+02 -0.33299876853E+02 -0.27677096979E+03  0.27906323628E+03  0.00000000000E+00 0.  1.
         22    1    1    2    0    0 -0.23087774563E+02  0.70626786752E+00 -0.52244750992E+02  0.57123184039E+02  0.00000000000E+00 0.  1.
<mgrwt>
<rscale>  0 0.63375206E+02</rscale>
<asrwt>0</asrwt>
<pdfrwt beam="1">  1        2 0.16349072E+00 0.88721889E+02</pdfrwt>
<pdfrwt beam="2">  1       -2 0.67561201E-03 0.88721889E+02</pdfrwt>
<totfact> 0.80420213E+04</totfact>
</mgrwt>
</event>
<event>
 6    1  0.1535419E-002  0.9083762E+02  0.7546771E-02  0.1402159E+00
          1   -1    0    0  501    0  0.00000000000E+00  0.00000000000E+00  0.64368370148E+02  0.64368370148E+02  0.00000000000E+00 0. -1.
         -1   -1    0    0    0  501 -0.00000000000E+00 -0.00000000000E+00 -0.47568730323E+02  0.47568730323E+02  0.00000000000E+00 0.  1.
         23    2    1    2    0    0 -0.12779088377E+02 -0.98675066831E+01  0.24450461649E+02  0.94070711287E+02  0.89391279548E+02 0.  0.
         11    1    3    3    0    0 -0.36051839754E+02 -0.77261013209E+01 -0.21383182957E+02  0.42622392057E+02  0.00000000000E+00 0.  1.
        -11    1    3    3    0    0  0.23272751377E+02 -0.21414053622E+01  0.45833644606E+02  0.51448319229E+02  0.00000000000E+00 0. -1.
         22    1    1    2    0    0  0.12779088377E+02  0.98675066831E+01 -0.76508218244E+01  0.17866389184E+02  0.00000000000E+00 0. -1.
<mgrwt>
<rscale>  0 0.58980884E+02</rscale>
<asrwt>0</asrwt>
<pdfrwt beam="1">  1        1 0.99028262E-02 0.90837622E+02</pdfrwt>
<pdfrwt beam="2">  1       -1 0.73182662E-02 0.90837622E+02</pdfrwt>
<totfact> 0.54988429E+04</totfact>
</mgrwt>
</event>
<event>
 6    1  0.1535419E-002  0.7357013E+02  0.7546771E-02  0.1431191E+00
         -2   -1    0    0    0  501 -0.00000000000E+00  0.00000000000E+00  0.62790234573E+01  0.62790234573E+01  0.00000000000E+00 0.  1.
          2   -1    0    0  501    0  0.00000000000E+00 -0.00000000000E+00 -0.62622533714E+03  0.62622533714E+03  0.00000000000E+00 0. -1.
         23    2    1    2    0    0 -0.11349086941E+01 -0.19369000091E+02 -0.60065502867E+03  0.60514380761E+03  0.70965613087E+02 0.  0.
         11    1    3    3    0    0  0.95197662961E+01  0.22730423771E+02 -0.11839784927E+03  0.12093530844E+03  0.00000000000E+00 0.  1.
        -11    1    3    3    0    0 -0.10654674990E+02 -0.42099423862E+02 -0.48225717940E+03  0.48420849918E+03  0.00000000000E+00 0. -1.
         22    1    1    2    0    0  0.11349086941E+01  0.19369000091E+02 -0.19291285012E+02  0.27360552986E+02  0.00000000000E+00 0.  1.
<mgrwt>
<rscale>  0 0.52721653E+02</rscale>
<asrwt>0</asrwt>
<pdfrwt beam="1">  1        2 0.96342393E-01 0.73570133E+02</pdfrwt>
<pdfrwt beam="2">  1       -2 0.96600328E-03 0.73570133E+02</pdfrwt>
<totfact> 0.91113699E+04</totfact>
</mgrwt>
</event>
<event>
 6    1  0.1535419E-002  0.9029667E+02  0.7546771E-02  0.1425600E+00
         -1   -1    0    0    0  501 -0.00000000000E+00  0.00000000000E+00  0.16069234823E+03  0.16069234823E+03  0.00000000000E+00 0.  1.
          1   -1    0    0  501    0  0.00000000000E+00 -0.00000000000E+00 -0.16174486361E+02  0.16174486361E+02  0.00000000000E+00 0. -1.
         23    2    1    2    0    0  0.15967667953E+01  0.11312389119E+02  0.12416337168E+03  0.15352534615E+03  0.89571028976E+02 0.  0.
         11    1    3    3    0    0 -0.17505463021E+02  0.10361325070E+02 -0.65882348305E+01  0.21382308832E+02  0.00000000000E+00 0. -1.
        -11    1    3    3    0    0  0.19102229817E+02  0.95106404867E+00  0.13075160651E+03  0.13214303732E+03  0.00000000000E+00 0.  1.
         22    1    1    2    0    0 -0.15967667953E+01 -0.11312389119E+02  0.20354490193E+02  0.23341488445E+02  0.00000000000E+00 0.  1.
<mgrwt>
<rscale>  0 0.53853429E+02</rscale>
<asrwt>0</asrwt>
<pdfrwt beam="1">  1        1 0.24883826E-02 0.90296672E+02</pdfrwt>
<pdfrwt beam="2">  1       -1 0.24721899E-01 0.90296672E+02</pdfrwt>
<totfact> 0.53997548E+04</totfact>
</mgrwt>
</event>
<event>
 6    1  0.1535419E-002  0.9430395E+02  0.7546771E-02  0.1361301E+00
         -2   -1    0    0    0  501 -0.00000000000E+00  0.00000000000E+00  0.19714834645E+02  0.19714834645E+02  0.00000000000E+00 0.  1.
          2   -1    0    0  501    0  0.00000000000E+00 -0.00000000000E+00 -0.56846297125E+03  0.56846297125E+03  0.00000000000E+00 0. -1.
         23    2    1    2    0    0 -0.20071418153E+02  0.19600014343E+02 -0.55194409893E+03  0.55994242801E+03  0.90034504292E+02 0.  0.
         11    1    3    3    0    0 -0.70861841586E+01  0.40543942410E+02 -0.50714940314E+03  0.50881680631E+03  0.00000000000E+00 0. -1.
        -11    1    3    3    0    0 -0.12985233995E+02 -0.20943928066E+02 -0.44794695784E+02  0.51125621709E+02  0.00000000000E+00 0.  1.
         22    1    1    2    0    0  0.20071418153E+02 -0.19600014343E+02  0.31959623201E+01  0.28235377881E+02  0.00000000000E+00 0.  1.
<mgrwt>
<rscale>  0 0.69645937E+02</rscale>
<asrwt>0</asrwt>
<pdfrwt beam="1">  1        2 0.87455820E-01 0.94303947E+02</pdfrwt>
<pdfrwt beam="2">  1       -2 0.30330522E-02 0.94303947E+02</pdfrwt>
<totfact> 0.20401383E+04</totfact>
</mgrwt>
</event>
<event>
 6    1  0.1535419E-002  0.9379425E+02  0.7546771E-02  0.1382259E+00
          2   -1    0    0  501    0  0.00000000000E+00  0.00000000000E+00  0.18419689089E+03  0.18419689089E+03  0.00000000000E+00 0. -1.
         -2   -1    0    0    0  501 -0.00000000000E+00 -0.00000000000E+00 -0.44294442892E+02  0.44294442892E+02  0.00000000000E+00 0.  1.
         23    2    1    2    0    0 -0.13633242151E+02  0.14868024854E+02  0.16888330561E+03  0.19318108651E+03  0.91599333052E+02 0.  0.
         13    1    3    3    0    0  0.29797070125E+02  0.29311692247E+02  0.11568144190E+03  0.12300096216E+03  0.00000000000E+00 0. -1.
        -13    1    3    3    0    0 -0.43430312276E+02 -0.14443667394E+02  0.53201863712E+02  0.70180124355E+02  0.00000000000E+00 0.  1.
         22    1    1    2    0    0  0.13633242151E+02 -0.14868024854E+02 -0.28980857614E+02  0.35310247275E+02  0.00000000000E+00 0. -1.
<mgrwt>
<rscale>  0 0.63873579E+02</rscale>
<asrwt>0</asrwt>
<pdfrwt beam="1">  1        2 0.28337983E-01 0.93794250E+02</pdfrwt>
<pdfrwt beam="2">  1       -2 0.68145298E-02 0.93794250E+02</pdfrwt>
<totfact> 0.20319540E+04</totfact>
</mgrwt>
</event>
<event>
 6    1  0.1535419E-002  0.8538764E+02  0.7546771E-02  0.1432619E+00
         -2   -1    0    0    0  501 -0.00000000000E+00  0.00000000000E+00  0.10349198614E+02  0.10349198614E+02  0.00000000000E+00 0.  1.
          2   -1    0    0  501    0  0.00000000000E+00 -0.00000000000E+00 -0.23061076274E+03  0.23061076274E+03  0.00000000000E+00 0. -1.
         23    2    1    2    0    0 -0.12050281066E+02  0.15138327582E+01 -0.18778603040E+03  0.20628776422E+03  0.84519509521E+02 0.  0.
         13    1    3    3    0    0 -0.16729953185E+02  0.27804718846E+02 -0.24055471740E+02  0.40393804529E+02  0.00000000000E+00 0.  1.
        -13    1    3    3    0    0  0.46796721192E+01 -0.26290886088E+02 -0.16373055866E+03  0.16589395969E+03  0.00000000000E+00 0. -1.
         22    1    1    2    0    0  0.12050281066E+02 -0.15138327582E+01 -0.32475533724E+02  0.34672197133E+02  0.00000000000E+00 0.  1.
<mgrwt>
<rscale>  0 0.52437937E+02</rscale>
<asrwt>0</asrwt>
<pdfrwt beam="1">  1        2 0.35478577E-01 0.85387636E+02</pdfrwt>
<pdfrwt beam="2">  1       -2 0.15921845E-02 0.85387636E+02</pdfrwt>
<totfact> 0.13233597E+05</totfact>
</mgrwt>
</event>
<event>
 6    1  0.1535419E-002  0.9368029E+02  0.7546771E-02  0.1392391E+00
         -2   -1    0    0    0  501 -0.00000000000E+00  0.00000000000E+00  0.29191966281E+02  0.29191966281E+02  0.00000000000E+00 0.  1.
          2   -1    0    0  501    0  0.00000000000E+00 -0.00000000000E+00 -0.10558079662E+03  0.10558079662E+03  0.00000000000E+00 0. -1.
         23    2    1    2    0    0 -0.54482950848E+01 -0.16306650600E+02 -0.67092698459E+02  0.11522771644E+03  0.92089118125E+02 0.  0.
         11    1    3    3    0    0  0.39755966710E+02 -0.23874089029E+02 -0.43914664654E+02  0.63867102546E+02  0.00000000000E+00 0. -1.
        -11    1    3    3    0    0 -0.45204261795E+02  0.75674384292E+01 -0.23178033805E+02  0.51360613897E+02  0.00000000000E+00 0.  1.
         22    1    1    2    0    0  0.54482950848E+01  0.16306650600E+02 -0.92961318783E+01  0.19545046457E+02  0.00000000000E+00 0. -1.
<mgrwt>
<rscale>  0 0.61315818E+02</rscale>
<asrwt>0</asrwt>
<pdfrwt beam="1">  1        2 0.16243199E-01 0.93680288E+02</pdfrwt>
<pdfrwt beam="2">  1       -2 0.44910718E-02 0.93680288E+02</pdfrwt>
<totfact> 0.70281011E+04</totfact>
</mgrwt>
</event>
<event>
 6    1  0.1535419E-002  0.9395023E+02  0.7546771E-02  0.1418758E+00
         -1   -1    0    0    0  501 -0.00000000000E+00  0.00000000000E+00  0.36690214709E+02  0.36690214709E+02  0.00000000000E+00 0.  1.
          1   -1    0    0  501    0  0.00000000000E+00 -0.00000000000E+00 -0.10009222011E+03  0.10009222011E+03  0.00000000000E+00 0. -1.
         23    2    1    2    0    0 -0.17489986912E+01 -0.11128134712E+02 -0.75296593328E+02  0.12040026156E+03  0.93272459169E+02 0.  0.
         13    1    3    3    0    0  0.38681418698E+02 -0.40212807352E+01 -0.52930692866E+01  0.39248432245E+02  0.00000000000E+00 0.  1.
        -13    1    3    3    0    0 -0.40430417389E+02 -0.71068539767E+01 -0.70003524042E+02  0.81151829320E+02  0.00000000000E+00 0. -1.
         22    1    1    2    0    0  0.17489986912E+01  0.11128134712E+02  0.11894587927E+02  0.16382173255E+02  0.00000000000E+00 0. -1.
<mgrwt>
<rscale>  0 0.55284539E+02</rscale>
<asrwt>0</asrwt>
<pdfrwt beam="1">  1        1 0.15398803E-01 0.93950232E+02</pdfrwt>
<pdfrwt beam="2">  1       -1 0.56446484E-02 0.93950232E+02</pdfrwt>
<totfact> 0.45795466E+04</totfact>
</mgrwt>
</event>
<event>
 6    1  0.1535419E-002  0.9157938E+02  0.7546771E-02  0.1422990E+00
         -2   -1    0    0    0  501 -0.00000000000E+00  0.00000000000E+00  0.16812767496E+02  0.16812767496E+02  0.00000000000E+00 0.  1.
          2   -1    0    0  501    0  0.00000000000E+00 -0.00000000000E+00 -0.18702216428E+03  0.18702216428E+03  0.00000000000E+00 0. -1.
         23    2    1    2    0    0 -0.78113371944E+01 -0.82989882221E+01 -0.16919931281E+03  0.19239332071E+03  0.90867443038E+02 0.  0.
         13    1    3    3    0    0  0.15713737592E+02 -0.43218138859E+02 -0.11432448253E+03  0.12322668696E+03  0.00000000000E+00 0. -1.
        -13    1    3    3    0    0 -0.23525074786E+02  0.34919150637E+02 -0.54874830283E+02  0.69166633744E+02  0.00000000000E+00 0.  1.
         22    1    1    2    0    0  0.78113371944E+01  0.82989882221E+01 -0.10100839814E+01  0.11441611072E+02  0.00000000000E+00 0. -1.
<mgrwt>
<rscale>  0 0.54393288E+02</rscale>
<asrwt>0</asrwt>
<pdfrwt beam="1">  1        2 0.28772642E-01 0.91579378E+02</pdfrwt>
<pdfrwt beam="2">  1       -2 0.25865795E-02 0.91579378E+02</pdfrwt>
<totfact> 0.83280862E+04</totfact>
</mgrwt>
</event>
<event>
 6    1  0.1535419E-002  0.9082273E+02  0.7546771E-02  0.1405388E+00
         -1   -1    0    0    0  501 -0.00000000000E+00  0.00000000000E+00  0.73681980339E+01  0.73681980339E+01  0.00000000000E+00 0.  1.
          1   -1    0    0  501    0  0.00000000000E+00 -0.00000000000E+00 -0.38378031590E+03  0.38378031590E+03  0.00000000000E+00 0. -1.
         23    2    1    2    0    0 -0.14838662869E+02 -0.39385957476E+01 -0.32951312903E+03  0.34180063043E+03  0.89515754529E+02 0.  0.
         13    1    3    3    0    0 -0.10738195366E+01 -0.23603105579E+02 -0.30991050305E+03  0.31080987690E+03  0.00000000000E+00 0. -1.
        -13    1    3    3    0    0 -0.13764843333E+02  0.19664509832E+02 -0.19602625981E+02  0.30990753528E+02  0.00000000000E+00 0.  1.
         22    1    1    2    0    0  0.14838662869E+02  0.39385957476E+01 -0.46898988839E+02  0.49347883504E+02  0.00000000000E+00 0. -1.
<mgrwt>
<rscale>  0 0.58235863E+02</rscale>
<asrwt>0</asrwt>
<pdfrwt beam="1">  1        1 0.59043125E-01 0.90822733E+02</pdfrwt>
<pdfrwt beam="2">  1       -1 0.11335689E-02 0.90822733E+02</pdfrwt>
<totfact> 0.86727477E+04</totfact>
</mgrwt>
</event>
<event>
 6    1  0.1535419E-002  0.9177509E+02  0.7546771E-02  0.1385193E+00
          2   -1    0    0  501    0  0.00000000000E+00  0.00000000000E+00  0.52858311002E+03  0.52858311002E+03  0.00000000000E+00 0. -1.
         -2   -1    0    0    0  501 -0.00000000000E+00 -0.00000000000E+00 -0.59917629566E+01  0.59917629566E+01  0.00000000000E+00 0.  1.
         23    2    1    2    0    0  0.20504973167E+02  0.10666858966E+01  0.44002296502E+03  0.44949179912E+03  0.89448733858E+02 0.  0.
         13    1    3    3    0    0  0.46936350031E+02  0.24787861655E+02  0.31822881934E+03  0.32262523227E+03  0.00000000000E+00 0. -1.
        -13    1    3    3    0    0 -0.26431376864E+02 -0.23721175759E+02  0.12179414568E+03  0.12686656685E+03  0.00000000000E+00 0.  1.
         22    1    1    2    0    0 -0.20504973167E+02 -0.10666858966E+01  0.82568382044E+02  0.85083073856E+02  0.00000000000E+00 0.  1.
<mgrwt>
<rscale>  0 0.63118277E+02</rscale>
<asrwt>0</asrwt>
<pdfrwt beam="1">  1        2 0.81320441E-01 0.91775093E+02</pdfrwt>
<pdfrwt beam="2">  1       -2 0.92181011E-03 0.91775093E+02</pdfrwt>
<totfact> 0.12127230E+05</totfact>
</mgrwt>
</event>
<event>
 6    1  0.1535419E-002  0.9910535E+02  0.7546771E-02  0.1383228E+00
          1   -1    0    0  501    0  0.00000000000E+00  0.00000000000E+00  0.12746638302E+03  0.12746638302E+03  0.00000000000E+00 0. -1.
         -1   -1    0    0    0  501 -0.00000000000E+00 -0.00000000000E+00 -0.33770971996E+02  0.33770971996E+02  0.00000000000E+00 0.  1.
         23    2    1    2    0    0 -0.75045044055E+01  0.15067609572E+02  0.10221429834E+03  0.14237146289E+03  0.97665348071E+02 0.  0.
         11    1    3    3    0    0  0.38798862673E+02  0.23598300103E+02  0.24742903155E+02  0.51715014929E+02  0.00000000000E+00 0. -1.
        -11    1    3    3    0    0 -0.46303367079E+02 -0.85306905310E+01  0.77471395188E+02  0.90656447957E+02  0.00000000000E+00 0.  1.
         22    1    1    2    0    0  0.75045044055E+01 -0.15067609572E+02 -0.85188873217E+01  0.18865892128E+02  0.00000000000E+00 0.  1.
<mgrwt>
<rscale>  0 0.63622879E+02</rscale>
<asrwt>0</asrwt>
<pdfrwt beam="1">  1        1 0.19610212E-01 0.99105351E+02</pdfrwt>
<pdfrwt beam="2">  1       -1 0.51955342E-02 0.99105351E+02</pdfrwt>
<totfact> 0.38327106E+04</totfact>
</mgrwt>
</event>
<event>
 6    1  0.1535419E-002  0.9308979E+02  0.7546771E-02  0.1425267E+00
         -2   -1    0    0    0  501 -0.00000000000E+00  0.00000000000E+00  0.27621091096E+02  0.27621091096E+02  0.00000000000E+00 0.  1.
          2   -1    0    0  501    0  0.00000000000E+00 -0.00000000000E+00 -0.10593433545E+03  0.10593433545E+03  0.00000000000E+00 0. -1.
         23    2    1    2    0    0  0.37798012786E+01  0.97744694506E+01 -0.80241110779E+02  0.12289973230E+03  0.92498006415E+02 0.  0.
         13    1    3    3    0    0  0.25675534338E+02  0.30894872346E+01 -0.93111776194E+02  0.96636333027E+02  0.00000000000E+00 0. -1.
        -13    1    3    3    0    0 -0.21895733059E+02  0.66849822160E+01  0.12870665415E+02  0.26263399278E+02  0.00000000000E+00 0.  1.
         22    1    1    2    0    0 -0.37798012786E+01 -0.97744694506E+01  0.19278664278E+01  0.10655694239E+02  0.00000000000E+00 0.  1.
<mgrwt>
<rscale>  0 0.53921907E+02</rscale>
<asrwt>0</asrwt>
<pdfrwt beam="1">  1        2 0.16297590E-01 0.93089786E+02</pdfrwt>
<pdfrwt beam="2">  1       -2 0.42493986E-02 0.93089786E+02</pdfrwt>
<totfact> 0.75903929E+04</totfact>
</mgrwt>
</event>
<event>
 6    1  0.1535419E-002  0.9180630E+02  0.7546771E-02  0.1392714E+00
          1   -1    0    0  501    0  0.00000000000E+00  0.00000000000E+00  0.16819070507E+04  0.16819070507E+04  0.00000000000E+00 0. -1.
         -1   -1    0    0    0  501 -0.00000000000E+00 -0.00000000000E+00 -0.35778448157E+01  0.35778448157E+01  0.00000000000E+00 0.  1.
         23    2    1    2    0    0 -0.53666744312E+01  0.17362648308E+02  0.16446926913E+04  0.16472529996E+04  0.89989628011E+02 0.  0.
         11    1    3    3    0    0 -0.41500853107E+02  0.13405866327E+02  0.12823823520E+04  0.12831237411E+04  0.00000000000E+00 0. -1.
        -11    1    3    3    0    0  0.36134178676E+02  0.39567819810E+01  0.36231033930E+03  0.36412925859E+03  0.00000000000E+00 0.  1.
         22    1    1    2    0    0  0.53666744312E+01 -0.17362648308E+02  0.33636514514E+02  0.38231895838E+02  0.00000000000E+00 0.  1.
<mgrwt>
<rscale>  0 0.61236703E+02</rscale>
<asrwt>0</asrwt>
<pdfrwt beam="1">  1        1 0.25875430E+00 0.91806296E+02</pdfrwt>
<pdfrwt beam="2">  1       -1 0.55043901E-03 0.91806296E+02</pdfrwt>
<totfact> 0.22615863E+04</totfact>
</mgrwt>
</event>
<event>
 6    1  0.1535419E-002  0.8277303E+02  0.7546771E-02  0.1445365E+00
          2   -1    0    0  501    0  0.00000000000E+00  0.00000000000E+00  0.51490823835E+02  0.51490823835E+02  0.00000000000E+00 0. -1.
         -2   -1    0    0    0  501 -0.00000000000E+00 -0.00000000000E+00 -0.45989014981E+02  0.45989014981E+02  0.00000000000E+00 0.  1.
         23    2    1    2    0    0 -0.52295979521E+01  0.96966365305E+01  0.13498672343E+02  0.83866489470E+02  0.82036579927E+02 0.  0.
         11    1    3    3    0    0 -0.93291769424E+01  0.45579796375E+02  0.52508662784E+01  0.46820112950E+02  0.00000000000E+00 0. -1.
        -11    1    3    3    0    0  0.40995789904E+01 -0.35883159844E+02  0.82478060646E+01  0.37046376519E+02  0.00000000000E+00 0.  1.
         22    1    1    2    0    0  0.52295979521E+01 -0.96966365305E+01 -0.79968634893E+01  0.13613349346E+02  0.00000000000E+00 0. -1.
<mgrwt>
<rscale>  0 0.49995635E+02</rscale>
<asrwt>0</asrwt>
<pdfrwt beam="1">  1        2 0.79216652E-02 0.82773026E+02</pdfrwt>
<pdfrwt beam="2">  1       -2 0.70752331E-02 0.82773026E+02</pdfrwt>
<totfact> 0.82374029E+04</totfact>
</mgrwt>
</event>
<event>
 6    1  0.1535419E-002  0.9391325E+02  0.7546771E-02  0.1394010E+00
          2   -1    0    0  501    0  0.00000000000E+00  0.00000000000E+00  0.58615162310E+03  0.58615162310E+03  0.00000000000E+00 0. -1.
         -2   -1    0    0    0  501 -0.00000000000E+00 -0.00000000000E+00 -0.80016714507E+01  0.80016714507E+01  0.00000000000E+00 0.  1.
         23    2    1    2    0    0  0.56919152518E+01  0.15624376635E+02  0.56553837448E+03  0.57328295859E+03  0.92429316528E+02 0.  0.
         11    1    3    3    0    0 -0.42943275918E+02  0.69655371214E+01  0.22339167124E+03  0.22758840576E+03  0.00000000000E+00 0.  1.
        -11    1    3    3    0    0  0.48635191170E+02  0.86588395138E+01  0.34214670324E+03  0.34569455284E+03  0.00000000000E+00 0. -1.
         22    1    1    2    0    0 -0.56919152518E+01 -0.15624376635E+02  0.12611577168E+02  0.20870335961E+02  0.00000000000E+00 0.  1.
<mgrwt>
<rscale>  0 0.60920122E+02</rscale>
<asrwt>0</asrwt>
<pdfrwt beam="1">  1        2 0.90177139E-01 0.93913245E+02</pdfrwt>
<pdfrwt beam="2">  1       -2 0.12310268E-02 0.93913245E+02</pdfrwt>
<totfact> 0.72034774E+04</totfact>
</mgrwt>
</event>
<event>
 6    1  0.1535419E-002  0.9296410E+02  0.7546771E-02  0.1398635E+00
         -2   -1    0    0    0  501 -0.00000000000E+00  0.00000000000E+00  0.67600122760E+01  0.67600122760E+01  0.00000000000E+00 0. -1.
          2   -1    0    0  501    0  0.00000000000E+00 -0.00000000000E+00 -0.46443439247E+03  0.46443439247E+03  0.00000000000E+00 0.  1.
         23    2    1    2    0    0 -0.25016730243E+01 -0.15728689892E+02 -0.42212481562E+03  0.43224030875E+03  0.91589707336E+02 0.  0.
         11    1    3    3    0    0 -0.25234185526E+02 -0.66567982629E+01 -0.31750860055E+02  0.41099807743E+02  0.00000000000E+00 0. -1.
        -11    1    3    3    0    0  0.22732512502E+02 -0.90718916291E+01 -0.39037395557E+03  0.39114050101E+03  0.00000000000E+00 0.  1.
         22    1    1    2    0    0  0.25016730243E+01  0.15728689892E+02 -0.35549564566E+02  0.38954095991E+02  0.00000000000E+00 0.  1.
<mgrwt>
<rscale>  0 0.59808903E+02</rscale>
<asrwt>0</asrwt>
<pdfrwt beam="1">  1        2 0.71451439E-01 0.92964104E+02</pdfrwt>
<pdfrwt beam="2">  1       -2 0.10400020E-02 0.92964104E+02</pdfrwt>
<totfact> 0.11779223E+05</totfact>
</mgrwt>
</event>
<event>
 6    1  0.1535419E-002  0.9276526E+02  0.7546771E-02  0.1410576E+00
         -1   -1    0    0    0  501 -0.00000000000E+00  0.00000000000E+00  0.35032506949E+02  0.35032506949E+02  0.00000000000E+00 0.  1.
          1   -1    0    0  501    0  0.00000000000E+00 -0.00000000000E+00 -0.85689990895E+02  0.85689990895E+02  0.00000000000E+00 0. -1.
         23    2    1    2    0    0  0.12491658492E+02 -0.45201941806E+01 -0.53570777214E+02  0.10712246237E+03  0.91809150333E+02 0.  0.
         13    1    3    3    0    0 -0.39115567934E+02 -0.82289804956E+01 -0.31408746370E+02  0.50835549799E+02  0.00000000000E+00 0.  1.
        -13    1    3    3    0    0  0.51607226426E+02  0.37087863150E+01 -0.22162030844E+02  0.56286912568E+02  0.00000000000E+00 0. -1.
         22    1    1    2    0    0 -0.12491658492E+02  0.45201941806E+01  0.29132932681E+01  0.13600035477E+02  0.00000000000E+00 0. -1.
<mgrwt>
<rscale>  0 0.57065552E+02</rscale>
<asrwt>0</asrwt>
<pdfrwt beam="1">  1        1 0.13183075E-01 0.92765262E+02</pdfrwt>
<pdfrwt beam="2">  1       -1 0.53896165E-02 0.92765262E+02</pdfrwt>
<totfact> 0.59729552E+04</totfact>
</mgrwt>
</event>
<event>
 6    1  0.1535419E-002  0.9340315E+02  0.7546771E-02  0.1367997E+00
         -1   -1    0    0    0  501 -0.00000000000E+00  0.00000000000E+00  0.35115902738E+02  0.35115902738E+02  0.00000000000E+00 0.  1.
          1   -1    0    0  501    0  0.00000000000E+00 -0.00000000000E+00 -0.10882448522E+03  0.10882448522E+03  0.00000000000E+00 0. -1.
         23    2    1    2    0    0  0.20660553521E+02 -0.15486730894E+02 -0.72237631357E+02  0.11807804075E+03  0.89763305524E+02 0.  0.
         13    1    3    3    0    0 -0.10460281227E+02  0.19308362682E+02  0.95178576519E+01  0.23933657621E+02  0.00000000000E+00 0.  1.
        -13    1    3    3    0    0  0.31120834748E+02 -0.34795093577E+02 -0.81755489009E+02  0.94144383133E+02  0.00000000000E+00 0. -1.
         22    1    1    2    0    0 -0.20660553521E+02  0.15486730894E+02 -0.14709511221E+01  0.25862347202E+02  0.00000000000E+00 0. -1.
<mgrwt>
<rscale>  0 0.67727061E+02</rscale>
<asrwt>0</asrwt>
<pdfrwt beam="1">  1        1 0.16742228E-01 0.93403149E+02</pdfrwt>
<pdfrwt beam="2">  1       -1 0.54024466E-02 0.93403149E+02</pdfrwt>
<totfact> 0.43871970E+04</totfact>
</mgrwt>
</event>
<event>
 6    1  0.1535419E-002  0.8409612E+02  0.7546771E-02  0.1439718E+00
         -2   -1    0    0    0  501 -0.00000000000E+00  0.00000000000E+00  0.11119144886E+02  0.11119144886E+02  0.00000000000E+00 0.  1.
          2   -1    0    0  501    0  0.00000000000E+00 -0.00000000000E+00 -0.20515607856E+03  0.20515607856E+03  0.00000000000E+00 0. -1.
         23    2    1    2    0    0 -0.11262930743E+02  0.19281818904E+01 -0.17091271581E+03  0.19048179509E+03  0.83316182955E+02 0.  0.
         11    1    3    3    0    0 -0.42736030277E+02  0.20514719986E+02 -0.91025290775E+02  0.10262955510E+03  0.00000000000E+00 0.  1.
        -11    1    3    3    0    0  0.31473099534E+02 -0.18586538095E+02 -0.79887425033E+02  0.87852239989E+02  0.00000000000E+00 0. -1.
         22    1    1    2    0    0  0.11262930743E+02 -0.19281818904E+01 -0.23124217870E+02  0.25793428357E+02  0.00000000000E+00 0.  1.
<mgrwt>
<rscale>  0 0.51057909E+02</rscale>
<asrwt>0</asrwt>
<pdfrwt beam="1">  1        2 0.31562473E-01 0.84096123E+02</pdfrwt>
<pdfrwt beam="2">  1       -2 0.17106377E-02 0.84096123E+02</pdfrwt>
<totfact> 0.13485114E+05</totfact>
</mgrwt>
</event>
<event>
 6    1  0.1535419E-002  0.1049283E+03  0.7546771E-02  0.1307372E+00
         -1   -1    0    0    0  501 -0.00000000000E+00  0.00000000000E+00  0.87767348853E+02  0.87767348853E+02  0.00000000000E+00 0.  1.
          1   -1    0    0  501    0  0.00000000000E+00 -0.00000000000E+00 -0.10336101016E+03  0.10336101016E+03  0.00000000000E+00 0. -1.
         23    2    1    2    0    0 -0.44485854463E+02  0.27475660384E+02 -0.61436270134E+02  0.12159097378E+03  0.90972778652E+02 0.  0.
         13    1    3    3    0    0 -0.10989870166E+02 -0.97567932450E+01 -0.69347593173E+02  0.70887664227E+02  0.00000000000E+00 0. -1.
        -13    1    3    3    0    0 -0.33495984298E+02  0.37232453629E+02  0.79113230393E+01  0.50703309552E+02  0.00000000000E+00 0.  1.
         22    1    1    2    0    0  0.44485854463E+02 -0.27475660384E+02  0.45842608827E+02  0.69537385232E+02  0.00000000000E+00 0.  1.
<mgrwt>
<rscale>  0 0.88159149E+02</rscale>
<asrwt>0</asrwt>
<pdfrwt beam="1">  1        1 0.15901694E-01 0.10492831E+03</pdfrwt>
<pdfrwt beam="2">  1       -1 0.13502669E-01 0.10492831E+03</pdfrwt>
<totfact> 0.11985531E+04</totfact>
</mgrwt>
</event>
<event>
 6    1  0.1535419E-002  0.8905180E+02  0.7546771E-02  0.1360236E+00
         -2   -1    0    0    0  501 -0.00000000000E+00  0.00000000000E+00  0.58309083056E+02  0.58309083056E+02  0.00000000000E+00 0. -1.
          2   -1    0    0  501    0  0.00000000000E+00 -0.00000000000E+00 -0.78250612042E+02  0.78250612042E+02  0.00000000000E+00 0.  1.
         23    2    1    2    0    0 -0.26312309501E+01 -0.33815138693E+02 -0.39486850040E+02  0.97413730348E+02  0.82339762891E+02 0.  0.
         13    1    3    3    0    0 -0.17536326110E+01  0.10440837638E+02  0.20376363355E+02  0.22962632721E+02  0.00000000000E+00 0. -1.
        -13    1    3    3    0    0 -0.87759833911E+00 -0.44255976331E+02 -0.59863213394E+02  0.74451097626E+02  0.00000000000E+00 0.  1.
         22    1    1    2    0    0  0.26312309501E+01  0.33815138693E+02  0.19545321053E+02  0.39145964750E+02  0.00000000000E+00 0. -1.
<mgrwt>
<rscale>  0 0.69958023E+02</rscale>
<asrwt>0</asrwt>
<pdfrwt beam="1">  1        2 0.12038556E-01 0.89051803E+02</pdfrwt>
<pdfrwt beam="2">  1       -2 0.89706282E-02 0.89051803E+02</pdfrwt>
<totfact> 0.34894965E+04</totfact>
</mgrwt>
</event>
<event>
 6    1  0.1535419E-002  0.9205729E+02  0.7546771E-02  0.1427058E+00
         -4   -1    0    0    0  501 -0.00000000000E+00  0.00000000000E+00  0.13247711350E+03  0.13247711350E+03  0.00000000000E+00 0.  1.
          4   -1    0    0  501    0  0.00000000000E+00 -0.00000000000E+00 -0.20105635401E+02  0.20105635401E+02  0.00000000000E+00 0. -1.
         23    2    1    2    0    0  0.72254671561E+01  0.76798335246E+01  0.95180547994E+02  0.13241556525E+03  0.91451396847E+02 0.  0.
         11    1    3    3    0    0  0.11977906483E+02 -0.14701457517E+02 -0.12249847660E+02  0.22575691895E+02  0.00000000000E+00 0. -1.
        -11    1    3    3    0    0 -0.47524393274E+01  0.22381291042E+02  0.10743039565E+03  0.10983987335E+03  0.00000000000E+00 0.  1.
         22    1    1    2    0    0 -0.72254671561E+01 -0.76798335246E+01  0.17190930108E+02  0.20167183654E+02  0.00000000000E+00 0. -1.
<mgrwt>
<rscale>  0 0.53555060E+02</rscale>
<asrwt>0</asrwt>
<pdfrwt beam="1">  1        4 0.30931748E-02 0.92057293E+02</pdfrwt>
<pdfrwt beam="2">  1       -4 0.20381094E-01 0.92057293E+02</pdfrwt>
<totfact> 0.16239393E+04</totfact>
</mgrwt>
</event>
<event>
 6    1  0.1535419E-002  0.9160344E+02  0.7546771E-02  0.1427245E+00
         -2   -1    0    0    0  501 -0.00000000000E+00  0.00000000000E+00  0.13791567087E+02  0.13791567087E+02  0.00000000000E+00 0.  1.
          2   -1    0    0  501    0  0.00000000000E+00 -0.00000000000E+00 -0.19679619407E+03  0.19679619407E+03  0.00000000000E+00 0. -1.
         23    2    1    2    0    0 -0.96404475075E+01  0.45767569089E+01 -0.17393676846E+03  0.19658379778E+03  0.90979696622E+02 0.  0.
         11    1    3    3    0    0 -0.12178700064E+02 -0.19036676419E+02 -0.17119091515E+03  0.17267612809E+03  0.00000000000E+00 0. -1.
        -11    1    3    3    0    0  0.25382525560E+01  0.23613433328E+02 -0.27458533099E+01  0.23907669689E+02  0.00000000000E+00 0.  1.
         22    1    1    2    0    0  0.96404475075E+01 -0.45767569089E+01 -0.90678585284E+01  0.14003963376E+02  0.00000000000E+00 0.  1.
<mgrwt>
<rscale>  0 0.53517044E+02</rscale>
<asrwt>0</asrwt>
<pdfrwt beam="1">  1        2 0.30276335E-01 0.91603440E+02</pdfrwt>
<pdfrwt beam="2">  1       -2 0.21217797E-02 0.91603440E+02</pdfrwt>
<totfact> 0.10495487E+05</totfact>
</mgrwt>
</event>
<event>
 6    1  0.1535419E-002  0.9817120E+02  0.7546771E-02  0.1338734E+00
          2   -1    0    0  501    0  0.00000000000E+00  0.00000000000E+00  0.37271883357E+03  0.37271883357E+03  0.00000000000E+00 0. -1.
         -2   -1    0    0    0  501 -0.00000000000E+00 -0.00000000000E+00 -0.13029920645E+02  0.13029920645E+02  0.00000000000E+00 0.  1.
         23    2    1    2    0    0  0.35629165138E+02 -0.81462688383E+01  0.30104979701E+03  0.31665211885E+03  0.91114131634E+02 0.  0.
         11    1    3    3    0    0  0.20561952293E+02  0.34341343761E+02  0.22261979830E+03  0.22618951428E+03  0.00000000000E+00 0. -1.
        -11    1    3    3    0    0  0.15067212845E+02 -0.42487612599E+02  0.78429998711E+02  0.90462604567E+02  0.00000000000E+00 0.  1.
         22    1    1    2    0    0 -0.35629165138E+02  0.81462688383E+01  0.58639115911E+02  0.69096635369E+02  0.00000000000E+00 0.  1.
<mgrwt>
<rscale>  0 0.76684168E+02</rscale>
<asrwt>0</asrwt>
<pdfrwt beam="1">  1        2 0.57341351E-01 0.98171198E+02</pdfrwt>
<pdfrwt beam="2">  1       -2 0.20046035E-02 0.98171198E+02</pdfrwt>
<totfact> 0.58710202E+04</totfact>
</mgrwt>
</event>
<event>
 6    1  0.1535419E-002  0.9342708E+02  0.7546771E-02  0.1379166E+00
          2   -1    0    0  501    0  0.00000000000E+00  0.00000000000E+00  0.37901781603E+03  0.37901781603E+03  0.00000000000E+00 0.  1.
         -2   -1    0    0    0  501 -0.00000000000E+00 -0.00000000000E+00 -0.13551140468E+02  0.13551140468E+02  0.00000000000E+00 0. -1.
         23    2    1    2    0    0 -0.21184279686E+02  0.34684809498E+01  0.35776527597E+03  0.36976291296E+03  0.90927526341E+02 0.  0.
         13    1    3    3    0    0  0.21183776267E+02 -0.25944028160E+02  0.72374732771E+02  0.79749275343E+02  0.00000000000E+00 0. -1.
        -13    1    3    3    0    0 -0.42368055954E+02  0.29412509110E+02  0.28539054320E+03  0.29001363762E+03  0.00000000000E+00 0.  1.
         22    1    1    2    0    0  0.21184279686E+02 -0.34684809498E+01  0.77013995876E+01  0.22806043531E+02  0.00000000000E+00 0. -1.
<mgrwt>
<rscale>  0 0.64683590E+02</rscale>
<asrwt>0</asrwt>
<pdfrwt beam="1">  1        2 0.58310425E-01 0.93427079E+02</pdfrwt>
<pdfrwt beam="2">  1       -2 0.20847911E-02 0.93427079E+02</pdfrwt>
<totfact> 0.54172572E+04</totfact>
</mgrwt>
</event>
<event>
 6    1  0.1535419E-002  0.9490002E+02  0.7546771E-02  0.1416383E+00
          1   -1    0    0  501    0  0.00000000000E+00  0.00000000000E+00  0.36354411327E+03  0.36354411327E+03  0.00000000000E+00 0. -1.
         -1   -1    0    0    0  501 -0.00000000000E+00 -0.00000000000E+00 -0.77637442667E+01  0.77637442667E+01  0.00000000000E+00 0.  1.
         23    2    1    2    0    0 -0.73584898023E+01 -0.86258086798E+01  0.31973595136E+03  0.33352225194E+03  0.94220284414E+02 0.  0.
         13    1    3    3    0    0 -0.34742459579E+02 -0.40713833252E+00  0.29071363890E+03  0.29278255430E+03  0.00000000000E+00 0. -1.
        -13    1    3    3    0    0  0.27383969776E+02 -0.82186703472E+01  0.29022312467E+02  0.40739697642E+02  0.00000000000E+00 0.  1.
         22    1    1    2    0    0  0.73584898023E+01  0.86258086798E+01  0.36044417637E+02  0.37785605597E+02  0.00000000000E+00 0.  1.
<mgrwt>
<rscale>  0 0.55793623E+02</rscale>
<asrwt>0</asrwt>
<pdfrwt beam="1">  1        1 0.55929850E-01 0.94900021E+02</pdfrwt>
<pdfrwt beam="2">  1       -1 0.11944225E-02 0.94900021E+02</pdfrwt>
<totfact> 0.86670381E+04</totfact>
</mgrwt>
</event>
<event>
 6    1  0.1535419E-002  0.9376837E+02  0.7546771E-02  0.1400402E+00
          2   -1    0    0  501    0  0.00000000000E+00  0.00000000000E+00  0.85783555524E+02  0.85783555524E+02  0.00000000000E+00 0. -1.
         -2   -1    0    0    0  501 -0.00000000000E+00 -0.00000000000E+00 -0.34536095958E+02  0.34536095958E+02  0.00000000000E+00 0.  1.
         23    2    1    2    0    0  0.14559127588E+02 -0.39738320028E+01  0.44151396056E+02  0.10364291156E+03  0.92545922693E+02 0.  0.
         11    1    3    3    0    0 -0.12001279487E+02  0.23687418648E+02 -0.16951069396E+02  0.31503384980E+02  0.00000000000E+00 0.  1.
        -11    1    3    3    0    0  0.26560407075E+02 -0.27661250651E+02  0.61102465452E+02  0.72139526585E+02  0.00000000000E+00 0. -1.
         22    1    1    2    0    0 -0.14559127588E+02  0.39738320028E+01  0.70960635105E+01  0.16676739917E+02  0.00000000000E+00 0. -1.
<mgrwt>
<rscale>  0 0.59391849E+02</rscale>
<asrwt>0</asrwt>
<pdfrwt beam="1">  1        2 0.13197470E-01 0.93768371E+02</pdfrwt>
<pdfrwt beam="2">  1       -2 0.53132456E-02 0.93768371E+02</pdfrwt>
<totfact> 0.69686253E+04</totfact>
</mgrwt>
</event>
<event>
 6    1  0.1535419E-002  0.9003325E+02  0.7546771E-02  0.1389686E+00
         -2   -1    0    0    0  501 -0.00000000000E+00  0.00000000000E+00  0.31645199439E+01  0.31645199439E+01  0.00000000000E+00 0.  1.
          2   -1    0    0  501    0  0.00000000000E+00 -0.00000000000E+00 -0.17852840394E+04  0.17852840394E+04  0.00000000000E+00 0. -1.
         23    2    1    2    0    0  0.56350583320E+01  0.19426228749E+02 -0.17328678052E+04  0.17352051221E+04  0.87731712877E+02 0.  0.
         11    1    3    3    0    0  0.15216695145E+02  0.48845277830E+02 -0.13908725937E+04  0.13918131990E+04  0.00000000000E+00 0. -1.
        -11    1    3    3    0    0 -0.95816368134E+01 -0.29419049081E+02 -0.34199521143E+03  0.34339192310E+03  0.00000000000E+00 0.  1.
         22    1    1    2    0    0 -0.56350583320E+01 -0.19426228749E+02 -0.49251714306E+02  0.53243437229E+02  0.00000000000E+00 0.  1.
<mgrwt>
<rscale>  0 0.61984792E+02</rscale>
<asrwt>0</asrwt>
<pdfrwt beam="1">  1        2 0.27465992E+00 0.90033248E+02</pdfrwt>
<pdfrwt beam="2">  1       -2 0.48684774E-03 0.90033248E+02</pdfrwt>
<totfact> 0.53494191E+04</totfact>
</mgrwt>
</event>
<event>
 6    1  0.1535419E-002  0.9213876E+02  0.7546771E-02  0.1400052E+00
          3   -1    0    0  501    0  0.00000000000E+00  0.00000000000E+00  0.18034505294E+03  0.18034505294E+03  0.00000000000E+00 0. -1.
         -3   -1    0    0    0  501 -0.00000000000E+00 -0.00000000000E+00 -0.16262472531E+02  0.16262472531E+02  0.00000000000E+00 0.  1.
         23    2    1    2    0    0  0.11896835646E+02  0.10691398082E+02  0.13561636444E+03  0.16395532581E+03  0.90739792071E+02 0.  0.
         11    1    3    3    0    0 -0.26865504917E+02 -0.15938162670E+02  0.15317645553E+02  0.34790956425E+02  0.00000000000E+00 0.  1.
        -11    1    3    3    0    0  0.38762340562E+02  0.26629560752E+02  0.12029871889E+03  0.12916436938E+03  0.00000000000E+00 0. -1.
         22    1    1    2    0    0 -0.11896835646E+02 -0.10691398082E+02  0.28466215970E+02  0.32652199665E+02  0.00000000000E+00 0. -1.
<mgrwt>
<rscale>  0 0.59474112E+02</rscale>
<asrwt>0</asrwt>
<pdfrwt beam="1">  1        3 0.27745391E-01 0.92138757E+02</pdfrwt>
<pdfrwt beam="2">  1       -3 0.25019190E-02 0.92138757E+02</pdfrwt>
<totfact> 0.17226815E+04</totfact>
</mgrwt>
</event>
<event>
 6    1  0.1535419E-002  0.9873532E+02  0.7546771E-02  0.1334561E+00
          2   -1    0    0  501    0  0.00000000000E+00  0.00000000000E+00  0.57978444203E+03  0.57978444203E+03  0.00000000000E+00 0.  1.
         -2   -1    0    0    0  501 -0.00000000000E+00 -0.00000000000E+00 -0.82829675043E+01  0.82829675043E+01  0.00000000000E+00 0. -1.
         23    2    1    2    0    0  0.36483865666E+02 -0.12707725079E+02  0.37336253277E+03  0.38619715672E+03  0.90863107215E+02 0.  0.
         13    1    3    3    0    0  0.46679762446E+02 -0.45007169182E+02  0.24906309807E+03  0.25736563935E+03  0.00000000000E+00 0.  1.
        -13    1    3    3    0    0 -0.10195896780E+02  0.32299444103E+02  0.12429943471E+03  0.12883151737E+03  0.00000000000E+00 0. -1.
         22    1    1    2    0    0 -0.36483865666E+02  0.12707725079E+02  0.19813894175E+03  0.20187025281E+03  0.00000000000E+00 0.  1.
<mgrwt>
<rscale>  0 0.78090072E+02</rscale>
<asrwt>0</asrwt>
<pdfrwt beam="1">  1        2 0.89197574E-01 0.98735318E+02</pdfrwt>
<pdfrwt beam="2">  1       -2 0.12743032E-02 0.98735318E+02</pdfrwt>
<totfact> 0.69867903E+04</totfact>
</mgrwt>
</event>
<event>
 6    1  0.1535419E-002  0.9383915E+02  0.7546771E-02  0.1413339E+00
          1   -1    0    0  501    0  0.00000000000E+00  0.00000000000E+00  0.30652761948E+03  0.30652761948E+03  0.00000000000E+00 0. -1.
         -1   -1    0    0    0  501 -0.00000000000E+00 -0.00000000000E+00 -0.11817820894E+02  0.11817820894E+02  0.00000000000E+00 0.  1.
         23    2    1    2    0    0 -0.55473748392E+01  0.10970416421E+02  0.29061260667E+03  0.30538741639E+03  0.93030444091E+02 0.  0.
         11    1    3    3    0    0 -0.42640520751E+02  0.19590669360E+02  0.93329307343E+02  0.10446228001E+03  0.00000000000E+00 0. -1.
        -11    1    3    3    0    0  0.37093145912E+02 -0.86202529395E+01  0.19728329933E+03  0.20092513638E+03  0.00000000000E+00 0.  1.
         22    1    1    2    0    0  0.55473748392E+01 -0.10970416421E+02  0.40971919163E+01  0.12958023987E+02  0.00000000000E+00 0.  1.
<mgrwt>
<rscale>  0 0.56455275E+02</rscale>
<asrwt>0</asrwt>
<pdfrwt beam="1">  1        1 0.47158089E-01 0.93839155E+02</pdfrwt>
<pdfrwt beam="2">  1       -1 0.18181265E-02 0.93839155E+02</pdfrwt>
<totfact> 0.58754343E+04</totfact>
</mgrwt>
</event>
<event>
 6    1  0.1535419E-002  0.9169706E+02  0.7546771E-02  0.1415047E+00
         -2   -1    0    0    0  501 -0.00000000000E+00  0.00000000000E+00  0.10172054780E+02  0.10172054780E+02  0.00000000000E+00 0.  1.
          2   -1    0    0  501    0  0.00000000000E+00 -0.00000000000E+00 -0.27626667103E+03  0.27626667103E+03  0.00000000000E+00 0. -1.
         23    2    1    2    0    0 -0.14786605173E+01  0.12745163662E+02 -0.24663794593E+03  0.26313233927E+03  0.90794966614E+02 0.  0.
         13    1    3    3    0    0 -0.54911648869E+00  0.81347346210E+01 -0.25414387599E+03  0.25427462544E+03  0.00000000000E+00 0. -1.
        -13    1    3    3    0    0 -0.92954402858E+00  0.46104290414E+01  0.75059300680E+01  0.88577138265E+01  0.00000000000E+00 0.  1.
         22    1    1    2    0    0  0.14786605173E+01 -0.12745163662E+02 -0.19456670323E+02  0.23306386544E+02  0.00000000000E+00 0. -1.
<mgrwt>
<rscale>  0 0.56082680E+02</rscale>
<asrwt>0</asrwt>
<pdfrwt beam="1">  1        2 0.42502560E-01 0.91697064E+02</pdfrwt>
<pdfrwt beam="2">  1       -2 0.15649317E-02 0.91697064E+02</pdfrwt>
<totfact> 0.11349181E+05</totfact>
</mgrwt>
</event>
<event>
 6    1  0.1535419E-002  0.1062067E+03  0.7546771E-02  0.1396824E+00
          2   -1    0    0  501    0  0.00000000000E+00  0.00000000000E+00  0.84433502848E+03  0.84433502848E+03  0.00000000000E+00 0.  1.
         -2   -1    0    0    0  501 -0.00000000000E+00 -0.00000000000E+00 -0.43375109080E+01  0.43375109080E+01  0.00000000000E+00 0. -1.
         23    2    1    2    0    0 -0.98851433954E+01 -0.48088778306E+01  0.80535180158E+03  0.81232467834E+03  0.10563625027E+03 0.  0.
         13    1    3    3    0    0  0.44947757588E+02  0.69195976765E+01  0.48261377302E+03  0.48475172579E+03  0.00000000000E+00 0. -1.
        -13    1    3    3    0    0 -0.54832900984E+02 -0.11728475507E+02  0.32273802856E+03  0.32757295255E+03  0.00000000000E+00 0.  1.
         22    1    1    2    0    0  0.98851433954E+01  0.48088778306E+01  0.34645715991E+02  0.36347861044E+02  0.00000000000E+00 0.  1.
<mgrwt>
<rscale>  0 0.60240813E+02</rscale>
<asrwt>0</asrwt>
<pdfrwt beam="1">  1        2 0.12989757E+00 0.10620668E+03</pdfrwt>
<pdfrwt beam="2">  1       -2 0.66731004E-03 0.10620668E+03</pdfrwt>
<totfact> 0.11343534E+05</totfact>
</mgrwt>
</event>
<event>
 6    1  0.1535419E-002  0.9081385E+02  0.7546771E-02  0.1426350E+00
         -2   -1    0    0    0  501 -0.00000000000E+00  0.00000000000E+00  0.55935695220E+01  0.55935695220E+01  0.00000000000E+00 0.  1.
          2   -1    0    0  501    0  0.00000000000E+00 -0.00000000000E+00 -0.47282700298E+03  0.47282700298E+03  0.00000000000E+00 0. -1.
         23    2    1    2    0    0 -0.90263608421E+01 -0.64649243478E+01 -0.43338958646E+03  0.44280208830E+03  0.90132598533E+02 0.  0.
         13    1    3    3    0    0 -0.18425062930E+02  0.79778398997E+01 -0.42123930092E+03  0.42171753285E+03  0.00000000000E+00 0. -1.
        -13    1    3    3    0    0  0.93987020883E+01 -0.14442764248E+02 -0.12150285542E+02  0.21084555457E+02  0.00000000000E+00 0.  1.
         22    1    1    2    0    0  0.90263608421E+01  0.64649243478E+01 -0.33843846997E+02  0.35618484196E+02  0.00000000000E+00 0. -1.
<mgrwt>
<rscale>  0 0.53699648E+02</rscale>
<asrwt>0</asrwt>
<pdfrwt beam="1">  1        2 0.72742616E-01 0.90813852E+02</pdfrwt>
<pdfrwt beam="2">  1       -2 0.86054915E-03 0.90813852E+02</pdfrwt>
<totfact> 0.15052444E+05</totfact>
</mgrwt>
</event>
<event>
 6    1  0.1535419E-002  0.9803945E+02  0.7546771E-02  0.1379043E+00
          2   -1    0    0  501    0  0.00000000000E+00  0.00000000000E+00  0.52558561492E+03  0.52558561492E+03  0.00000000000E+00 0. -1.
         -2   -1    0    0    0  501 -0.00000000000E+00 -0.00000000000E+00 -0.68260330634E+01  0.68260330634E+01  0.00000000000E+00 0.  1.
         23    2    1    2    0    0  0.18572233727E+02 -0.12482621392E+01  0.47217654951E+03  0.48224726893E+03  0.96256160589E+02 0.  0.
         13    1    3    3    0    0  0.17154160938E+02  0.19369444952E+02  0.30116740308E+02  0.39704643078E+02  0.00000000000E+00 0.  1.
        -13    1    3    3    0    0  0.14180727894E+01 -0.20617707091E+02  0.44205980921E+03  0.44254262585E+03  0.00000000000E+00 0. -1.
         22    1    1    2    0    0 -0.18572233727E+02  0.12482621392E+01  0.46583032339E+02  0.50164379054E+02  0.00000000000E+00 0.  1.
<mgrwt>
<rscale>  0 0.64715957E+02</rscale>
<asrwt>0</asrwt>
<pdfrwt beam="1">  1        2 0.80859294E-01 0.98039454E+02</pdfrwt>
<pdfrwt beam="2">  1       -2 0.10501593E-02 0.98039454E+02</pdfrwt>
<totfact> 0.10241684E+05</totfact>
</mgrwt>
</event>
<event>
 6    1  0.1535419E-002  0.9975775E+02  0.7546771E-02  0.1347197E+00
         -2   -1    0    0    0  501 -0.00000000000E+00  0.00000000000E+00  0.31363745415E+02  0.31363745415E+02  0.00000000000E+00 0.  1.
          2   -1    0    0  501    0  0.00000000000E+00 -0.00000000000E+00 -0.14027055336E+03  0.14027055336E+03  0.00000000000E+00 0. -1.
         23    2    1    2    0    0 -0.53138002990E+01  0.29629046447E+02 -0.97360756626E+02  0.13939413488E+03  0.95107786440E+02 0.  0.
         13    1    3    3    0    0  0.10449195470E+02  0.83141799060E+01  0.17217578919E+02  0.21788903078E+02  0.00000000000E+00 0.  1.
        -13    1    3    3    0    0 -0.15762995769E+02  0.21314866541E+02 -0.11457833555E+03  0.11760523180E+03  0.00000000000E+00 0. -1.
         22    1    1    2    0    0  0.53138002990E+01 -0.29629046447E+02 -0.11546051324E+02  0.32240163898E+02  0.00000000000E+00 0. -1.
<mgrwt>
<rscale>  0 0.73936348E+02</rscale>
<asrwt>0</asrwt>
<pdfrwt beam="1">  1        2 0.21580085E-01 0.99757746E+02</pdfrwt>
<pdfrwt beam="2">  1       -2 0.48251916E-02 0.99757746E+02</pdfrwt>
<totfact> 0.46254962E+04</totfact>
</mgrwt>
</event>
<event>
 6    1  0.1535419E-002  0.9207642E+02  0.7546771E-02  0.1401924E+00
          2   -1    0    0  501    0  0.00000000000E+00  0.00000000000E+00  0.13079029145E+03  0.13079029145E+03  0.00000000000E+00 0.  1.
         -2   -1    0    0    0  501 -0.00000000000E+00 -0.00000000000E+00 -0.29594934989E+02  0.29594934989E+02  0.00000000000E+00 0. -1.
         23    2    1    2    0    0 -0.15500508935E+02 -0.13588020641E+01  0.10924006336E+03  0.14286867913E+03  0.90752167538E+02 0.  0.
         13    1    3    3    0    0 -0.49627104608E+02 -0.17414338003E+01  0.33804137507E+02  0.60071639033E+02  0.00000000000E+00 0. -1.
        -13    1    3    3    0    0  0.34126595673E+02  0.38263173627E+00  0.75435925857E+02  0.82797040099E+02  0.00000000000E+00 0.  1.
         22    1    1    2    0    0  0.15500508935E+02  0.13588020641E+01 -0.80447069059E+01  0.17516547305E+02  0.00000000000E+00 0.  1.
<mgrwt>
<rscale>  0 0.59035521E+02</rscale>
<asrwt>0</asrwt>
<pdfrwt beam="1">  1        2 0.20121583E-01 0.92076425E+02</pdfrwt>
<pdfrwt beam="2">  1       -2 0.45530670E-02 0.92076425E+02</pdfrwt>
<totfact> 0.53923118E+04</totfact>
</mgrwt>
</event>
<event>
 6    1  0.1535419E-002  0.9126417E+02  0.7546771E-02  0.1422092E+00
          2   -1    0    0  501    0  0.00000000000E+00  0.00000000000E+00  0.10459215947E+03  0.10459215947E+03  0.00000000000E+00 0. -1.
         -2   -1    0    0    0  501 -0.00000000000E+00 -0.00000000000E+00 -0.27598984263E+02  0.27598984263E+02  0.00000000000E+00 0.  1.
         23    2    1    2    0    0  0.69023895112E+01  0.94161891434E+01  0.78549851906E+02  0.12041273801E+03  0.90514311809E+02 0.  0.
         11    1    3    3    0    0  0.80524370086E+01  0.32943985533E+01  0.98822497626E+02  0.99204742027E+02  0.00000000000E+00 0. -1.
        -11    1    3    3    0    0 -0.11500474974E+01  0.61217905901E+01 -0.20272645719E+02  0.21207995986E+02  0.00000000000E+00 0.  1.
         22    1    1    2    0    0 -0.69023895112E+01 -0.94161891434E+01 -0.15566767004E+01  0.11778405720E+02  0.00000000000E+00 0.  1.
<mgrwt>
<rscale>  0 0.54580842E+02</rscale>
<asrwt>0</asrwt>
<pdfrwt beam="1">  1        2 0.16091101E-01 0.91264167E+02</pdfrwt>
<pdfrwt beam="2">  1       -2 0.42459976E-02 0.91264167E+02</pdfrwt>
<totfact> 0.76890173E+04</totfact>
</mgrwt>
</event>
<event>
 6    1  0.1535419E-002  0.8620721E+02  0.7546771E-02  0.1432048E+00
          2   -1    0    0  501    0  0.00000000000E+00  0.00000000000E+00  0.11296504786E+03  0.11296504786E+03  0.00000000000E+00 0.  1.
         -2   -1    0    0    0  501 -0.00000000000E+00 -0.00000000000E+00 -0.21306045925E+02  0.21306045925E+02  0.00000000000E+00 0. -1.
         23    2    1    2    0    0  0.77737703045E+01 -0.90152747477E+01  0.79979022349E+02  0.11759390557E+03  0.85381355862E+02 0.  0.
         11    1    3    3    0    0 -0.11630312947E+02 -0.40154260896E+02  0.17884034822E+02  0.45469413333E+02  0.00000000000E+00 0. -1.
        -11    1    3    3    0    0  0.19404083251E+02  0.31138986148E+02  0.62094987527E+02  0.72124492241E+02  0.00000000000E+00 0.  1.
         22    1    1    2    0    0 -0.77737703045E+01  0.90152747477E+01  0.11679979590E+02  0.16677188214E+02  0.00000000000E+00 0. -1.
<mgrwt>
<rscale>  0 0.52551059E+02</rscale>
<asrwt>0</asrwt>
<pdfrwt beam="1">  1        2 0.17379238E-01 0.86207207E+02</pdfrwt>
<pdfrwt beam="2">  1       -2 0.32778533E-02 0.86207207E+02</pdfrwt>
<totfact> 0.10198500E+05</totfact>
</mgrwt>
</event>
<event>
 6    1  0.1535419E-002  0.9415827E+02  0.7546771E-02  0.1367085E+00
         -2   -1    0    0    0  501 -0.00000000000E+00  0.00000000000E+00  0.35528168105E+01  0.35528168105E+01  0.00000000000E+00 0.  1.
          2   -1    0    0  501    0  0.00000000000E+00 -0.00000000000E+00 -0.13204600919E+04  0.13204600919E+04  0.00000000000E+00 0. -1.
         23    2    1    2    0    0 -0.25494824815E+02 -0.21973227214E+01 -0.12248930328E+04  0.12285067042E+04  0.90614381299E+02 0.  0.
         13    1    3    3    0    0  0.31804157691E+02  0.57063662809E+01 -0.62405119583E+03  0.62488715947E+03  0.00000000000E+00 0. -1.
        -13    1    3    3    0    0 -0.57298982506E+02 -0.79036890023E+01 -0.60084183698E+03  0.60361954472E+03  0.00000000000E+00 0.  1.
         22    1    1    2    0    0  0.25494824815E+02  0.21973227214E+01 -0.92014242304E+02  0.95506204543E+02  0.00000000000E+00 0. -1.
<mgrwt>
<rscale>  0 0.67984301E+02</rscale>
<asrwt>0</asrwt>
<pdfrwt beam="1">  1        2 0.20314781E+00 0.94158273E+02</pdfrwt>
<pdfrwt beam="2">  1       -2 0.54658692E-03 0.94158273E+02</pdfrwt>
<totfact> 0.78891508E+04</totfact>
</mgrwt>
</event>
<event>
 6    1  0.1535419E-002  0.9515346E+02  0.7546771E-02  0.1389713E+00
         -4   -1    0    0    0  501 -0.00000000000E+00  0.00000000000E+00  0.19659159311E+02  0.19659159311E+02  0.00000000000E+00 0.  1.
          4   -1    0    0  501    0  0.00000000000E+00 -0.00000000000E+00 -0.16679573569E+03  0.16679573569E+03  0.00000000000E+00 0. -1.
         23    2    1    2    0    0  0.20419205202E+01  0.17004847599E+02 -0.13615551497E+03  0.16610992041E+03  0.93599397016E+02 0.  0.
         11    1    3    3    0    0  0.28795309041E+02 -0.29598249013E+02 -0.63368850982E+02  0.75636217794E+02  0.00000000000E+00 0. -1.
        -11    1    3    3    0    0 -0.26753388521E+02  0.46603096612E+02 -0.72786663990E+02  0.90473702621E+02  0.00000000000E+00 0.  1.
         22    1    1    2    0    0 -0.20419205202E+01 -0.17004847599E+02 -0.10981061410E+02  0.20344974587E+02  0.00000000000E+00 0. -1.
<mgrwt>
<rscale>  0 0.61978177E+02</rscale>
<asrwt>0</asrwt>
<pdfrwt beam="1">  1        4 0.25660882E-01 0.95153462E+02</pdfrwt>
<pdfrwt beam="2">  1       -4 0.30244861E-02 0.95153462E+02</pdfrwt>
<totfact> 0.11188044E+04</totfact>
</mgrwt>
</event>
<event>
 6    1  0.1535419E-002  0.9354091E+02  0.7546771E-02  0.1392488E+00
          2   -1    0    0  501    0  0.00000000000E+00  0.00000000000E+00  0.26451790168E+03  0.26451790168E+03  0.00000000000E+00 0. -1.
         -2   -1    0    0    0  501 -0.00000000000E+00 -0.00000000000E+00 -0.25497967661E+02  0.25497967661E+02  0.00000000000E+00 0.  1.
         23    2    1    2    0    0 -0.14479549280E+02  0.93628783191E+01  0.25176066017E+03  0.26857649107E+03  0.91937917702E+02 0.  0.
         13    1    3    3    0    0 -0.96596964987E+01  0.45470196867E+02  0.19968714223E+03  0.20502634785E+03  0.00000000000E+00 0. -1.
        -13    1    3    3    0    0 -0.48198527809E+01 -0.36107318548E+02  0.52073517934E+02  0.63550143222E+02  0.00000000000E+00 0.  1.
         22    1    1    2    0    0  0.14479549280E+02 -0.93628783191E+01 -0.12740726148E+02  0.21439378268E+02  0.00000000000E+00 0.  1.
<mgrwt>
<rscale>  0 0.61292079E+02</rscale>
<asrwt>0</asrwt>
<pdfrwt beam="1">  1        2 0.40695060E-01 0.93540908E+02</pdfrwt>
<pdfrwt beam="2">  1       -2 0.39227644E-02 0.93540908E+02</pdfrwt>
<totfact> 0.31508611E+04</totfact>
</mgrwt>
</event>
<event>
 6    1  0.1535419E-002  0.9691204E+02  0.7546771E-02  0.1367556E+00
          1   -1    0    0  501    0  0.00000000000E+00  0.00000000000E+00  0.31124602069E+02  0.31124602069E+02  0.00000000000E+00 0. -1.
         -1   -1    0    0    0  501 -0.00000000000E+00 -0.00000000000E+00 -0.12623833559E+03  0.12623833559E+03  0.00000000000E+00 0.  1.
         23    2    1    2    0    0  0.75626074116E+01 -0.22023835776E+02 -0.56240524277E+02  0.11204882540E+03  0.94072845862E+02 0.  0.
         11    1    3    3    0    0  0.19097741805E+02  0.25179004265E+02 -0.55010050290E+02  0.63441403127E+02  0.00000000000E+00 0.  1.
        -11    1    3    3    0    0 -0.11535134394E+02 -0.47202840041E+02 -0.12304739868E+01  0.48607422269E+02  0.00000000000E+00 0. -1.
         22    1    1    2    0    0 -0.75626074116E+01  0.22023835776E+02 -0.38873209244E+02  0.45314112262E+02  0.00000000000E+00 0. -1.
<mgrwt>
<rscale>  0 0.67851190E+02</rscale>
<asrwt>0</asrwt>
<pdfrwt beam="1">  1        1 0.47884002E-02 0.96912036E+02</pdfrwt>
<pdfrwt beam="2">  1       -1 0.19421283E-01 0.96912036E+02</pdfrwt>
<totfact> 0.32854143E+04</totfact>
</mgrwt>
</event>
<event>
 6    1  0.1535419E-002  0.9050410E+02  0.7546771E-02  0.1424384E+00
          2   -1    0    0  501    0  0.00000000000E+00  0.00000000000E+00  0.44168445902E+03  0.44168445902E+03  0.00000000000E+00 0. -1.
         -2   -1    0    0    0  501 -0.00000000000E+00 -0.00000000000E+00 -0.74049758476E+01  0.74049758476E+01  0.00000000000E+00 0.  1.
         23    2    1    2    0    0  0.10722944891E+02 -0.43159100373E+01  0.42421823227E+03  0.43376502962E+03  0.89762930551E+02 0.  0.
         13    1    3    3    0    0 -0.23313432957E+02  0.60492972549E+00  0.36137983612E+03  0.36213156180E+03  0.00000000000E+00 0. -1.
        -13    1    3    3    0    0  0.34036377848E+02 -0.49208397628E+01  0.62838396152E+02  0.71633467820E+02  0.00000000000E+00 0.  1.
         22    1    1    2    0    0 -0.10722944891E+02  0.43159100373E+01  0.10061250901E+02  0.15324405250E+02  0.00000000000E+00 0. -1.
<mgrwt>
<rscale>  0 0.54104141E+02</rscale>
<asrwt>0</asrwt>
<pdfrwt beam="1">  1        2 0.67951435E-01 0.90504101E+02</pdfrwt>
<pdfrwt beam="2">  1       -2 0.11392274E-02 0.90504101E+02</pdfrwt>
<totfact> 0.10877761E+05</totfact>
</mgrwt>
</event>
<event>
 6    1  0.1535419E-002  0.9287166E+02  0.7546771E-02  0.1427301E+00
          1   -1    0    0  501    0  0.00000000000E+00  0.00000000000E+00  0.29198138116E+03  0.29198138116E+03  0.00000000000E+00 0. -1.
         -1   -1    0    0    0  501 -0.00000000000E+00 -0.00000000000E+00 -0.10808117607E+02  0.10808117607E+02  0.00000000000E+00 0.  1.
         23    2    1    2    0    0 -0.28922734764E+01 -0.98143929219E+01  0.27623368114E+03  0.29142785150E+03  0.92306329550E+02 0.  0.
         11    1    3    3    0    0 -0.46436590992E+02  0.12726428992E+01  0.11440038003E+03  0.12347235947E+03  0.00000000000E+00 0.  1.
        -11    1    3    3    0    0  0.43544317515E+02 -0.11087035821E+02  0.16183330112E+03  0.16795549203E+03  0.00000000000E+00 0. -1.
         22    1    1    2    0    0  0.28922734764E+01  0.98143929219E+01  0.49395824048E+01  0.11361647267E+02  0.00000000000E+00 0. -1.
<mgrwt>
<rscale>  0 0.53505608E+02</rscale>
<asrwt>0</asrwt>
<pdfrwt beam="1">  1        1 0.44920207E-01 0.92871664E+02</pdfrwt>
<pdfrwt beam="2">  1       -1 0.16627875E-02 0.92871664E+02</pdfrwt>
<totfact> 0.70706880E+04</totfact>
</mgrwt>
</event>
<event>
 6    1  0.1535419E-002  0.9415534E+02  0.7546771E-02  0.1370238E+00
          2   -1    0    0  501    0  0.00000000000E+00  0.00000000000E+00  0.59858319103E+02  0.59858319103E+02  0.00000000000E+00 0. -1.
         -2   -1    0    0    0  501 -0.00000000000E+00 -0.00000000000E+00 -0.75441758355E+02  0.75441758355E+02  0.00000000000E+00 0.  1.
         23    2    1    2    0    0 -0.46345623636E+01  0.23841094236E+02  0.15950915035E+02  0.95496906189E+02  0.90968953267E+02 0.  0.
         11    1    3    3    0    0 -0.71114490929E+01  0.58647073755E+02  0.12908689460E+02  0.60470540198E+02  0.00000000000E+00 0. -1.
        -11    1    3    3    0    0  0.24768867293E+01 -0.34805979519E+02  0.30422255754E+01  0.35026365991E+02  0.00000000000E+00 0.  1.
         22    1    1    2    0    0  0.46345623636E+01 -0.23841094236E+02 -0.31534354288E+02  0.39803171269E+02  0.00000000000E+00 0.  1.
<mgrwt>
<rscale>  0 0.67100983E+02</rscale>
<asrwt>0</asrwt>
<pdfrwt beam="1">  1        2 0.92089722E-02 0.94155337E+02</pdfrwt>
<pdfrwt beam="2">  1       -2 0.11606424E-01 0.94155337E+02</pdfrwt>
<totfact> 0.32491080E+04</totfact>
</mgrwt>
</event>
<event>
 6    1  0.1535419E-002  0.9237300E+02  0.7546771E-02  0.1375679E+00
         -3   -1    0    0    0  501 -0.00000000000E+00  0.00000000000E+00  0.22064735941E+03  0.22064735941E+03  0.00000000000E+00 0.  1.
          3   -1    0    0  501    0  0.00000000000E+00 -0.00000000000E+00 -0.21001391872E+02  0.21001391872E+02  0.00000000000E+00 0. -1.
         23    2    1    2    0    0 -0.23254789602E+02 -0.34858519540E+01  0.88093871688E+02  0.12764521409E+03  0.89329916871E+02 0.  0.
         13    1    3    3    0    0  0.17805791741E+02  0.28733767551E+02  0.13048076645E+02  0.36234347260E+02  0.00000000000E+00 0. -1.
        -13    1    3    3    0    0 -0.41060581344E+02 -0.32219619505E+02  0.75045795043E+02  0.91410866832E+02  0.00000000000E+00 0.  1.
         22    1    1    2    0    0  0.23254789602E+02  0.34858519540E+01  0.11155209585E+03  0.11400353719E+03  0.00000000000E+00 0. -1.
<mgrwt>
<rscale>  0 0.65613495E+02</rscale>
<asrwt>0</asrwt>
<pdfrwt beam="1">  1        3 0.32309835E-02 0.92372996E+02</pdfrwt>
<pdfrwt beam="2">  1       -3 0.33945746E-01 0.92372996E+02</pdfrwt>
<totfact> 0.80459597E+03</totfact>
</mgrwt>
</event>
<event>
 6    1  0.1535419E-002  0.8829443E+02  0.7546771E-02  0.1432039E+00
          4   -1    0    0  501    0  0.00000000000E+00  0.00000000000E+00  0.93894629875E+01  0.93894629875E+01  0.00000000000E+00 0. -1.
         -4   -1    0    0    0  501 -0.00000000000E+00 -0.00000000000E+00 -0.26324143513E+03  0.26324143513E+03  0.00000000000E+00 0.  1.
         23    2    1    2    0    0  0.50783130492E+01  0.98489526524E+01 -0.22253157995E+03  0.23940804305E+03  0.87596323382E+02 0.  0.
         11    1    3    3    0    0 -0.19887888720E+02 -0.24832305689E+02 -0.35996726184E+02  0.48040980626E+02  0.00000000000E+00 0. -1.
        -11    1    3    3    0    0  0.24966201770E+02  0.34681258341E+02 -0.18653485377E+03  0.19136706242E+03  0.00000000000E+00 0.  1.
         22    1    1    2    0    0 -0.50783130492E+01 -0.98489526524E+01 -0.31320392190E+02  0.33222855066E+02  0.00000000000E+00 0.  1.
<mgrwt>
<rscale>  0 0.52552801E+02</rscale>
<asrwt>0</asrwt>
<pdfrwt beam="1">  1        4 0.14445327E-02 0.88294434E+02</pdfrwt>
<pdfrwt beam="2">  1       -4 0.40498685E-01 0.88294434E+02</pdfrwt>
<totfact> 0.14289151E+04</totfact>
</mgrwt>
</event>
<event>
 6    1  0.1535419E-002  0.1121518E+03  0.7546771E-02  0.1385797E+00
          2   -1    0    0  501    0  0.00000000000E+00  0.00000000000E+00  0.73000543560E+03  0.73000543560E+03  0.00000000000E+00 0. -1.
         -2   -1    0    0    0  501 -0.00000000000E+00 -0.00000000000E+00 -0.11160685286E+02  0.11160685286E+02  0.00000000000E+00 0.  1.
         23    2    1    2    0    0 -0.63046856464E+01 -0.91864329235E+01  0.72112448039E+03  0.72979348793E+03  0.11159694977E+03 0.  0.
         13    1    3    3    0    0  0.37580233987E+02 -0.10354999321E+02  0.59446601749E+03  0.59574268435E+03  0.00000000000E+00 0. -1.
        -13    1    3    3    0    0 -0.43884919633E+02  0.11685663974E+01  0.12665846290E+03  0.13405080358E+03  0.00000000000E+00 0.  1.
         22    1    1    2    0    0  0.63046856464E+01  0.91864329235E+01 -0.22797300801E+01  0.11372632949E+02  0.00000000000E+00 0. -1.
<mgrwt>
<rscale>  0 0.62964156E+02</rscale>
<asrwt>0</asrwt>
<pdfrwt beam="1">  1        2 0.11230849E+00 0.11215177E+03</pdfrwt>
<pdfrwt beam="2">  1       -2 0.17170291E-02 0.11215177E+03</pdfrwt>
<totfact> 0.35484333E+04</totfact>
</mgrwt>
</event>
<event>
 6    1  0.1535419E-002  0.9554199E+02  0.7546771E-02  0.1361941E+00
         -2   -1    0    0    0  501 -0.00000000000E+00  0.00000000000E+00  0.62264813765E+01  0.62264813765E+01  0.00000000000E+00 0.  1.
          2   -1    0    0  501    0  0.00000000000E+00 -0.00000000000E+00 -0.79021767161E+03  0.79021767161E+03  0.00000000000E+00 0. -1.
         23    2    1    2    0    0 -0.26646609610E+02  0.15165985520E+01 -0.72990137431E+03  0.73612790260E+03  0.91738382812E+02 0.  0.
         11    1    3    3    0    0 -0.54501862567E+02 -0.21792812932E+02 -0.48735206857E+03  0.49087413708E+03  0.00000000000E+00 0. -1.
        -11    1    3    3    0    0  0.27855252957E+02  0.23309411484E+02 -0.24254930575E+03  0.24525376551E+03  0.00000000000E+00 0.  1.
         22    1    1    2    0    0  0.26646609610E+02 -0.15165985520E+01 -0.54089815919E+02  0.60316250389E+02  0.00000000000E+00 0.  1.
<mgrwt>
<rscale>  0 0.69459522E+02</rscale>
<asrwt>0</asrwt>
<pdfrwt beam="1">  1        2 0.12157200E+00 0.95541995E+02</pdfrwt>
<pdfrwt beam="2">  1       -2 0.95791984E-03 0.95541995E+02</pdfrwt>
<totfact> 0.72846288E+04</totfact>
</mgrwt>
</event>
<event>
 6    1  0.1535419E-002  0.9398122E+02  0.7546771E-02  0.1395156E+00
          2   -1    0    0  501    0  0.00000000000E+00  0.00000000000E+00  0.15872085429E+03  0.15872085429E+03  0.00000000000E+00 0. -1.
         -2   -1    0    0    0  501 -0.00000000000E+00 -0.00000000000E+00 -0.23147876269E+02  0.23147876269E+02  0.00000000000E+00 0.  1.
         23    2    1    2    0    0  0.15178107222E+02  0.59208155570E+01  0.13630037182E+03  0.16556044746E+03  0.92558302766E+02 0.  0.
         13    1    3    3    0    0 -0.15522287362E+02  0.20929121190E+02  0.12768764894E+03  0.13031924344E+03  0.00000000000E+00 0. -1.
        -13    1    3    3    0    0  0.30700394584E+02 -0.15008305633E+02  0.86127228749E+01  0.35241204022E+02  0.00000000000E+00 0.  1.
         22    1    1    2    0    0 -0.15178107222E+02 -0.59208155570E+01 -0.72739379972E+00  0.16308283093E+02  0.00000000000E+00 0.  1.
<mgrwt>
<rscale>  0 0.60642176E+02</rscale>
<asrwt>0</asrwt>
<pdfrwt beam="1">  1        2 0.24418592E-01 0.93981224E+02</pdfrwt>
<pdfrwt beam="2">  1       -2 0.35612118E-02 0.93981224E+02</pdfrwt>
<totfact> 0.62688774E+04</totfact>
</mgrwt>
</event>
<event>
 6    1  0.1535419E-002  0.9675729E+02  0.7546771E-02  0.1357836E+00
         -1   -1    0    0    0  501 -0.00000000000E+00  0.00000000000E+00  0.50876275631E+01  0.50876275631E+01  0.00000000000E+00 0.  1.
          1   -1    0    0  501    0  0.00000000000E+00 -0.00000000000E+00 -0.77503727827E+03  0.77503727827E+03  0.00000000000E+00 0. -1.
         23    2    1    2    0    0 -0.17226525853E+02 -0.21476985615E+02 -0.64166791136E+03  0.64892193805E+03  0.92757528618E+02 0.  0.
         11    1    3    3    0    0  0.19660285322E+01  0.22971944289E+02 -0.47656322822E+02  0.52940538319E+02  0.00000000000E+00 0.  1.
        -11    1    3    3    0    0 -0.19192554385E+02 -0.44448929903E+02 -0.59401158853E+03  0.59598139973E+03  0.00000000000E+00 0. -1.
         22    1    1    2    0    0  0.17226525853E+02  0.21476985615E+02 -0.12828173935E+03  0.13120296778E+03  0.00000000000E+00 0.  1.
<mgrwt>
<rscale>  0 0.70667940E+02</rscale>
<asrwt>0</asrwt>
<pdfrwt beam="1">  1        1 0.11923655E+00 0.96757290E+02</pdfrwt>
<pdfrwt beam="2">  1       -1 0.78271163E-03 0.96757290E+02</pdfrwt>
<totfact> 0.58168385E+04</totfact>
</mgrwt>
</event>
<event>
 6    1  0.1535419E-002  0.9031292E+02  0.7546771E-02  0.1414108E+00
          3   -1    0    0  501    0  0.00000000000E+00  0.00000000000E+00  0.40706635015E+02  0.40706635015E+02  0.00000000000E+00 0. -1.
         -3   -1    0    0    0  501 -0.00000000000E+00 -0.00000000000E+00 -0.66981193211E+02  0.66981193211E+02  0.00000000000E+00 0.  1.
         23    2    1    2    0    0 -0.10378128288E+02  0.88305206139E+01 -0.26288658259E+02  0.94061242451E+02  0.89279001659E+02 0.  0.
         11    1    3    3    0    0 -0.11200475130E+02  0.44597571963E+02 -0.34339774567E+02  0.57390018169E+02  0.00000000000E+00 0.  1.
        -11    1    3    3    0    0  0.82234684199E+00 -0.35767051349E+02  0.80511163081E+01  0.36671224282E+02  0.00000000000E+00 0. -1.
         22    1    1    2    0    0  0.10378128288E+02 -0.88305206139E+01  0.14100062821E-01  0.13626585775E+02  0.00000000000E+00 0.  1.
<mgrwt>
<rscale>  0 0.56287132E+02</rscale>
<asrwt>0</asrwt>
<pdfrwt beam="1">  1        3 0.62625592E-02 0.90312921E+02</pdfrwt>
<pdfrwt beam="2">  1       -3 0.10304799E-01 0.90312921E+02</pdfrwt>
<totfact> 0.22648510E+04</totfact>
</mgrwt>
</event>
<event>
 6    1  0.1535419E-002  0.9204123E+02  0.7546771E-02  0.1408399E+00
          1   -1    0    0  501    0  0.00000000000E+00  0.00000000000E+00  0.21967550373E+02  0.21967550373E+02  0.00000000000E+00 0. -1.
         -1   -1    0    0    0  501 -0.00000000000E+00 -0.00000000000E+00 -0.12896528920E+03  0.12896528920E+03  0.00000000000E+00 0.  1.
         23    2    1    2    0    0  0.16222689969E+01  0.13976853164E+02 -0.88449508017E+02  0.12765149409E+03  0.90959355181E+02 0.  0.
         13    1    3    3    0    0  0.34125872328E+01 -0.37730261926E+02 -0.23372442231E+02  0.44513924478E+02  0.00000000000E+00 0.  1.
        -13    1    3    3    0    0 -0.17903182359E+01  0.51707115090E+02 -0.65077065786E+02  0.83137569616E+02  0.00000000000E+00 0. -1.
         22    1    1    2    0    0 -0.16222689969E+01 -0.13976853164E+02 -0.18548230805E+02  0.23281345474E+02  0.00000000000E+00 0.  1.
<mgrwt>
<rscale>  0 0.57552690E+02</rscale>
<asrwt>0</asrwt>
<pdfrwt beam="1">  1        1 0.33796232E-02 0.92041232E+02</pdfrwt>
<pdfrwt beam="2">  1       -1 0.19840813E-01 0.92041232E+02</pdfrwt>
<totfact> 0.50669509E+04</totfact>
</mgrwt>
</event>
<event>
 6    1  0.1535419E-002  0.9325556E+02  0.7546771E-02  0.1403098E+00
         -2   -1    0    0    0  501 -0.00000000000E+00  0.00000000000E+00  0.10640843137E+02  0.10640843137E+02  0.00000000000E+00 0.  1.
          2   -1    0    0  501    0  0.00000000000E+00 -0.00000000000E+00 -0.36591605177E+03  0.36591605177E+03  0.00000000000E+00 0. -1.
         23    2    1    2    0    0 -0.66686026216E+01  0.13102958321E+02 -0.34775708462E+03  0.36004387076E+03  0.92089310951E+02 0.  0.
         13    1    3    3    0    0  0.32337945732E+02  0.11674172836E+02 -0.56175624957E+02  0.65861444600E+02  0.00000000000E+00 0.  1.
        -13    1    3    3    0    0 -0.39006548353E+02  0.14287854855E+01 -0.29158145967E+03  0.29418242616E+03  0.00000000000E+00 0. -1.
         22    1    1    2    0    0  0.66686026216E+01 -0.13102958321E+02 -0.75181240096E+01  0.16513024142E+02  0.00000000000E+00 0.  1.
<mgrwt>
<rscale>  0 0.58762789E+02</rscale>
<asrwt>0</asrwt>
<pdfrwt beam="1">  1        2 0.56294770E-01 0.93255557E+02</pdfrwt>
<pdfrwt beam="2">  1       -2 0.16370530E-02 0.93255557E+02</pdfrwt>
<totfact> 0.79495133E+04</totfact>
</mgrwt>
</event>
<event>
 6    1  0.1535419E-002  0.9289634E+02  0.7546771E-02  0.1426621E+00
          2   -1    0    0  501    0  0.00000000000E+00  0.00000000000E+00  0.10719297939E+04  0.10719297939E+04  0.00000000000E+00 0. -1.
         -2   -1    0    0    0  501 -0.00000000000E+00 -0.00000000000E+00 -0.27435507037E+01  0.27435507037E+01  0.00000000000E+00 0.  1.
         23    2    1    2    0    0 -0.93896437623E+01 -0.43059689871E+01  0.10288511252E+04  0.10330364796E+04  0.92320223649E+02 0.  0.
         11    1    3    3    0    0 -0.50401662260E+02 -0.34277345986E+01  0.65374327907E+03  0.65569226918E+03  0.00000000000E+00 0. -1.
        -11    1    3    3    0    0  0.41012018497E+02 -0.87823438851E+00  0.37510784610E+03  0.37734421045E+03  0.00000000000E+00 0.  1.
         22    1    1    2    0    0  0.93896437623E+01  0.43059689871E+01  0.40335117983E+02  0.41636864935E+02  0.00000000000E+00 0.  1.
<mgrwt>
<rscale>  0 0.53644223E+02</rscale>
<asrwt>0</asrwt>
<pdfrwt beam="1">  1        2 0.16491194E+00 0.92896343E+02</pdfrwt>
<pdfrwt beam="2">  1       -2 0.42208558E-03 0.92896343E+02</pdfrwt>
<totfact> 0.15460791E+05</totfact>
</mgrwt>
</event>
<event>
 6    1  0.1535419E-002  0.9433279E+02  0.7546771E-02  0.1373853E+00
         -2   -1    0    0    0  501 -0.00000000000E+00  0.00000000000E+00  0.55599413795E+01  0.55599413795E+01  0.00000000000E+00 0. -1.
          2   -1    0    0  501    0  0.00000000000E+00 -0.00000000000E+00 -0.69302772357E+03  0.69302772357E+03  0.00000000000E+00 0.  1.
         23    2    1    2    0    0  0.21916841968E+02  0.61073158121E+01 -0.62553758087E+03  0.63261041808E+03  0.91547958583E+02 0.  0.
         11    1    3    3    0    0 -0.31332415307E+01  0.46442717800E+02 -0.33503480713E+03  0.33825296041E+03  0.00000000000E+00 0. -1.
        -11    1    3    3    0    0  0.25050083499E+02 -0.40335401988E+02 -0.29050277374E+03  0.29435745767E+03  0.00000000000E+00 0.  1.
         22    1    1    2    0    0 -0.21916841968E+02 -0.61073158121E+01 -0.61930201329E+02  0.65977246873E+02  0.00000000000E+00 0. -1.
<mgrwt>
<rscale>  0 0.66107581E+02</rscale>
<asrwt>0</asrwt>
<pdfrwt beam="1">  1        2 0.10661956E+00 0.94332794E+02</pdfrwt>
<pdfrwt beam="2">  1       -2 0.85537635E-03 0.94332794E+02</pdfrwt>
<totfact> 0.99797768E+04</totfact>
</mgrwt>
</event>
<event>
 6    1  0.1535419E-002  0.1055212E+03  0.7546771E-02  0.1312267E+00
         -2   -1    0    0    0  501 -0.00000000000E+00  0.00000000000E+00  0.12381247104E+02  0.12381247104E+02  0.00000000000E+00 0.  1.
          2   -1    0    0  501    0  0.00000000000E+00 -0.00000000000E+00 -0.15702678505E+04  0.15702678505E+04  0.00000000000E+00 0. -1.
         23    2    1    2    0    0 -0.28094137298E+02  0.37727588850E+02 -0.15159876776E+04  0.15196556734E+04  0.94456739036E+02 0.  0.
         11    1    3    3    0    0 -0.30006811253E+02  0.18830063746E+02 -0.17582137000E+03  0.17935477181E+03  0.00000000000E+00 0.  1.
        -11    1    3    3    0    0  0.19126739548E+01  0.18897525104E+02 -0.13401663076E+04  0.13403009016E+04  0.00000000000E+00 0. -1.
         22    1    1    2    0    0  0.28094137298E+02 -0.37727588850E+02 -0.41898925815E+02  0.62993424223E+02  0.00000000000E+00 0.  1.
<mgrwt>
<rscale>  0 0.86222174E+02</rscale>
<asrwt>0</asrwt>
<pdfrwt beam="1">  1        2 0.24157946E+00 0.10552122E+03</pdfrwt>
<pdfrwt beam="2">  1       -2 0.19048089E-02 0.10552122E+03</pdfrwt>
<totfact> 0.10033756E+04</totfact>
</mgrwt>
</event>
<event>
 6    1  0.1535419E-002  0.9854630E+02  0.7546771E-02  0.1340637E+00
          3   -1    0    0  501    0  0.00000000000E+00  0.00000000000E+00  0.18258147164E+02  0.18258147164E+02  0.00000000000E+00 0. -1.
         -3   -1    0    0    0  501 -0.00000000000E+00 -0.00000000000E+00 -0.25514054638E+03  0.25514054638E+03  0.00000000000E+00 0.  1.
         23    2    1    2    0    0  0.24155485530E+02  0.25272999498E+02 -0.19761498811E+03  0.22082358955E+03  0.92136649563E+02 0.  0.
         13    1    3    3    0    0 -0.67707202168E+01 -0.19235389908E+02 -0.53736418250E+01  0.21088359434E+02  0.00000000000E+00 0. -1.
        -13    1    3    3    0    0  0.30926205747E+02  0.44508389405E+02 -0.19224134628E+03  0.19973523012E+03  0.00000000000E+00 0.  1.
         22    1    1    2    0    0 -0.24155485530E+02 -0.25272999498E+02 -0.39267411110E+02  0.52575103995E+02  0.00000000000E+00 0. -1.
<mgrwt>
<rscale>  0 0.76054265E+02</rscale>
<asrwt>0</asrwt>
<pdfrwt beam="1">  1        3 0.28089456E-02 0.98546305E+02</pdfrwt>
<pdfrwt beam="2">  1       -3 0.39252393E-01 0.98546305E+02</pdfrwt>
<totfact> 0.76970254E+03</totfact>
</mgrwt>
</event>
<event>
 6    1  0.1535419E-002  0.9307928E+02  0.7546771E-02  0.1417911E+00
         -2   -1    0    0    0  501 -0.00000000000E+00  0.00000000000E+00  0.38323698542E+02  0.38323698542E+02  0.00000000000E+00 0.  1.
          2   -1    0    0  501    0  0.00000000000E+00 -0.00000000000E+00 -0.76020613104E+02  0.76020613104E+02  0.00000000000E+00 0. -1.
         23    2    1    2    0    0 -0.29744588757E+01 -0.11353027000E+02 -0.41632546220E+02  0.10196578895E+03  0.92336420675E+02 0.  0.
         13    1    3    3    0    0 -0.20217509914E+02  0.20413719520E+02  0.16781833814E+02  0.33273076172E+02  0.00000000000E+00 0.  1.
        -13    1    3    3    0    0  0.17243051039E+02 -0.31766746520E+02 -0.58414380034E+02  0.68692712775E+02  0.00000000000E+00 0. -1.
         22    1    1    2    0    0  0.29744588757E+01  0.11353027000E+02  0.39356316587E+01  0.12378522699E+02  0.00000000000E+00 0.  1.
<mgrwt>
<rscale>  0 0.55465349E+02</rscale>
<asrwt>0</asrwt>
<pdfrwt beam="1">  1        2 0.11695479E-01 0.93079285E+02</pdfrwt>
<pdfrwt beam="2">  1       -2 0.58959536E-02 0.93079285E+02</pdfrwt>
<totfact> 0.68740249E+04</totfact>
</mgrwt>
</event>
<event>
 6    1  0.1535419E-002  0.9876590E+02  0.7546771E-02  0.1337733E+00
          2   -1    0    0  501    0  0.00000000000E+00  0.00000000000E+00  0.64500075695E+03  0.64500075695E+03  0.00000000000E+00 0. -1.
         -2   -1    0    0    0  501 -0.00000000000E+00 -0.00000000000E+00 -0.82628083693E+01  0.82628083693E+01  0.00000000000E+00 0.  1.
         23    2    1    2    0    0 -0.35191065548E+02 -0.97677903792E+01  0.55525073024E+03  0.56396637849E+03  0.91765362793E+02 0.  0.
         13    1    3    3    0    0 -0.28900022879E+02 -0.18781847401E+02  0.55116144929E+03  0.55223809385E+03  0.00000000000E+00 0. -1.
        -13    1    3    3    0    0 -0.62910426690E+01  0.90140570221E+01  0.40892809493E+01  0.11728284638E+02  0.00000000000E+00 0.  1.
         22    1    1    2    0    0  0.35191065548E+02  0.97677903792E+01  0.81487218346E+02  0.89297186837E+02  0.00000000000E+00 0. -1.
<mgrwt>
<rscale>  0 0.77018038E+02</rscale>
<asrwt>0</asrwt>
<pdfrwt beam="1">  1        2 0.99230846E-01 0.98765898E+02</pdfrwt>
<pdfrwt beam="2">  1       -2 0.12712018E-02 0.98765898E+02</pdfrwt>
<totfact> 0.62167813E+04</totfact>
</mgrwt>
</event>
<event>
 6    1  0.1535419E-002  0.9028393E+02  0.7546771E-02  0.1385471E+00
         -1   -1    0    0    0  501 -0.00000000000E+00  0.00000000000E+00  0.24376986822E+02  0.24376986822E+02  0.00000000000E+00 0.  1.
          1   -1    0    0  501    0  0.00000000000E+00 -0.00000000000E+00 -0.39325208575E+03  0.39325208575E+03  0.00000000000E+00 0. -1.
         23    2    1    2    0    0  0.11037467376E+02  0.18415741769E+02 -0.38196046111E+03  0.39248564532E+03  0.87693914824E+02 0.  0.
         13    1    3    3    0    0  0.45343723986E+01 -0.29847523314E+02 -0.25017385758E+03  0.25198887713E+03  0.00000000000E+00 0. -1.
        -13    1    3    3    0    0  0.65030949776E+01  0.48263265083E+02 -0.13178660353E+03  0.14049676819E+03  0.00000000000E+00 0.  1.
         22    1    1    2    0    0 -0.11037467376E+02 -0.18415741769E+02  0.13085362178E+02  0.25143427259E+02  0.00000000000E+00 0.  1.
<mgrwt>
<rscale>  0 0.63047281E+02</rscale>
<asrwt>0</asrwt>
<pdfrwt beam="1">  1        1 0.60500324E-01 0.90283930E+02</pdfrwt>
<pdfrwt beam="2">  1       -1 0.37503055E-02 0.90283930E+02</pdfrwt>
<totfact> 0.15216744E+04</totfact>
</mgrwt>
</event>
<event>
 6    1  0.1535419E-002  0.8772786E+02  0.7546771E-02  0.1432691E+00
         -2   -1    0    0    0  501 -0.00000000000E+00  0.00000000000E+00  0.53368755734E+01  0.53368755734E+01  0.00000000000E+00 0.  1.
          2   -1    0    0  501    0  0.00000000000E+00 -0.00000000000E+00 -0.67920258943E+03  0.67920258943E+03  0.00000000000E+00 0. -1.
         23    2    1    2    0    0 -0.55811555804E+01  0.96947035252E+01 -0.66354540123E+03  0.66931956268E+03  0.87011728628E+02 0.  0.
         13    1    3    3    0    0 -0.28096328516E+02  0.31124958603E+02 -0.55001121301E+03  0.55160719825E+03  0.00000000000E+00 0. -1.
        -13    1    3    3    0    0  0.22515172936E+02 -0.21430255078E+02 -0.11353418822E+03  0.11771236443E+03  0.00000000000E+00 0.  1.
         22    1    1    2    0    0  0.55811555804E+01 -0.96947035252E+01 -0.10320312630E+02  0.15219902327E+02  0.00000000000E+00 0.  1.
<mgrwt>
<rscale>  0 0.52423521E+02</rscale>
<asrwt>0</asrwt>
<pdfrwt beam="1">  1        2 0.10449262E+00 0.87727860E+02</pdfrwt>
<pdfrwt beam="2">  1       -2 0.82105848E-03 0.87727860E+02</pdfrwt>
<totfact> 0.10714401E+05</totfact>
</mgrwt>
</event>
<event>
 6    1  0.1535419E-002  0.8904929E+02  0.7546771E-02  0.1422241E+00
         -4   -1    0    0    0  501 -0.00000000000E+00  0.00000000000E+00  0.15381775442E+03  0.15381775442E+03  0.00000000000E+00 0.  1.
          4   -1    0    0  501    0  0.00000000000E+00 -0.00000000000E+00 -0.16866087727E+02  0.16866087727E+02  0.00000000000E+00 0. -1.
         23    2    1    2    0    0  0.21397374118E+01 -0.12355466244E+02  0.11558992974E+03  0.14591370230E+03  0.88162013587E+02 0.  0.
         13    1    3    3    0    0 -0.24194273526E+02  0.27565160988E+02  0.28092601624E+02  0.46199515557E+02  0.00000000000E+00 0. -1.
        -13    1    3    3    0    0  0.26334010938E+02 -0.39920627232E+02  0.87497328113E+02  0.99714186742E+02  0.00000000000E+00 0.  1.
         22    1    1    2    0    0 -0.21397374118E+01  0.12355466244E+02  0.21361736956E+02  0.24770139848E+02  0.00000000000E+00 0. -1.
<mgrwt>
<rscale>  0 0.54549637E+02</rscale>
<asrwt>0</asrwt>
<pdfrwt beam="1">  1        4 0.25947828E-02 0.89049293E+02</pdfrwt>
<pdfrwt beam="2">  1       -4 0.23664269E-01 0.89049293E+02</pdfrwt>
<totfact> 0.16119267E+04</totfact>
</mgrwt>
</event>
<event>
 6    1  0.1535419E-002  0.9860640E+02  0.7546771E-02  0.1340028E+00
          2   -1    0    0  501    0  0.00000000000E+00  0.00000000000E+00  0.11806078643E+03  0.11806078643E+03  0.00000000000E+00 0. -1.
         -2   -1    0    0    0  501 -0.00000000000E+00 -0.00000000000E+00 -0.38147524508E+02  0.38147524508E+02  0.00000000000E+00 0.  1.
         23    2    1    2    0    0 -0.29192583150E+02 -0.19786214925E+02  0.63712835778E+02  0.11739909787E+03  0.92084317475E+02 0.  0.
         11    1    3    3    0    0  0.14393510877E+02 -0.15372747102E+02  0.70038238854E+02  0.73135828502E+02  0.00000000000E+00 0.  1.
        -11    1    3    3    0    0 -0.43586094027E+02 -0.44134678234E+01 -0.63254030761E+01  0.44263269364E+02  0.00000000000E+00 0. -1.
         22    1    1    2    0    0  0.29192583150E+02  0.19786214925E+02  0.16200426143E+02  0.38809213072E+02  0.00000000000E+00 0.  1.
<mgrwt>
<rscale>  0 0.76255003E+02</rscale>
<asrwt>0</asrwt>
<pdfrwt beam="1">  1        2 0.18163198E-01 0.98606403E+02</pdfrwt>
<pdfrwt beam="2">  1       -2 0.58688500E-02 0.98606403E+02</pdfrwt>
<totfact> 0.41821497E+04</totfact>
</mgrwt>
</event>
<event>
 6    1  0.1535419E-002  0.9207340E+02  0.7546771E-02  0.1423350E+00
         -2   -1    0    0    0  501 -0.00000000000E+00  0.00000000000E+00  0.36772763497E+02  0.36772763497E+02  0.00000000000E+00 0.  1.
          2   -1    0    0  501    0  0.00000000000E+00 -0.00000000000E+00 -0.73142646702E+02  0.73142646702E+02  0.00000000000E+00 0. -1.
         23    2    1    2    0    0 -0.88340027067E+01  0.68078568069E+01 -0.28940477836E+02  0.96514567604E+02  0.91395426496E+02 0.  0.
         13    1    3    3    0    0 -0.34340201850E+01  0.16387572419E+02 -0.60667593009E+02  0.62935696277E+02  0.00000000000E+00 0. -1.
        -13    1    3    3    0    0 -0.53999825217E+01 -0.95797156125E+01  0.31727115172E+02  0.33578871327E+02  0.00000000000E+00 0.  1.
         22    1    1    2    0    0  0.88340027067E+01 -0.68078568069E+01 -0.74294053685E+01  0.13400842595E+02  0.00000000000E+00 0. -1.
<mgrwt>
<rscale>  0 0.54318440E+02</rscale>
<asrwt>0</asrwt>
<pdfrwt beam="1">  1        2 0.11252715E-01 0.92073397E+02</pdfrwt>
<pdfrwt beam="2">  1       -2 0.56573483E-02 0.92073397E+02</pdfrwt>
<totfact> 0.76455901E+04</totfact>
</mgrwt>
</event>
<event>
 6    1  0.1535419E-002  0.9302170E+02  0.7546771E-02  0.1405112E+00
         -2   -1    0    0    0  501 -0.00000000000E+00  0.00000000000E+00  0.13297503597E+02  0.13297503597E+02  0.00000000000E+00 0.  1.
          2   -1    0    0  501    0  0.00000000000E+00 -0.00000000000E+00 -0.23038270831E+03  0.23038270831E+03  0.00000000000E+00 0. -1.
         23    2    1    2    0    0 -0.87405673120E+01  0.11382596286E+02 -0.20421494310E+03  0.22440316211E+03  0.91907971155E+02 0.  0.
         11    1    3    3    0    0 -0.24386793126E+02  0.77842234438E+01 -0.20659332280E+03  0.20817327119E+03  0.00000000000E+00 0. -1.
        -11    1    3    3    0    0  0.15646225814E+02  0.35983728418E+01  0.23783796908E+01  0.16229890920E+02  0.00000000000E+00 0.  1.
         22    1    1    2    0    0  0.87405673120E+01 -0.11382596286E+02 -0.12870261610E+02  0.19277049802E+02  0.00000000000E+00 0. -1.
<mgrwt>
<rscale>  0 0.58299029E+02</rscale>
<asrwt>0</asrwt>
<pdfrwt beam="1">  1        2 0.35443494E-01 0.93021697E+02</pdfrwt>
<pdfrwt beam="2">  1       -2 0.20457698E-02 0.93021697E+02</pdfrwt>
<totfact> 0.93773311E+04</totfact>
</mgrwt>
</event>
<event>
 6    1  0.1535419E-002  0.9156272E+02  0.7546771E-02  0.1417626E+00
         -4   -1    0    0    0  501 -0.00000000000E+00  0.00000000000E+00  0.39583270925E+01  0.39583270925E+01  0.00000000000E+00 0.  1.
          4   -1    0    0  501    0  0.00000000000E+00 -0.00000000000E+00 -0.68346168024E+03  0.68346168024E+03  0.00000000000E+00 0. -1.
         23    2    1    2    0    0  0.94451606375E+01 -0.80086036783E+01 -0.60690108378E+03  0.61376922112E+03  0.90721455616E+02 0.  0.
         13    1    3    3    0    0  0.12124497999E+02  0.13299437992E+02 -0.57518339950E+03  0.57546487431E+03  0.00000000000E+00 0. -1.
        -13    1    3    3    0    0 -0.26793373619E+01 -0.21308041670E+02 -0.31717684274E+02  0.38304346806E+02  0.00000000000E+00 0.  1.
         22    1    1    2    0    0 -0.94451606375E+01  0.80086036783E+01 -0.72602269370E+02  0.73650786215E+02  0.00000000000E+00 0.  1.
<mgrwt>
<rscale>  0 0.55526340E+02</rscale>
<asrwt>0</asrwt>
<pdfrwt beam="1">  1        4 0.10514796E+00 0.91562718E+02</pdfrwt>
<pdfrwt beam="2">  1       -4 0.60897335E-03 0.91562718E+02</pdfrwt>
<totfact> 0.69407593E+03</totfact>
</mgrwt>
</event>
<event>
 6    1  0.1535419E-002  0.8945476E+02  0.7546771E-02  0.1431113E+00
         -2   -1    0    0    0  501 -0.00000000000E+00  0.00000000000E+00  0.59608897960E+02  0.59608897960E+02  0.00000000000E+00 0.  1.
          2   -1    0    0  501    0  0.00000000000E+00 -0.00000000000E+00 -0.47433489143E+02  0.47433489143E+02  0.00000000000E+00 0. -1.
         23    2    1    2    0    0 -0.89917188169E+01 -0.59929781326E+01 -0.16810856783E+01  0.89470556410E+02  0.88799705074E+02 0.  0.
         13    1    3    3    0    0  0.12362803079E+02  0.31949729943E+02 -0.22727214397E+02  0.41111439012E+02  0.00000000000E+00 0. -1.
        -13    1    3    3    0    0 -0.21354521896E+02 -0.37942708076E+02  0.21046128718E+02  0.48359117398E+02  0.00000000000E+00 0.  1.
         22    1    1    2    0    0  0.89917188169E+01  0.59929781326E+01  0.13856494495E+02  0.17571830692E+02  0.00000000000E+00 0. -1.
<mgrwt>
<rscale>  0 0.52737255E+02</rscale>
<asrwt>0</asrwt>
<pdfrwt beam="1">  1        2 0.72974599E-02 0.89454762E+02</pdfrwt>
<pdfrwt beam="2">  1       -2 0.91705996E-02 0.89454762E+02</pdfrwt>
<totfact> 0.62131444E+04</totfact>
</mgrwt>
</event>
<event>
 6    1  0.1535419E-002  0.9633431E+02  0.7546771E-02  0.1393462E+00
          2   -1    0    0  501    0  0.00000000000E+00  0.00000000000E+00  0.79839999231E+02  0.79839999231E+02  0.00000000000E+00 0. -1.
         -2   -1    0    0    0  501 -0.00000000000E+00 -0.00000000000E+00 -0.39685688650E+02  0.39685688650E+02  0.00000000000E+00 0.  1.
         23    2    1    2    0    0 -0.12158285055E+02 -0.96816139760E+01  0.39037888212E+02  0.10394352040E+03  0.95072294447E+02 0.  0.
         11    1    3    3    0    0  0.37872806400E+02  0.12875285559E+02  0.25430441597E+02  0.47400736309E+02  0.00000000000E+00 0.  1.
        -11    1    3    3    0    0 -0.50031091455E+02 -0.22556899535E+02  0.13607446615E+02  0.56542784086E+02  0.00000000000E+00 0. -1.
         22    1    1    2    0    0  0.12158285055E+02  0.96816139760E+01  0.11164223693E+01  0.15582167486E+02  0.00000000000E+00 0. -1.
<mgrwt>
<rscale>  0 0.61053886E+02</rscale>
<asrwt>0</asrwt>
<pdfrwt beam="1">  1        2 0.12283077E-01 0.96334307E+02</pdfrwt>
<pdfrwt beam="2">  1       -2 0.61054906E-02 0.96334307E+02</pdfrwt>
<totfact> 0.61836112E+04</totfact>
</mgrwt>
</event>
<event>
 6    1  0.1535419E-002  0.8664500E+02  0.7546771E-02  0.1436626E+00
         -2   -1    0    0    0  501 -0.00000000000E+00  0.00000000000E+00  0.40411814526E+02  0.40411814526E+02  0.00000000000E+00 0. -1.
          2   -1    0    0  501    0  0.00000000000E+00 -0.00000000000E+00 -0.62036194299E+02  0.62036194299E+02  0.00000000000E+00 0.  1.
         23    2    1    2    0    0  0.10943115984E+02  0.29149030330E-01 -0.26298909717E+02  0.90548266505E+02  0.85951167983E+02 0.  0.
         11    1    3    3    0    0  0.41194592063E+01  0.11264869198E+02 -0.56421457238E+02  0.57682302824E+02  0.00000000000E+00 0.  1.
        -11    1    3    3    0    0  0.68236567776E+01 -0.11235720167E+02  0.30122547521E+02  0.32865963681E+02  0.00000000000E+00 0. -1.
         22    1    1    2    0    0 -0.10943115984E+02 -0.29149030330E-01  0.46745299440E+01  0.11899742321E+02  0.00000000000E+00 0. -1.
<mgrwt>
<rscale>  0 0.51652728E+02</rscale>
<asrwt>0</asrwt>
<pdfrwt beam="1">  1        2 0.95440299E-02 0.86644999E+02</pdfrwt>
<pdfrwt beam="2">  1       -2 0.62172022E-02 0.86644999E+02</pdfrwt>
<totfact> 0.80211232E+04</totfact>
</mgrwt>
</event>
<event>
 6    1  0.1535419E-002  0.9752249E+02  0.7546771E-02  0.1340842E+00
         -2   -1    0    0    0  501 -0.00000000000E+00  0.00000000000E+00  0.93694741321E+02  0.93694741321E+02  0.00000000000E+00 0.  1.
          2   -1    0    0  501    0  0.00000000000E+00 -0.00000000000E+00 -0.66709730912E+02  0.66709730912E+02  0.00000000000E+00 0. -1.
         23    2    1    2    0    0  0.28771912246E+02 -0.21546051368E+02 -0.21680482577E+02  0.99903352645E+02  0.90656391286E+02 0.  0.
         13    1    3    3    0    0  0.46884949154E+02  0.10092462376E+02 -0.36785028718E+02  0.60441662715E+02  0.00000000000E+00 0. -1.
        -13    1    3    3    0    0 -0.18113036908E+02 -0.31638513744E+02  0.15104546141E+02  0.39461689930E+02  0.00000000000E+00 0.  1.
         22    1    1    2    0    0 -0.28771912246E+02  0.21546051368E+02  0.48665492986E+02  0.60501119588E+02  0.00000000000E+00 0.  1.
<mgrwt>
<rscale>  0 0.75986901E+02</rscale>
<asrwt>0</asrwt>
<pdfrwt beam="1">  1        2 0.10263036E-01 0.97522493E+02</pdfrwt>
<pdfrwt beam="2">  1       -2 0.14414576E-01 0.97522493E+02</pdfrwt>
<totfact> 0.20238995E+04</totfact>
</mgrwt>
</event>
<event>
 6    1  0.1535419E-002  0.9272935E+02  0.7546771E-02  0.1422766E+00
          1   -1    0    0  501    0  0.00000000000E+00  0.00000000000E+00  0.21493345028E+03  0.21493345028E+03  0.00000000000E+00 0. -1.
         -1   -1    0    0    0  501 -0.00000000000E+00 -0.00000000000E+00 -0.12831200532E+02  0.12831200532E+02  0.00000000000E+00 0.  1.
         23    2    1    2    0    0  0.98337955121E+01 -0.49646043558E+01  0.18986544781E+03  0.21129983523E+03  0.92072695541E+02 0.  0.
         11    1    3    3    0    0  0.33260923811E+02  0.33641948016E+02  0.89184905426E+02  0.10095552028E+03  0.00000000000E+00 0.  1.
        -11    1    3    3    0    0 -0.23427128299E+02 -0.38606552372E+02  0.10068054238E+03  0.11034431495E+03  0.00000000000E+00 0. -1.
         22    1    1    2    0    0 -0.98337955121E+01  0.49646043558E+01  0.12236801935E+02  0.16464815583E+02  0.00000000000E+00 0. -1.
<mgrwt>
<rscale>  0 0.54440017E+02</rscale>
<asrwt>0</asrwt>
<pdfrwt beam="1">  1        1 0.33066682E-01 0.92729349E+02</pdfrwt>
<pdfrwt beam="2">  1       -1 0.19740310E-02 0.92729349E+02</pdfrwt>
<totfact> 0.80487436E+04</totfact>
</mgrwt>
</event>
<event>
 6    1  0.1535419E-002  0.9461866E+02  0.7546771E-02  0.1366044E+00
         -1   -1    0    0    0  501 -0.00000000000E+00  0.00000000000E+00  0.44379905667E+01  0.44379905667E+01  0.00000000000E+00 0.  1.
          1   -1    0    0  501    0  0.00000000000E+00 -0.00000000000E+00 -0.89353451742E+03  0.89353451742E+03  0.00000000000E+00 0. -1.
         23    2    1    2    0    0 -0.23521835255E+02  0.10250258110E+02 -0.78844074482E+03  0.79409791541E+03  0.91073303715E+02 0.  0.
         13    1    3    3    0    0 -0.39311178788E+02  0.35056614986E+02 -0.28683511489E+03  0.29163113374E+03  0.00000000000E+00 0.  1.
        -13    1    3    3    0    0  0.15789343533E+02 -0.24806356875E+02 -0.50160562993E+03  0.50246678168E+03  0.00000000000E+00 0. -1.
         22    1    1    2    0    0  0.23521835255E+02 -0.10250258110E+02 -0.10065578203E+03  0.10387459257E+03  0.00000000000E+00 0. -1.
<mgrwt>
<rscale>  0 0.68279331E+02</rscale>
<asrwt>0</asrwt>
<pdfrwt beam="1">  1        1 0.13746701E+00 0.94618662E+02</pdfrwt>
<pdfrwt beam="2">  1       -1 0.68276697E-03 0.94618662E+02</pdfrwt>
<totfact> 0.56691332E+04</totfact>
</mgrwt>
</event>
<event>
 6    1  0.1535419E-002  0.1012726E+03  0.7546771E-02  0.1359231E+00
          2   -1    0    0  501    0  0.00000000000E+00  0.00000000000E+00  0.24568494485E+03  0.24568494485E+03  0.00000000000E+00 0. -1.
         -2   -1    0    0    0  501 -0.00000000000E+00 -0.00000000000E+00 -0.15849672113E+02  0.15849672113E+02  0.00000000000E+00 0.  1.
         23    2    1    2    0    0  0.23362040226E+02  0.20723168866E+01  0.18291485457E+03  0.20907887312E+03  0.98519296299E+02 0.  0.
         11    1    3    3    0    0 -0.31441770924E+02  0.15149157158E+02  0.11834151349E+03  0.12338069434E+03  0.00000000000E+00 0. -1.
        -11    1    3    3    0    0  0.54803811150E+02 -0.13076840271E+02  0.64573341083E+02  0.85698178783E+02  0.00000000000E+00 0.  1.
         22    1    1    2    0    0 -0.23362040226E+02 -0.20723168866E+01  0.46920418167E+02  0.52455743839E+02  0.00000000000E+00 0.  1.
<mgrwt>
<rscale>  0 0.70254155E+02</rscale>
<asrwt>0</asrwt>
<pdfrwt beam="1">  1        2 0.37797681E-01 0.10127256E+03</pdfrwt>
<pdfrwt beam="2">  1       -2 0.24384113E-02 0.10127256E+03</pdfrwt>
<totfact> 0.68826306E+04</totfact>
</mgrwt>
</event>
<event>
 6    1  0.1535419E-002  0.8822227E+02  0.7546771E-02  0.1402082E+00
          2   -1    0    0  501    0  0.00000000000E+00  0.00000000000E+00  0.29319361378E+03  0.29319361378E+03  0.00000000000E+00 0. -1.
         -2   -1    0    0    0  501 -0.00000000000E+00 -0.00000000000E+00 -0.99356067645E+01  0.99356067645E+01  0.00000000000E+00 0.  1.
         23    2    1    2    0    0  0.17017750773E+02 -0.46652014521E+01  0.21005465694E+03  0.22782916471E+03  0.86439582632E+02 0.  0.
         13    1    3    3    0    0 -0.30052253878E+02 -0.13407543224E+02  0.13383356517E+03  0.13781989459E+03  0.00000000000E+00 0.  1.
        -13    1    3    3    0    0  0.47070004652E+02  0.87423417721E+01  0.76221091768E+02  0.90009270122E+02  0.00000000000E+00 0. -1.
         22    1    1    2    0    0 -0.17017750773E+02  0.46652014521E+01  0.73203350077E+02  0.75300055833E+02  0.00000000000E+00 0. -1.
<mgrwt>
<rscale>  0 0.58998765E+02</rscale>
<asrwt>0</asrwt>
<pdfrwt beam="1">  1        2 0.45106703E-01 0.88222273E+02</pdfrwt>
<pdfrwt beam="2">  1       -2 0.15285551E-02 0.88222273E+02</pdfrwt>
<totfact> 0.10963663E+05</totfact>
</mgrwt>
</event>
<event>
 6    1  0.1535419E-002  0.9529223E+02  0.7546771E-02  0.1367588E+00
          2   -1    0    0  501    0  0.00000000000E+00  0.00000000000E+00  0.18043947049E+04  0.18043947049E+04  0.00000000000E+00 0. -1.
         -2   -1    0    0    0  501 -0.00000000000E+00 -0.00000000000E+00 -0.53359855432E+01  0.53359855432E+01  0.00000000000E+00 0.  1.
         23    2    1    2    0    0  0.58432012083E+01  0.23773419580E+02  0.17661293229E+04  0.17686982200E+04  0.92093918493E+02 0.  0.
         13    1    3    3    0    0  0.20244276717E+02  0.11370520852E+02  0.16923800031E+04  0.16925392741E+04  0.00000000000E+00 0. -1.
        -13    1    3    3    0    0 -0.14401075509E+02  0.12402898728E+02  0.73749319782E+02  0.76158945903E+02  0.00000000000E+00 0.  1.
         22    1    1    2    0    0 -0.58432012083E+01 -0.23773419580E+02  0.32929396520E+02  0.41032470484E+02  0.00000000000E+00 0.  1.
<mgrwt>
<rscale>  0 0.67842261E+02</rscale>
<asrwt>0</asrwt>
<pdfrwt beam="1">  1        2 0.27759870E+00 0.95292226E+02</pdfrwt>
<pdfrwt beam="2">  1       -2 0.82092229E-03 0.95292226E+02</pdfrwt>
<totfact> 0.25210756E+04</totfact>
</mgrwt>
</event>
<event>
 6    1  0.1535419E-002  0.9223695E+02  0.7546771E-02  0.1385836E+00
          2   -1    0    0  501    0  0.00000000000E+00  0.00000000000E+00  0.24830930031E+02  0.24830930031E+02  0.00000000000E+00 0. -1.
         -2   -1    0    0    0  501 -0.00000000000E+00 -0.00000000000E+00 -0.13288669062E+03  0.13288669062E+03  0.00000000000E+00 0.  1.
         23    2    1    2    0    0  0.16685355887E+02  0.11056791039E+02 -0.74158860404E+02  0.11835198117E+03  0.90038886835E+02 0.  0.
         11    1    3    3    0    0 -0.50555031231E+00  0.42017659669E+01  0.20993837871E+02  0.21416153878E+02  0.00000000000E+00 0. -1.
        -11    1    3    3    0    0  0.17190906199E+02  0.68550250724E+01 -0.95152698275E+02  0.96935827297E+02  0.00000000000E+00 0.  1.
         22    1    1    2    0    0 -0.16685355887E+02 -0.11056791039E+02 -0.33896900182E+02  0.39365639472E+02  0.00000000000E+00 0. -1.
<mgrwt>
<rscale>  0 0.62954220E+02</rscale>
<asrwt>0</asrwt>
<pdfrwt beam="1">  1        2 0.38201431E-02 0.92236950E+02</pdfrwt>
<pdfrwt beam="2">  1       -2 0.20444106E-01 0.92236950E+02</pdfrwt>
<totfact> 0.39540612E+04</totfact>
</mgrwt>
</event>
<event>
 6    1  0.1535419E-002  0.9449695E+02  0.7546771E-02  0.1372520E+00
          2   -1    0    0  501    0  0.00000000000E+00  0.00000000000E+00  0.39641256808E+03  0.39641256808E+03  0.00000000000E+00 0. -1.
         -2   -1    0    0    0  501 -0.00000000000E+00 -0.00000000000E+00 -0.87269557965E+01  0.87269557965E+01  0.00000000000E+00 0.  1.
         23    2    1    2    0    0  0.49754585203E+01  0.22594873288E+02  0.31223406600E+03  0.32622045570E+03  0.91620905121E+02 0.  0.
         11    1    3    3    0    0 -0.35020404337E+01 -0.34608875777E+02  0.15022674737E+03  0.15420153759E+03  0.00000000000E+00 0.  1.
        -11    1    3    3    0    0  0.84774989541E+01  0.57203749065E+02  0.16200731863E+03  0.17201891810E+03  0.00000000000E+00 0. -1.
         22    1    1    2    0    0 -0.49754585203E+01 -0.22594873288E+02  0.75451546283E+02  0.78919068183E+02  0.00000000000E+00 0. -1.
<mgrwt>
<rscale>  0 0.66471630E+02</rscale>
<asrwt>0</asrwt>
<pdfrwt beam="1">  1        2 0.60986535E-01 0.94496951E+02</pdfrwt>
<pdfrwt beam="2">  1       -2 0.13426089E-02 0.94496951E+02</pdfrwt>
<totfact> 0.97170822E+04</totfact>
</mgrwt>
</event>
<event>
 6    1  0.1535419E-002  0.9121739E+02  0.7546771E-02  0.1405519E+00
         -2   -1    0    0    0  501 -0.00000000000E+00  0.00000000000E+00  0.41373466586E+02  0.41373466586E+02  0.00000000000E+00 0.  1.
          2   -1    0    0  501    0  0.00000000000E+00 -0.00000000000E+00 -0.30200537458E+03  0.30200537458E+03  0.00000000000E+00 0. -1.
         23    2    1    2    0    0  0.14459222102E+02 -0.44310472429E+01 -0.29341971833E+03  0.30727144870E+03  0.89955037660E+02 0.  0.
         13    1    3    3    0    0  0.49127643034E+01 -0.34609015309E+02 -0.45691763861E+02  0.57529613926E+02  0.00000000000E+00 0.  1.
        -13    1    3    3    0    0  0.95464577988E+01  0.30177968066E+02 -0.24772795447E+03  0.24974183478E+03  0.00000000000E+00 0. -1.
         22    1    1    2    0    0 -0.14459222102E+02  0.44310472429E+01  0.32787810338E+02  0.36107392460E+02  0.00000000000E+00 0.  1.
<mgrwt>
<rscale>  0 0.58205936E+02</rscale>
<asrwt>0</asrwt>
<pdfrwt beam="1">  1        2 0.46462365E-01 0.91217389E+02</pdfrwt>
<pdfrwt beam="2">  1       -2 0.63651487E-02 0.91217389E+02</pdfrwt>
<totfact> 0.13320756E+04</totfact>
</mgrwt>
</event>
<event>
 6    1  0.1535419E-002  0.8720387E+02  0.7546771E-02  0.1423515E+00
          1   -1    0    0  501    0  0.00000000000E+00  0.00000000000E+00  0.60935032700E+03  0.60935032700E+03  0.00000000000E+00 0. -1.
         -1   -1    0    0    0  501 -0.00000000000E+00 -0.00000000000E+00 -0.57398771827E+01  0.57398771827E+01  0.00000000000E+00 0.  1.
         23    2    1    2    0    0 -0.12286548246E+00  0.13093820850E+02  0.58920318485E+03  0.59562144654E+03  0.86215145423E+02 0.  0.
         11    1    3    3    0    0 -0.41856508879E+02  0.24240526028E+01  0.35730192618E+03  0.35975340140E+03  0.00000000000E+00 0. -1.
        -11    1    3    3    0    0  0.41733643396E+02  0.10669768247E+02  0.23190125867E+03  0.23586804514E+03  0.00000000000E+00 0.  1.
         22    1    1    2    0    0  0.12286548246E+00 -0.13093820850E+02  0.14407264972E+02  0.19468757647E+02  0.00000000000E+00 0.  1.
<mgrwt>
<rscale>  0 0.54284168E+02</rscale>
<asrwt>0</asrwt>
<pdfrwt beam="1">  1        1 0.93746153E-01 0.87203868E+02</pdfrwt>
<pdfrwt beam="2">  1       -1 0.88305851E-03 0.87203868E+02</pdfrwt>
<totfact> 0.67833624E+04</totfact>
</mgrwt>
</event>
<event>
 6    1  0.1535419E-002  0.9109645E+02  0.7546771E-02  0.1416882E+00
          2   -1    0    0  501    0  0.00000000000E+00  0.00000000000E+00  0.12899092782E+04  0.12899092782E+04  0.00000000000E+00 0. -1.
         -2   -1    0    0    0  501 -0.00000000000E+00 -0.00000000000E+00 -0.32410042547E+01  0.32410042547E+01  0.00000000000E+00 0.  1.
         23    2    1    2    0    0  0.64098818274E+01  0.10986653746E+02  0.12629965154E+04  0.12662775212E+04  0.90204044210E+02 0.  0.
         13    1    3    3    0    0 -0.26425329909E+02  0.17977884331E+02  0.18374242178E+03  0.18650142076E+03  0.00000000000E+00 0.  1.
        -13    1    3    3    0    0  0.32835211737E+02 -0.69912305853E+01  0.10792540937E+04  0.10797761005E+04  0.00000000000E+00 0. -1.
         22    1    1    2    0    0 -0.64098818274E+01 -0.10986653746E+02  0.23671758508E+02  0.26872761236E+02  0.00000000000E+00 0.  1.
<mgrwt>
<rscale>  0 0.55686009E+02</rscale>
<asrwt>0</asrwt>
<pdfrwt beam="1">  1        2 0.19844717E+00 0.91096447E+02</pdfrwt>
<pdfrwt beam="2">  1       -2 0.49861707E-03 0.91096447E+02</pdfrwt>
<totfact> 0.92785089E+04</totfact>
</mgrwt>
</event>
<event>
 6    1  0.1535419E-002  0.9593238E+02  0.7546771E-02  0.1397739E+00
         -2   -1    0    0    0  501 -0.00000000000E+00  0.00000000000E+00  0.21004830841E+03  0.21004830841E+03  0.00000000000E+00 0. -1.
          2   -1    0    0  501    0  0.00000000000E+00 -0.00000000000E+00 -0.14754164596E+02  0.14754164596E+02  0.00000000000E+00 0.  1.
         23    2    1    2    0    0  0.81080893587E+01  0.12262901576E+02  0.17707750693E+03  0.20139380522E+03  0.94799269263E+02 0.  0.
         11    1    3    3    0    0 -0.31301800492E+02 -0.13664388558E+01  0.14616509549E+03  0.14948546755E+03  0.00000000000E+00 0. -1.
        -11    1    3    3    0    0  0.39409889850E+02  0.13629340432E+02  0.30912411438E+02  0.51908337669E+02  0.00000000000E+00 0.  1.
         22    1    1    2    0    0 -0.81080893587E+01 -0.12262901576E+02  0.18216636887E+02  0.23408667787E+02  0.00000000000E+00 0.  1.
<mgrwt>
<rscale>  0 0.60022039E+02</rscale>
<asrwt>0</asrwt>
<pdfrwt beam="1">  1        2 0.22698716E-02 0.95932379E+02</pdfrwt>
<pdfrwt beam="2">  1       -2 0.32315122E-01 0.95932379E+02</pdfrwt>
<totfact> 0.35801065E+04</totfact>
</mgrwt>
</event>
<event>
 6    1  0.1535419E-002  0.9439631E+02  0.7546771E-02  0.1411769E+00
         -2   -1    0    0    0  501 -0.00000000000E+00  0.00000000000E+00  0.93598193501E+01  0.93598193501E+01  0.00000000000E+00 0. -1.
          2   -1    0    0  501    0  0.00000000000E+00 -0.00000000000E+00 -0.43195142227E+03  0.43195142227E+03  0.00000000000E+00 0.  1.
         23    2    1    2    0    0 -0.11513916561E+02  0.45365907825E+01 -0.41731475136E+03  0.42785776278E+03  0.93581582267E+02 0.  0.
         11    1    3    3    0    0  0.20191955820E+02 -0.35869541813E+02 -0.22872144670E+03  0.23239586763E+03  0.00000000000E+00 0. -1.
        -11    1    3    3    0    0 -0.31705872381E+02  0.40406132596E+02 -0.18859330465E+03  0.19546189515E+03  0.00000000000E+00 0.  1.
         22    1    1    2    0    0  0.11513916561E+02 -0.45365907825E+01 -0.52768515620E+01  0.13453478840E+02  0.00000000000E+00 0.  1.
<mgrwt>
<rscale>  0 0.56801031E+02</rscale>
<asrwt>0</asrwt>
<pdfrwt beam="1">  1        2 0.66454047E-01 0.94396311E+02</pdfrwt>
<pdfrwt beam="2">  1       -2 0.14399726E-02 0.94396311E+02</pdfrwt>
<totfact> 0.80294875E+04</totfact>
</mgrwt>
</event>
<event>
 6    1  0.1535419E-002  0.9479305E+02  0.7546771E-02  0.1346674E+00
         -4   -1    0    0    0  501 -0.00000000000E+00  0.00000000000E+00  0.42475400183E+03  0.42475400183E+03  0.00000000000E+00 0.  1.
          4   -1    0    0  501    0  0.00000000000E+00 -0.00000000000E+00 -0.12415346198E+02  0.12415346198E+02  0.00000000000E+00 0. -1.
         23    2    1    2    0    0  0.24613436176E+02  0.25441501592E+02  0.37015839505E+03  0.38210333649E+03  0.87935380191E+02 0.  0.
         13    1    3    3    0    0  0.20585767685E+02  0.42625500103E+02  0.92721864001E+02  0.10410596118E+03  0.00000000000E+00 0. -1.
        -13    1    3    3    0    0  0.40276684909E+01 -0.17183998511E+02  0.27743653105E+03  0.27799737531E+03  0.00000000000E+00 0.  1.
         22    1    1    2    0    0 -0.24613436176E+02 -0.25441501592E+02  0.42180260583E+02  0.55066011536E+02  0.00000000000E+00 0.  1.
<mgrwt>
<rscale>  0 0.74102048E+02</rscale>
<asrwt>0</asrwt>
<pdfrwt beam="1">  1        4 0.19100536E-02 0.94793050E+02</pdfrwt>
<pdfrwt beam="2">  1       -4 0.65346758E-01 0.94793050E+02</pdfrwt>
<totfact> 0.36143798E+03</totfact>
</mgrwt>
</event>
<event>
 6    1  0.1535419E-002  0.9599600E+02  0.7546771E-02  0.1347145E+00
         -1   -1    0    0    0  501 -0.00000000000E+00  0.00000000000E+00  0.40618271707E+02  0.40618271707E+02  0.00000000000E+00 0.  1.
          1   -1    0    0  501    0  0.00000000000E+00 -0.00000000000E+00 -0.26348951967E+03  0.26348951967E+03  0.00000000000E+00 0. -1.
         23    2    1    2    0    0 -0.21196058974E+02 -0.26341977325E+02 -0.19514461547E+02  0.97959409703E+02  0.89844638429E+02 0.  0.
         11    1    3    3    0    0 -0.29397840739E+02  0.27248720101E+02 -0.17416252529E+02  0.43704137555E+02  0.00000000000E+00 0.  1.
        -11    1    3    3    0    0  0.82017817654E+01 -0.53590697426E+02 -0.20982090181E+01  0.54255272148E+02  0.00000000000E+00 0. -1.
         22    1    1    2    0    0  0.21196058974E+02  0.26341977325E+02 -0.20335678642E+03  0.20614838167E+03  0.00000000000E+00 0. -1.
<mgrwt>
<rscale>  0 0.73952665E+02</rscale>
<asrwt>0</asrwt>
<pdfrwt beam="1">  1        1 0.40536851E-01 0.95995999E+02</pdfrwt>
<pdfrwt beam="2">  1       -1 0.62489646E-02 0.95995999E+02</pdfrwt>
<totfact> 0.11852778E+04</totfact>
</mgrwt>
</event>
<event>
 6    1  0.1535419E-002  0.1118966E+03  0.7546771E-02  0.1283526E+00
          2   -1    0    0  501    0  0.00000000000E+00  0.00000000000E+00  0.83674259538E+03  0.83674259538E+03  0.00000000000E+00 0.  1.
         -2   -1    0    0    0  501 -0.00000000000E+00 -0.00000000000E+00 -0.10360939516E+02  0.10360939516E+02  0.00000000000E+00 0. -1.
         23    2    1    2    0    0  0.10895050104E+02  0.66243305296E+02  0.62181658826E+03  0.63180433727E+03  0.89520799523E+02 0.  0.
         11    1    3    3    0    0 -0.12421851399E+01  0.87165868261E+02  0.45961154748E+03  0.46780573553E+03  0.00000000000E+00 0. -1.
        -11    1    3    3    0    0  0.12137235244E+02 -0.20922562965E+02  0.16220504078E+03  0.16399860174E+03  0.00000000000E+00 0.  1.
         22    1    1    2    0    0 -0.10895050104E+02 -0.66243305296E+02  0.20456506760E+03  0.21529919762E+03  0.00000000000E+00 0.  1.
<mgrwt>
<rscale>  0 0.98479802E+02</rscale>
<asrwt>0</asrwt>
<pdfrwt beam="1">  1        2 0.12872958E+00 0.11189661E+03</pdfrwt>
<pdfrwt beam="2">  1       -2 0.15939914E-02 0.11189661E+03</pdfrwt>
<totfact> 0.33410290E+04</totfact>
</mgrwt>
</event>
<event>
 6    1  0.1535419E-002  0.9195724E+02  0.7546771E-02  0.1423978E+00
          2   -1    0    0  501    0  0.00000000000E+00  0.00000000000E+00  0.24494021289E+03  0.24494021289E+03  0.00000000000E+00 0. -1.
         -2   -1    0    0    0  501 -0.00000000000E+00 -0.00000000000E+00 -0.11372433759E+02  0.11372433759E+02  0.00000000000E+00 0.  1.
         23    2    1    2    0    0  0.19321838451E+01 -0.10918405475E+02  0.22198609019E+03  0.24027891872E+03  0.91286305825E+02 0.  0.
         11    1    3    3    0    0  0.74428369209E+01  0.30555280817E+02  0.17310126519E+03  0.17593484310E+03  0.00000000000E+00 0. -1.
        -11    1    3    3    0    0 -0.55106530758E+01 -0.41473686291E+02  0.48884825004E+02  0.64344075621E+02  0.00000000000E+00 0.  1.
         22    1    1    2    0    0 -0.19321838451E+01  0.10918405475E+02  0.11581688937E+02  0.16033727925E+02  0.00000000000E+00 0. -1.
<mgrwt>
<rscale>  0 0.54188019E+02</rscale>
<asrwt>0</asrwt>
<pdfrwt beam="1">  1        2 0.37683106E-01 0.91957243E+02</pdfrwt>
<pdfrwt beam="2">  1       -2 0.17496054E-02 0.91957243E+02</pdfrwt>
<totfact> 0.10982764E+05</totfact>
</mgrwt>
</event>
<event>
 6    1  0.1535419E-002  0.9152456E+02  0.7546771E-02  0.1386045E+00
          4   -1    0    0  501    0  0.00000000000E+00  0.00000000000E+00  0.12664158988E+03  0.12664158988E+03  0.00000000000E+00 0. -1.
         -4   -1    0    0    0  501 -0.00000000000E+00 -0.00000000000E+00 -0.29585566214E+02  0.29585566214E+02  0.00000000000E+00 0.  1.
         23    2    1    2    0    0 -0.81606832648E+01 -0.18716630876E+02  0.10004175646E+03  0.13559166184E+03  0.89217916931E+02 0.  0.
         11    1    3    3    0    0  0.36627659749E+02 -0.16220446215E+02  0.72845784317E+02  0.83133607085E+02  0.00000000000E+00 0. -1.
        -11    1    3    3    0    0 -0.44788343014E+02 -0.24961846608E+01  0.27195972148E+02  0.52458054756E+02  0.00000000000E+00 0.  1.
         22    1    1    2    0    0  0.81606832648E+01  0.18716630876E+02 -0.29857327986E+01  0.20635494252E+02  0.00000000000E+00 0.  1.
<mgrwt>
<rscale>  0 0.62901125E+02</rscale>
<asrwt>0</asrwt>
<pdfrwt beam="1">  1        4 0.19483321E-01 0.91524564E+02</pdfrwt>
<pdfrwt beam="2">  1       -4 0.45516256E-02 0.91524564E+02</pdfrwt>
<totfact> 0.95789421E+03</totfact>
</mgrwt>
</event>
<event>
 6    1  0.1535419E-002  0.9124954E+02  0.7546771E-02  0.1419857E+00
         -2   -1    0    0    0  501 -0.00000000000E+00  0.00000000000E+00  0.22243581197E+01  0.22243581197E+01  0.00000000000E+00 0.  1.
          2   -1    0    0  501    0  0.00000000000E+00 -0.00000000000E+00 -0.13597146951E+04  0.13597146951E+04  0.00000000000E+00 0. -1.
         23    2    1    2    0    0  0.11591762562E+02 -0.34301047954E+01 -0.12996255639E+04  0.13028250401E+04  0.90445255878E+02 0.  0.
         11    1    3    3    0    0  0.14000277283E+02 -0.30678447252E+02 -0.11629569278E+04  0.11634457404E+04  0.00000000000E+00 0. -1.
        -11    1    3    3    0    0 -0.24085147213E+01  0.27248342457E+02 -0.13666863608E+03  0.13937929975E+03  0.00000000000E+00 0.  1.
         22    1    1    2    0    0 -0.11591762562E+02  0.34301047954E+01 -0.57864773144E+02  0.59114013137E+02  0.00000000000E+00 0.  1.
<mgrwt>
<rscale>  0 0.55051245E+02</rscale>
<asrwt>0</asrwt>
<pdfrwt beam="1">  1        2 0.20918658E+00 0.91249542E+02</pdfrwt>
<pdfrwt beam="2">  1       -2 0.34220942E-03 0.91249542E+02</pdfrwt>
<totfact> 0.14433669E+05</totfact>
</mgrwt>
</event>
<event>
 6    1  0.1535419E-002  0.9304331E+02  0.7546771E-02  0.1421619E+00
         -1   -1    0    0    0  501 -0.00000000000E+00  0.00000000000E+00  0.26773537865E+02  0.26773537865E+02  0.00000000000E+00 0.  1.
          1   -1    0    0  501    0  0.00000000000E+00 -0.00000000000E+00 -0.25203561406E+03  0.25203561406E+03  0.00000000000E+00 0. -1.
         23    2    1    2    0    0  0.94525946649E+01  0.58153043834E+01 -0.24169161867E+03  0.25898242307E+03  0.92379043138E+02 0.  0.
         11    1    3    3    0    0  0.35709125027E+00 -0.12503734808E+02  0.34604489465E+01  0.12978659608E+02  0.00000000000E+00 0.  1.
        -11    1    3    3    0    0  0.90955034146E+01  0.18319039191E+02 -0.24515206762E+03  0.24600376346E+03  0.00000000000E+00 0. -1.
         22    1    1    2    0    0 -0.94525946649E+01 -0.58153043834E+01  0.16429542479E+02  0.19826728854E+02  0.00000000000E+00 0.  1.
<mgrwt>
<rscale>  0 0.54679768E+02</rscale>
<asrwt>0</asrwt>
<pdfrwt beam="1">  1        1 0.38774709E-01 0.93043307E+02</pdfrwt>
<pdfrwt beam="2">  1       -1 0.41190059E-02 0.93043307E+02</pdfrwt>
<totfact> 0.22982177E+04</totfact>
</mgrwt>
</event>
<event>
 6    1  0.1535419E-002  0.9478192E+02  0.7546771E-02  0.1378496E+00
         -2   -1    0    0    0  501 -0.00000000000E+00  0.00000000000E+00  0.29707169430E+03  0.29707169430E+03  0.00000000000E+00 0.  1.
          2   -1    0    0  501    0  0.00000000000E+00 -0.00000000000E+00 -0.11880012188E+02  0.11880012188E+02  0.00000000000E+00 0. -1.
         23    2    1    2    0    0 -0.12327971486E+02  0.16734572169E+02  0.20091325940E+03  0.22214803535E+03  0.92474791291E+02 0.  0.
         13    1    3    3    0    0  0.11625228075E+02 -0.24794506997E+02  0.14895338285E+03  0.15144974007E+03  0.00000000000E+00 0.  1.
        -13    1    3    3    0    0 -0.23953199561E+02  0.41529079166E+02  0.51959876550E+02  0.70698295289E+02  0.00000000000E+00 0. -1.
         22    1    1    2    0    0  0.12327971486E+02 -0.16734572169E+02  0.84278422720E+02  0.86803671137E+02  0.00000000000E+00 0. -1.
<mgrwt>
<rscale>  0 0.64860860E+02</rscale>
<asrwt>0</asrwt>
<pdfrwt beam="1">  1        2 0.18276944E-02 0.94781917E+02</pdfrwt>
<pdfrwt beam="2">  1       -2 0.45703332E-01 0.94781917E+02</pdfrwt>
<totfact> 0.25081721E+04</totfact>
</mgrwt>
</event>
<event>
 6    1  0.1535419E-002  0.9114942E+02  0.7546771E-02  0.1405467E+00
         -2   -1    0    0    0  501 -0.00000000000E+00  0.00000000000E+00  0.15944322981E+02  0.15944322981E+02  0.00000000000E+00 0.  1.
          2   -1    0    0  501    0  0.00000000000E+00 -0.00000000000E+00 -0.28529373616E+03  0.28529373616E+03  0.00000000000E+00 0. -1.
         23    2    1    2    0    0  0.44412311952E+01 -0.14504406819E+02 -0.27105784920E+03  0.28597303031E+03  0.89878329413E+02 0.  0.
         11    1    3    3    0    0 -0.10095830016E+02  0.15577043563E+02 -0.23883772754E+03  0.23955798915E+03  0.00000000000E+00 0. -1.
        -11    1    3    3    0    0  0.14537061211E+02 -0.30081450382E+02 -0.32220121664E+02  0.46415041159E+02  0.00000000000E+00 0.  1.
         22    1    1    2    0    0 -0.44412311952E+01  0.14504406819E+02  0.17084360201E+01  0.15265028835E+02  0.00000000000E+00 0.  1.
<mgrwt>
<rscale>  0 0.58217769E+02</rscale>
<asrwt>0</asrwt>
<pdfrwt beam="1">  1        2 0.43891344E-01 0.91149418E+02</pdfrwt>
<pdfrwt beam="2">  1       -2 0.24529728E-02 0.91149418E+02</pdfrwt>
<totfact> 0.57502429E+04</totfact>
</mgrwt>
</event>
<event>
 6    1  0.1535419E-002  0.1502868E+03  0.7546771E-02  0.1210266E+00
          1   -1    0    0  501    0  0.00000000000E+00  0.00000000000E+00  0.36758475553E+03  0.36758475553E+03  0.00000000000E+00 0. -1.
         -1   -1    0    0    0  501 -0.00000000000E+00 -0.00000000000E+00 -0.97470071692E+02  0.97470071692E+02  0.00000000000E+00 0.  1.
         23    2    1    2    0    0 -0.12010342947E+03  0.12955478579E+02  0.30440447080E+03  0.33948226777E+03  0.89406096517E+02 0.  0.
         11    1    3    3    0    0 -0.14515829419E+02  0.10038554486E+02  0.40359983916E+00  0.17653463476E+02  0.00000000000E+00 0.  1.
        -11    1    3    3    0    0 -0.10558760005E+03  0.29169240934E+01  0.30400087096E+03  0.32182880430E+03  0.00000000000E+00 0. -1.
         22    1    1    2    0    0  0.12010342947E+03 -0.12955478579E+02 -0.34289786963E+02  0.12557255945E+03  0.00000000000E+00 0.  1.
<mgrwt>
<rscale>  0 0.14230087E+03</rscale>
<asrwt>0</asrwt>
<pdfrwt beam="1">  1        1 0.56551500E-01 0.15028682E+03</pdfrwt>
<pdfrwt beam="2">  1       -1 0.14995396E-01 0.15028682E+03</pdfrwt>
<totfact> 0.21326794E+03</totfact>
</mgrwt>
</event>
<event>
 6    1  0.1535419E-002  0.1551952E+03  0.7546771E-02  0.1203351E+00
          2   -1    0    0  501    0  0.00000000000E+00  0.00000000000E+00  0.18108357112E+03  0.18108357112E+03  0.00000000000E+00 0. -1.
         -2   -1    0    0    0  501 -0.00000000000E+00 -0.00000000000E+00 -0.12722421208E+03  0.12722421208E+03  0.00000000000E+00 0.  1.
         23    2    1    2    0    0 -0.83255578560E+02 -0.96241183718E+02  0.85485468726E+02  0.17718163166E+03  0.88835288201E+02 0.  0.
         11    1    3    3    0    0 -0.78334773744E+02 -0.58016025869E+02  0.96430679147E+02  0.13711700083E+03  0.00000000000E+00 0. -1.
        -11    1    3    3    0    0 -0.49208048155E+01 -0.38225157849E+02 -0.10945210421E+02  0.40064630833E+02  0.00000000000E+00 0.  1.
         22    1    1    2    0    0  0.83255578560E+02  0.96241183718E+02 -0.31626109679E+02  0.13112615154E+03  0.00000000000E+00 0.  1.
<mgrwt>
<rscale>  0 0.14768201E+03</rscale>
<asrwt>0</asrwt>
<pdfrwt beam="1">  1        2 0.27859011E-01 0.15519525E+03</pdfrwt>
<pdfrwt beam="2">  1       -2 0.19572956E-01 0.15519525E+03</pdfrwt>
<totfact> 0.40181315E+03</totfact>
</mgrwt>
</event>
<event>
 6    1  0.1535419E-002  0.9487696E+02  0.7546771E-02  0.1359173E+00
         -2   -1    0    0    0  501 -0.00000000000E+00  0.00000000000E+00  0.22258172207E+03  0.22258172207E+03  0.00000000000E+00 0.  1.
          2   -1    0    0  501    0  0.00000000000E+00 -0.00000000000E+00 -0.20243145527E+02  0.20243145527E+02  0.00000000000E+00 0. -1.
         23    2    1    2    0    0 -0.28036424296E+02 -0.53981259107E+01  0.10560148636E+03  0.14196235985E+03  0.90479040908E+02 0.  0.
         11    1    3    3    0    0 -0.54822946927E+02 -0.26363556809E+02  0.66043476820E+02  0.89790497648E+02  0.00000000000E+00 0. -1.
        -11    1    3    3    0    0  0.26786522631E+02  0.20965430898E+02  0.39558009537E+02  0.52171862205E+02  0.00000000000E+00 0.  1.
         22    1    1    2    0    0  0.28036424296E+02  0.53981259107E+01  0.96737090186E+02  0.10086250774E+03  0.00000000000E+00 0. -1.
<mgrwt>
<rscale>  0 0.70271192E+02</rscale>
<asrwt>0</asrwt>
<pdfrwt beam="1">  1        2 0.31143302E-02 0.94876961E+02</pdfrwt>
<pdfrwt beam="2">  1       -2 0.34243340E-01 0.94876961E+02</pdfrwt>
<totfact> 0.21083730E+04</totfact>
</mgrwt>
</event>
<event>
 6    1  0.1535419E-002  0.9350210E+02  0.7546771E-02  0.1406199E+00
          2   -1    0    0  501    0  0.00000000000E+00  0.00000000000E+00  0.22516555744E+03  0.22516555744E+03  0.00000000000E+00 0. -1.
         -2   -1    0    0    0  501 -0.00000000000E+00 -0.00000000000E+00 -0.15250196036E+02  0.15250196036E+02  0.00000000000E+00 0.  1.
         23    2    1    2    0    0  0.11002197377E+02  0.84817923517E+01  0.20560991038E+03  0.22587181807E+03  0.92464338012E+02 0.  0.
         11    1    3    3    0    0 -0.14531154764E+02  0.30415351026E+02  0.24527523173E+02  0.41687497284E+02  0.00000000000E+00 0.  1.
        -11    1    3    3    0    0  0.25533352140E+02 -0.21933558674E+02  0.18108238721E+03  0.18418432079E+03  0.00000000000E+00 0. -1.
         22    1    1    2    0    0 -0.11002197377E+02 -0.84817923517E+01  0.43054510271E+01  0.14543935408E+02  0.00000000000E+00 0.  1.
<mgrwt>
<rscale>  0 0.58050724E+02</rscale>
<asrwt>0</asrwt>
<pdfrwt beam="1">  1        2 0.34640853E-01 0.93502101E+02</pdfrwt>
<pdfrwt beam="2">  1       -2 0.23461842E-02 0.93502101E+02</pdfrwt>
<totfact> 0.78919254E+04</totfact>
</mgrwt>
</event>
<event>
 6    1  0.1535419E-002  0.1033957E+03  0.7546771E-02  0.1310857E+00
          2   -1    0    0  501    0  0.00000000000E+00  0.00000000000E+00  0.85351674118E+03  0.85351674118E+03  0.00000000000E+00 0. -1.
         -2   -1    0    0    0  501 -0.00000000000E+00 -0.00000000000E+00 -0.70088237295E+01  0.70088237295E+01  0.00000000000E+00 0.  1.
         23    2    1    2    0    0 -0.51032860326E+02  0.51568617940E+01  0.56657946216E+03  0.57593658736E+03  0.89775941495E+02 0.  0.
         13    1    3    3    0    0 -0.73928135550E+02  0.48177104659E+01  0.50158208214E+03  0.50702383049E+03  0.00000000000E+00 0. -1.
        -13    1    3    3    0    0  0.22895275224E+02  0.33915132814E+00  0.64997380014E+02  0.68912756874E+02  0.00000000000E+00 0.  1.
         22    1    1    2    0    0  0.51032860326E+02 -0.51568617940E+01  0.27992845529E+03  0.28458897754E+03  0.00000000000E+00 0. -1.
<mgrwt>
<rscale>  0 0.86774231E+02</rscale>
<asrwt>0</asrwt>
<pdfrwt beam="1">  1        2 0.13131019E+00 0.10339568E+03</pdfrwt>
<pdfrwt beam="2">  1       -2 0.10782812E-02 0.10339568E+03</pdfrwt>
<totfact> 0.56499611E+04</totfact>
</mgrwt>
</event>
<event>
 6    1  0.1535419E-002  0.8956820E+02  0.7546771E-02  0.1421128E+00
         -2   -1    0    0    0  501 -0.00000000000E+00  0.00000000000E+00  0.46760075637E+01  0.46760075637E+01  0.00000000000E+00 0.  1.
          2   -1    0    0  501    0  0.00000000000E+00 -0.00000000000E+00 -0.91109314362E+03  0.91109314362E+03  0.00000000000E+00 0. -1.
         23    2    1    2    0    0  0.12504258296E+02  0.87719747500E+00 -0.89272010040E+03  0.89720211758E+03  0.88686730625E+02 0.  0.
         13    1    3    3    0    0 -0.17314655420E+02  0.26782208880E+01 -0.36769835531E+02  0.40730712791E+02  0.00000000000E+00 0.  1.
        -13    1    3    3    0    0  0.29818913716E+02 -0.18010234130E+01 -0.85595026486E+03  0.85647140479E+03  0.00000000000E+00 0. -1.
         22    1    1    2    0    0 -0.12504258296E+02 -0.87719747500E+00 -0.13697035660E+02  0.18567033603E+02  0.00000000000E+00 0. -1.
<mgrwt>
<rscale>  0 0.54783070E+02</rscale>
<asrwt>0</asrwt>
<pdfrwt beam="1">  1        2 0.14016825E+00 0.89568198E+02</pdfrwt>
<pdfrwt beam="2">  1       -2 0.71938539E-03 0.89568198E+02</pdfrwt>
<totfact> 0.90577439E+04</totfact>
</mgrwt>
</event>
<event>
 6    1  0.1535419E-002  0.9498476E+02  0.7546771E-02  0.1357487E+00
         -2   -1    0    0    0  501 -0.00000000000E+00  0.00000000000E+00  0.23440540803E+03  0.23440540803E+03  0.00000000000E+00 0. -1.
          2   -1    0    0  501    0  0.00000000000E+00 -0.00000000000E+00 -0.22309947072E+02  0.22309947072E+02  0.00000000000E+00 0.  1.
         23    2    1    2    0    0  0.83651959278E+01  0.28053415428E+02  0.88926828247E+02  0.13011566038E+03  0.90361129218E+02 0.  0.
         13    1    3    3    0    0 -0.28930342512E+02  0.28780493792E+02  0.82804500037E+02  0.92313957596E+02  0.00000000000E+00 0. -1.
        -13    1    3    3    0    0  0.37295538440E+02 -0.72707836428E+00  0.61223282104E+01  0.37801702782E+02  0.00000000000E+00 0.  1.
         22    1    1    2    0    0 -0.83651959278E+01 -0.28053415428E+02  0.12316863271E+03  0.12659969473E+03  0.00000000000E+00 0. -1.
<mgrwt>
<rscale>  0 0.70771953E+02</rscale>
<asrwt>0</asrwt>
<pdfrwt beam="1">  1        2 0.34322997E-02 0.94984758E+02</pdfrwt>
<pdfrwt beam="2">  1       -2 0.36062369E-01 0.94984758E+02</pdfrwt>
<totfact> 0.16860829E+04</totfact>
</mgrwt>
</event>
<event>
 6    1  0.1535419E-002  0.8936928E+02  0.7546771E-02  0.1420273E+00
         -2   -1    0    0    0  501 -0.00000000000E+00  0.00000000000E+00  0.19349091338E+02  0.19349091338E+02  0.00000000000E+00 0.  1.
          2   -1    0    0  501    0  0.00000000000E+00 -0.00000000000E+00 -0.16468844774E+03  0.16468844774E+03  0.00000000000E+00 0. -1.
         23    2    1    2    0    0 -0.85013012834E+01  0.95499507597E+01 -0.14605953653E+03  0.17123158959E+03  0.88449959740E+02 0.  0.
         13    1    3    3    0    0  0.30044777950E+01 -0.37070163702E+02 -0.90216653782E+02  0.97582111800E+02  0.00000000000E+00 0.  1.
        -13    1    3    3    0    0 -0.11505779078E+02  0.46620114462E+02 -0.55842882746E+02  0.73649477785E+02  0.00000000000E+00 0. -1.
         22    1    1    2    0    0  0.85013012834E+01 -0.95499507597E+01  0.72018012602E+00  0.12805949494E+02  0.00000000000E+00 0.  1.
<mgrwt>
<rscale>  0 0.54963223E+02</rscale>
<asrwt>0</asrwt>
<pdfrwt beam="1">  1        2 0.25336684E-01 0.89369285E+02</pdfrwt>
<pdfrwt beam="2">  1       -2 0.29767833E-02 0.89369285E+02</pdfrwt>
<totfact> 0.77650979E+04</totfact>
</mgrwt>
</event>
<event>
 6    1  0.1535419E-002  0.9132814E+02  0.7546771E-02  0.1415710E+00
          2   -1    0    0  501    0  0.00000000000E+00  0.00000000000E+00  0.31943916624E+02  0.31943916624E+02  0.00000000000E+00 0. -1.
         -2   -1    0    0    0  501 -0.00000000000E+00 -0.00000000000E+00 -0.10015252297E+03  0.10015252297E+03  0.00000000000E+00 0.  1.
         23    2    1    2    0    0 -0.55663073882E+01  0.11586533407E+02 -0.37355113949E+02  0.98672353557E+02  0.90419009528E+02 0.  0.
         11    1    3    3    0    0  0.34824094129E+02 -0.66398841196E+01  0.68207565448E+01  0.36101638646E+02  0.00000000000E+00 0. -1.
        -11    1    3    3    0    0 -0.40390401518E+02  0.18226417526E+02 -0.44175870494E+02  0.62570714911E+02  0.00000000000E+00 0.  1.
         22    1    1    2    0    0  0.55663073882E+01 -0.11586533407E+02 -0.30853492393E+02  0.33424086034E+02  0.00000000000E+00 0.  1.
<mgrwt>
<rscale>  0 0.55939048E+02</rscale>
<asrwt>0</asrwt>
<pdfrwt beam="1">  1        2 0.49144488E-02 0.91328138E+02</pdfrwt>
<pdfrwt beam="2">  1       -2 0.15408080E-01 0.91328138E+02</pdfrwt>
<totfact> 0.45371378E+04</totfact>
</mgrwt>
</event>
<event>
 6    1  0.1535419E-002  0.9485702E+02  0.7546771E-02  0.1400587E+00
          2   -1    0    0  501    0  0.00000000000E+00  0.00000000000E+00  0.72416946842E+03  0.72416946842E+03  0.00000000000E+00 0. -1.
         -2   -1    0    0    0  501 -0.00000000000E+00 -0.00000000000E+00 -0.90602021823E+01  0.90602021823E+01  0.00000000000E+00 0.  1.
         23    2    1    2    0    0  0.13586575531E+02  0.51654740887E+01  0.71209493556E+03  0.71838503027E+03  0.93736744731E+02 0.  0.
         11    1    3    3    0    0  0.24171259836E+02  0.12201304643E+02  0.56356257275E+02  0.62523190666E+02  0.00000000000E+00 0.  1.
        -11    1    3    3    0    0 -0.10584684305E+02 -0.70358305539E+01  0.65573867828E+03  0.65586183960E+03  0.00000000000E+00 0. -1.
         22    1    1    2    0    0 -0.13586575531E+02 -0.51654740887E+01  0.30143306836E+01  0.14844640335E+02  0.00000000000E+00 0.  1.
<mgrwt>
<rscale>  0 0.59348354E+02</rscale>
<asrwt>0</asrwt>
<pdfrwt beam="1">  1        2 0.11141064E+00 0.94857021E+02</pdfrwt>
<pdfrwt beam="2">  1       -2 0.13938778E-02 0.94857021E+02</pdfrwt>
<totfact> 0.47427524E+04</totfact>
</mgrwt>
</event>
<event>
 6    1  0.1535419E-002  0.9067147E+02  0.7546771E-02  0.1412614E+00
          2   -1    0    0  501    0  0.00000000000E+00  0.00000000000E+00  0.23686058293E+04  0.23686058293E+04  0.00000000000E+00 0.  1.
         -2   -1    0    0    0  501 -0.00000000000E+00 -0.00000000000E+00 -0.15314638522E+01  0.15314638522E+01  0.00000000000E+00 0. -1.
         23    2    1    2    0    0  0.11034011988E+02 -0.82572679350E+01  0.22929876076E+04  0.22947796155E+04  0.89617984607E+02 0.  0.
         11    1    3    3    0    0  0.23774993096E+02 -0.23227663998E+02  0.32527355001E+03  0.32696736383E+03  0.00000000000E+00 0. -1.
        -11    1    3    3    0    0 -0.12740981108E+02  0.14970396063E+02  0.19677140576E+04  0.19678122517E+04  0.00000000000E+00 0.  1.
         22    1    1    2    0    0 -0.11034011988E+02  0.82572679350E+01  0.74086757845E+02  0.75357677659E+02  0.00000000000E+00 0.  1.
<mgrwt>
<rscale>  0 0.56614506E+02</rscale>
<asrwt>0</asrwt>
<pdfrwt beam="1">  1        2 0.36439796E+00 0.90671468E+02</pdfrwt>
<pdfrwt beam="2">  1       -2 0.23561172E-03 0.90671468E+02</pdfrwt>
<totfact> 0.74638780E+04</totfact>
</mgrwt>
</event>
<event>
 6    1  0.1535419E-002  0.1078344E+03  0.7546771E-02  0.1373265E+00
         -2   -1    0    0    0  501 -0.00000000000E+00  0.00000000000E+00  0.21553838278E+02  0.21553838278E+02  0.00000000000E+00 0.  1.
          2   -1    0    0  501    0  0.00000000000E+00 -0.00000000000E+00 -0.21161306883E+03  0.21161306883E+03  0.00000000000E+00 0. -1.
         23    2    1    2    0    0 -0.14374235151E+02  0.54687457835E+01 -0.18918887134E+03  0.21776290303E+03  0.10673203400E+03 0.  0.
         11    1    3    3    0    0 -0.12622585406E+02  0.55932820691E+02 -0.10027404744E+03  0.11551058256E+03  0.00000000000E+00 0. -1.
        -11    1    3    3    0    0 -0.17516497450E+01 -0.50464074907E+02 -0.88914823897E+02  0.10225232047E+03  0.00000000000E+00 0.  1.
         22    1    1    2    0    0  0.14374235151E+02 -0.54687457835E+01 -0.87035921818E+00  0.15404004083E+02  0.00000000000E+00 0.  1.
<mgrwt>
<rscale>  0 0.66267829E+02</rscale>
<asrwt>0</asrwt>
<pdfrwt beam="1">  1        2 0.32555856E-01 0.10783438E+03</pdfrwt>
<pdfrwt beam="2">  1       -2 0.33159752E-02 0.10783438E+03</pdfrwt>
<totfact> 0.51965293E+04</totfact>
</mgrwt>
</event>
<event>
 6    1  0.1535419E-002  0.9268866E+02  0.7546771E-02  0.1410122E+00
          2   -1    0    0  501    0  0.00000000000E+00  0.00000000000E+00  0.16400403075E+03  0.16400403075E+03  0.00000000000E+00 0. -1.
         -2   -1    0    0    0  501 -0.00000000000E+00 -0.00000000000E+00 -0.17522147453E+02  0.17522147453E+02  0.00000000000E+00 0.  1.
         23    2    1    2    0    0 -0.84387081251E+01 -0.10424423314E+02  0.13561766205E+03  0.16426605944E+03  0.91713181328E+02 0.  0.
         11    1    3    3    0    0  0.28639656841E+02 -0.37191424290E+02  0.67100709397E+02  0.81889786826E+02  0.00000000000E+00 0. -1.
        -11    1    3    3    0    0 -0.37078364966E+02  0.26767000976E+02  0.68516952650E+02  0.82376272617E+02  0.00000000000E+00 0.  1.
         22    1    1    2    0    0  0.84387081251E+01  0.10424423314E+02  0.10864221249E+02  0.17260118760E+02  0.00000000000E+00 0.  1.
<mgrwt>
<rscale>  0 0.57166676E+02</rscale>
<asrwt>0</asrwt>
<pdfrwt beam="1">  1        2 0.25231388E-01 0.92688662E+02</pdfrwt>
<pdfrwt beam="2">  1       -2 0.26957151E-02 0.92688662E+02</pdfrwt>
<totfact> 0.90570114E+04</totfact>
</mgrwt>
</event>
<event>
 6    1  0.1535419E-002  0.9789390E+02  0.7546771E-02  0.1389136E+00
         -2   -1    0    0    0  501 -0.00000000000E+00  0.00000000000E+00  0.46725321051E+02  0.46725321051E+02  0.00000000000E+00 0.  1.
          2   -1    0    0  501    0  0.00000000000E+00 -0.00000000000E+00 -0.11502021947E+03  0.11502021947E+03  0.00000000000E+00 0. -1.
         23    2    1    2    0    0  0.15635354108E+02 -0.27490284689E+01 -0.91255518820E+02  0.13383117961E+03  0.96598102798E+02 0.  0.
         11    1    3    3    0    0 -0.33337534716E+02  0.19922688837E+02 -0.17900792300E+02  0.42763806150E+02  0.00000000000E+00 0.  1.
        -11    1    3    3    0    0  0.48972888825E+02 -0.22671717306E+02 -0.73354726520E+02  0.91067373457E+02  0.00000000000E+00 0. -1.
         22    1    1    2    0    0 -0.15635354108E+02  0.27490284689E+01  0.22960620406E+02  0.27914360911E+02  0.00000000000E+00 0.  1.
<mgrwt>
<rscale>  0 0.62122139E+02</rscale>
<asrwt>0</asrwt>
<pdfrwt beam="1">  1        2 0.17695418E-01 0.97893896E+02</pdfrwt>
<pdfrwt beam="2">  1       -2 0.71885110E-02 0.97893896E+02</pdfrwt>
<totfact> 0.31680286E+04</totfact>
</mgrwt>
</event>
<event>
 6    1  0.1535419E-002  0.8379134E+02  0.7546771E-02  0.1404400E+00
         -4   -1    0    0    0  501 -0.00000000000E+00  0.00000000000E+00  0.11589343779E+03  0.11589343779E+03  0.00000000000E+00 0.  1.
          4   -1    0    0  501    0  0.00000000000E+00 -0.00000000000E+00 -0.23447932147E+02  0.23447932147E+02  0.00000000000E+00 0. -1.
         23    2    1    2    0    0 -0.48071096275E+01  0.19266128279E+02  0.68455498480E+02  0.10819955808E+03  0.81404527488E+02 0.  0.
         13    1    3    3    0    0 -0.39822915627E+02  0.23399604296E+02  0.25970569145E+02  0.52989400373E+02  0.00000000000E+00 0.  1.
        -13    1    3    3    0    0  0.35015805999E+02 -0.41334760176E+01  0.42484929335E+02  0.55210157710E+02  0.00000000000E+00 0. -1.
         22    1    1    2    0    0  0.48071096275E+01 -0.19266128279E+02  0.23990007166E+02  0.31141811855E+02  0.00000000000E+00 0. -1.
<mgrwt>
<rscale>  0 0.58462396E+02</rscale>
<asrwt>0</asrwt>
<pdfrwt beam="1">  1        4 0.36073742E-02 0.83791343E+02</pdfrwt>
<pdfrwt beam="2">  1       -4 0.17829759E-01 0.83791343E+02</pdfrwt>
<totfact> 0.15718561E+04</totfact>
</mgrwt>
</event>
<event>
 6    1  0.1535419E-002  0.9538631E+02  0.7546771E-02  0.1371583E+00
          2   -1    0    0  501    0  0.00000000000E+00  0.00000000000E+00  0.59893333229E+03  0.59893333229E+03  0.00000000000E+00 0. -1.
         -2   -1    0    0    0  501 -0.00000000000E+00 -0.00000000000E+00 -0.63025887662E+01  0.63025887662E+01  0.00000000000E+00 0.  1.
         23    2    1    2    0    0 -0.16612246995E+02 -0.15682848376E+02  0.53116753324E+03  0.53966424500E+03  0.92610099187E+02 0.  0.
         11    1    3    3    0    0  0.24871626922E+02  0.17559956933E+01  0.40401390904E+03  0.40478255897E+03  0.00000000000E+00 0. -1.
        -11    1    3    3    0    0 -0.41483873917E+02 -0.17438844069E+02  0.12715362420E+03  0.13488168603E+03  0.00000000000E+00 0.  1.
         22    1    1    2    0    0  0.16612246995E+02  0.15682848376E+02  0.61463210279E+02  0.65571676059E+02  0.00000000000E+00 0.  1.
<mgrwt>
<rscale>  0 0.66729041E+02</rscale>
<asrwt>0</asrwt>
<pdfrwt beam="1">  1        2 0.92143545E-01 0.95386314E+02</pdfrwt>
<pdfrwt beam="2">  1       -2 0.96962952E-03 0.95386314E+02</pdfrwt>
<totfact> 0.98879359E+04</totfact>
</mgrwt>
</event>
<event>
 6    1  0.1535419E-002  0.8449774E+02  0.7546771E-02  0.1431335E+00
          2   -1    0    0  501    0  0.00000000000E+00  0.00000000000E+00  0.13509241968E+02  0.13509241968E+02  0.00000000000E+00 0. -1.
         -2   -1    0    0    0  501 -0.00000000000E+00 -0.00000000000E+00 -0.17858985456E+03  0.17858985456E+03  0.00000000000E+00 0.  1.
         23    2    1    2    0    0  0.11612774769E+02  0.53320271528E+01 -0.13305421359E+03  0.15761754662E+03  0.83525925289E+02 0.  0.
         11    1    3    3    0    0 -0.22547392674E+02  0.27716457708E+02 -0.29613862954E+02  0.46406549358E+02  0.00000000000E+00 0. -1.
        -11    1    3    3    0    0  0.34160167443E+02 -0.22384430555E+02 -0.10344035064E+03  0.11121099726E+03  0.00000000000E+00 0.  1.
         22    1    1    2    0    0 -0.11612774769E+02 -0.53320271528E+01 -0.32026398998E+02  0.34481549910E+02  0.00000000000E+00 0.  1.
<mgrwt>
<rscale>  0 0.52692981E+02</rscale>
<asrwt>0</asrwt>
<pdfrwt beam="1">  1        2 0.20783450E-02 0.84497735E+02</pdfrwt>
<pdfrwt beam="2">  1       -2 0.27475361E-01 0.84497735E+02</pdfrwt>
<totfact> 0.52789810E+04</totfact>
</mgrwt>
</event>
<event>
 6    1  0.1535419E-002  0.9997099E+02  0.7546771E-02  0.1410422E+00
         -2   -1    0    0    0  501 -0.00000000000E+00  0.00000000000E+00  0.43041544225E+01  0.43041544225E+01  0.00000000000E+00 0.  1.
          2   -1    0    0  501    0  0.00000000000E+00 -0.00000000000E+00 -0.87949809235E+03  0.87949809235E+03  0.00000000000E+00 0. -1.
         23    2    1    2    0    0 -0.76789157759E+01 -0.73641362749E+01 -0.85632246748E+03  0.86213825251E+03  0.99403228713E+02 0.  0.
         13    1    3    3    0    0  0.30877249185E+02  0.53343618941E+01 -0.69772247000E+03  0.69842573340E+03  0.00000000000E+00 0. -1.
        -13    1    3    3    0    0 -0.38556164961E+02 -0.12698498169E+02 -0.15859999749E+03  0.16371251911E+03  0.00000000000E+00 0.  1.
         22    1    1    2    0    0  0.76789157759E+01  0.73641362749E+01 -0.18871470447E+02  0.21663994263E+02  0.00000000000E+00 0.  1.
<mgrwt>
<rscale>  0 0.57099787E+02</rscale>
<asrwt>0</asrwt>
<pdfrwt beam="1">  1        2 0.13530748E+00 0.99970986E+02</pdfrwt>
<pdfrwt beam="2">  1       -2 0.66217721E-03 0.99970986E+02</pdfrwt>
<totfact> 0.10804342E+05</totfact>
</mgrwt>
</event>
<event>
 6    1  0.1535419E-002  0.9191431E+02  0.7546771E-02  0.1426991E+00
         -2   -1    0    0    0  501 -0.00000000000E+00  0.00000000000E+00  0.72440041197E+02  0.72440041197E+02  0.00000000000E+00 0.  1.
          2   -1    0    0  501    0  0.00000000000E+00 -0.00000000000E+00 -0.41329859664E+02  0.41329859664E+02  0.00000000000E+00 0. -1.
         23    2    1    2    0    0  0.69345171135E+01  0.80232249238E+01  0.13063444597E+02  0.92838002242E+02  0.91300500600E+02 0.  0.
         11    1    3    3    0    0  0.40976944898E+02  0.11087649478E+02 -0.18506459664E+02  0.46309124732E+02  0.00000000000E+00 0. -1.
        -11    1    3    3    0    0 -0.34042427784E+02 -0.30644245540E+01  0.31569904261E+02  0.46528877510E+02  0.00000000000E+00 0.  1.
         22    1    1    2    0    0 -0.69345171135E+01 -0.80232249238E+01  0.18046736936E+02  0.20931898619E+02  0.00000000000E+00 0.  1.
<mgrwt>
<rscale>  0 0.53568805E+02</rscale>
<asrwt>0</asrwt>
<pdfrwt beam="1">  1        2 0.63584399E-02 0.91914314E+02</pdfrwt>
<pdfrwt beam="2">  1       -2 0.11144622E-01 0.91914314E+02</pdfrwt>
<totfact> 0.54766897E+04</totfact>
</mgrwt>
</event>
<event>
 6    1  0.1535419E-002  0.9272374E+02  0.7546771E-02  0.1408967E+00
          2   -1    0    0  501    0  0.00000000000E+00  0.00000000000E+00  0.90641913540E+02  0.90641913540E+02  0.00000000000E+00 0.  1.
         -2   -1    0    0    0  501 -0.00000000000E+00 -0.00000000000E+00 -0.52960384232E+02  0.52960384232E+02  0.00000000000E+00 0. -1.
         23    2    1    2    0    0 -0.13306968821E+02  0.29978434795E+01  0.64884454120E+02  0.11317103748E+03  0.91714932549E+02 0.  0.
         11    1    3    3    0    0  0.17995946002E+01 -0.32206600601E+01  0.86220294512E+02  0.86299191060E+02  0.00000000000E+00 0.  1.
        -11    1    3    3    0    0 -0.15106563421E+02  0.62185035396E+01 -0.21335840391E+02  0.26871846417E+02  0.00000000000E+00 0. -1.
         22    1    1    2    0    0  0.13306968821E+02 -0.29978434795E+01 -0.27202924812E+02  0.30431260294E+02  0.00000000000E+00 0. -1.
<mgrwt>
<rscale>  0 0.57424939E+02</rscale>
<asrwt>0</asrwt>
<pdfrwt beam="1">  1        2 0.13944910E-01 0.92723737E+02</pdfrwt>
<pdfrwt beam="2">  1       -2 0.81477514E-02 0.92723737E+02</pdfrwt>
<totfact> 0.34202464E+04</totfact>
</mgrwt>
</event>
<event>
 6    1  0.1535419E-002  0.9260805E+02  0.7546771E-02  0.1406373E+00
         -2   -1    0    0    0  501 -0.00000000000E+00  0.00000000000E+00  0.29263595079E+02  0.29263595079E+02  0.00000000000E+00 0.  1.
          2   -1    0    0  501    0  0.00000000000E+00 -0.00000000000E+00 -0.10574717043E+03  0.10574717043E+03  0.00000000000E+00 0. -1.
         23    2    1    2    0    0  0.40205589114E+01 -0.13680802065E+02 -0.77439781335E+02  0.12071938457E+03  0.91503665718E+02 0.  0.
         13    1    3    3    0    0  0.23979660202E+02 -0.35238299112E+02 -0.80595117396E+02  0.91172006536E+02  0.00000000000E+00 0. -1.
        -13    1    3    3    0    0 -0.19959101291E+02  0.21557497047E+02  0.31553360614E+01  0.29547378039E+02  0.00000000000E+00 0.  1.
         22    1    1    2    0    0 -0.40205589114E+01  0.13680802065E+02  0.95620598392E+00  0.14291380933E+02  0.00000000000E+00 0.  1.
<mgrwt>
<rscale>  0 0.58011156E+02</rscale>
<asrwt>0</asrwt>
<pdfrwt beam="1">  1        2 0.16268795E-01 0.92608045E+02</pdfrwt>
<pdfrwt beam="2">  1       -2 0.45020916E-02 0.92608045E+02</pdfrwt>
<totfact> 0.69785292E+04</totfact>
</mgrwt>
</event>
<event>
 6    1  0.1535419E-002  0.1010168E+03  0.7546771E-02  0.1404520E+00
         -2   -1    0    0    0  501 -0.00000000000E+00  0.00000000000E+00  0.21676041697E+01  0.21676041697E+01  0.00000000000E+00 0.  1.
          2   -1    0    0  501    0  0.00000000000E+00 -0.00000000000E+00 -0.24411114180E+04  0.24411114180E+04  0.00000000000E+00 0. -1.
         23    2    1    2    0    0 -0.11298861368E+02 -0.52458639523E+00 -0.24112403608E+04  0.24133554400E+04  0.10038158617E+03 0.  0.
         11    1    3    3    0    0  0.96481379499E+01  0.13260022005E+02 -0.22593195897E+04  0.22593791012E+04  0.00000000000E+00 0. -1.
        -11    1    3    3    0    0 -0.20946999318E+02 -0.13784608400E+02 -0.15192077115E+03  0.15397633882E+03  0.00000000000E+00 0.  1.
         22    1    1    2    0    0  0.11298861368E+02  0.52458639523E+00 -0.27703453021E+02  0.29923582145E+02  0.00000000000E+00 0.  1.
<mgrwt>
<rscale>  0 0.58434711E+02</rscale>
<asrwt>0</asrwt>
<pdfrwt beam="1">  1        2 0.37555612E+00 0.10101684E+03</pdfrwt>
<pdfrwt beam="2">  1       -2 0.33347710E-03 0.10101684E+03</pdfrwt>
<totfact> 0.42531150E+04</totfact>
</mgrwt>
</event>
<event>
 6    1  0.1535419E-002  0.9416589E+02  0.7546771E-02  0.1375738E+00
         -3   -1    0    0    0  501 -0.00000000000E+00  0.00000000000E+00  0.13647562893E+03  0.13647562893E+03  0.00000000000E+00 0.  1.
          3   -1    0    0  501    0  0.00000000000E+00 -0.00000000000E+00 -0.51321851750E+02  0.51321851750E+02  0.00000000000E+00 0. -1.
         23    2    1    2    0    0  0.30655362062E+01  0.21962416406E+02 -0.56402496131E+01  0.94334650914E+02  0.91517586839E+02 0.  0.
         11    1    3    3    0    0  0.17199428863E+01  0.25238195742E+02  0.40666613698E+02  0.47892569335E+02  0.00000000000E+00 0.  1.
        -11    1    3    3    0    0  0.13455933199E+01 -0.32757793357E+01 -0.46306863312E+02  0.46442081579E+02  0.00000000000E+00 0. -1.
         22    1    1    2    0    0 -0.30655362062E+01 -0.21962416406E+02  0.90794026789E+02  0.93462829762E+02  0.00000000000E+00 0.  1.
<mgrwt>
<rscale>  0 0.65597565E+02</rscale>
<asrwt>0</asrwt>
<pdfrwt beam="1">  1        3 0.78956695E-02 0.94165885E+02</pdfrwt>
<pdfrwt beam="2">  1       -3 0.20996250E-01 0.94165885E+02</pdfrwt>
<totfact> 0.47310949E+03</totfact>
</mgrwt>
</event>
<event>
 6    1  0.1535419E-002  0.9260549E+02  0.7546771E-02  0.1412812E+00
         -2   -1    0    0    0  501 -0.00000000000E+00  0.00000000000E+00  0.57528818354E+01  0.57528818354E+01  0.00000000000E+00 0.  1.
          2   -1    0    0  501    0  0.00000000000E+00 -0.00000000000E+00 -0.54081393556E+03  0.54081393556E+03  0.00000000000E+00 0. -1.
         23    2    1    2    0    0  0.10842802007E+02 -0.69821157717E+01 -0.51044344830E+03  0.51877576141E+03  0.91703110179E+02 0.  0.
         13    1    3    3    0    0  0.29870623152E+02 -0.36013603182E+01 -0.48893703694E+03  0.48986186830E+03  0.00000000000E+00 0. -1.
        -13    1    3    3    0    0 -0.19027821146E+02 -0.33807554535E+01 -0.21506411355E+02  0.28913893103E+02  0.00000000000E+00 0.  1.
         22    1    1    2    0    0 -0.10842802007E+02  0.69821157717E+01 -0.24617605423E+02  0.27791055985E+02  0.00000000000E+00 0.  1.
<mgrwt>
<rscale>  0 0.56571071E+02</rscale>
<asrwt>0</asrwt>
<pdfrwt beam="1">  1        2 0.83202162E-01 0.92605490E+02</pdfrwt>
<pdfrwt beam="2">  1       -2 0.88505855E-03 0.92605490E+02</pdfrwt>
<totfact> 0.12544369E+05</totfact>
</mgrwt>
</event>
<event>
 6    1  0.1535419E-002  0.8516858E+02  0.7546771E-02  0.1418958E+00
          2   -1    0    0  501    0  0.00000000000E+00  0.00000000000E+00  0.10929813469E+03  0.10929813469E+03  0.00000000000E+00 0.  1.
         -2   -1    0    0    0  501 -0.00000000000E+00 -0.00000000000E+00 -0.26064587266E+02  0.26064587266E+02  0.00000000000E+00 0. -1.
         23    2    1    2    0    0  0.47313192879E+01  0.14312634903E+02  0.84825878179E+02  0.12020447610E+03  0.83823920008E+02 0.  0.
         11    1    3    3    0    0  0.11463786131E+02 -0.31556604408E+02  0.15928143298E+02  0.37161047121E+02  0.00000000000E+00 0. -1.
        -11    1    3    3    0    0 -0.67324668434E+01  0.45869239311E+02  0.68897734882E+02  0.83043428979E+02  0.00000000000E+00 0.  1.
         22    1    1    2    0    0 -0.47313192879E+01 -0.14312634903E+02 -0.15923307592E+01  0.15158245852E+02  0.00000000000E+00 0. -1.
<mgrwt>
<rscale>  0 0.55242001E+02</rscale>
<asrwt>0</asrwt>
<pdfrwt beam="1">  1        2 0.16815097E-01 0.85168577E+02</pdfrwt>
<pdfrwt beam="2">  1       -2 0.40099366E-02 0.85168577E+02</pdfrwt>
<totfact> 0.78705498E+04</totfact>
</mgrwt>
</event>
<event>
 6    1  0.1535419E-002  0.9591354E+02  0.7546771E-02  0.1346663E+00
          2   -1    0    0  501    0  0.00000000000E+00  0.00000000000E+00  0.11606657795E+04  0.11606657795E+04  0.00000000000E+00 0. -1.
         -2   -1    0    0    0  501 -0.00000000000E+00 -0.00000000000E+00 -0.56217140869E+01  0.56217140869E+01  0.00000000000E+00 0.  1.
         23    2    1    2    0    0  0.33899448655E+02  0.43657720047E+01  0.10747514149E+04  0.10790227108E+04  0.89616817948E+02 0.  0.
         13    1    3    3    0    0  0.46165492076E+02 -0.17637952011E+02  0.31494958043E+03  0.31880336921E+03  0.00000000000E+00 0.  1.
        -13    1    3    3    0    0 -0.12266043421E+02  0.22003724016E+02  0.75980183449E+03  0.76021934163E+03  0.00000000000E+00 0. -1.
         22    1    1    2    0    0 -0.33899448655E+02 -0.43657720047E+01  0.80292650513E+02  0.87264782763E+02  0.00000000000E+00 0.  1.
<mgrwt>
<rscale>  0 0.74105612E+02</rscale>
<asrwt>0</asrwt>
<pdfrwt beam="1">  1        2 0.17856378E+00 0.95913537E+02</pdfrwt>
<pdfrwt beam="2">  1       -2 0.86488001E-03 0.95913537E+02</pdfrwt>
<totfact> 0.50479824E+04</totfact>
</mgrwt>
</event>
<event>
 6    1  0.1535419E-002  0.9183989E+02  0.7546771E-02  0.1395023E+00
         -4   -1    0    0    0  501 -0.00000000000E+00  0.00000000000E+00  0.19425794431E+02  0.19425794431E+02  0.00000000000E+00 0. -1.
          4   -1    0    0  501    0  0.00000000000E+00 -0.00000000000E+00 -0.15412458570E+03  0.15412458570E+03  0.00000000000E+00 0.  1.
         23    2    1    2    0    0 -0.17493615914E+02 -0.27052430723E+00 -0.11035111619E+03  0.14356856793E+03  0.90158000596E+02 0.  0.
         13    1    3    3    0    0 -0.30043505525E+02 -0.13520565811E+02 -0.12687755662E+01  0.32970103360E+02  0.00000000000E+00 0. -1.
        -13    1    3    3    0    0  0.12549889611E+02  0.13250041504E+02 -0.10908234062E+03  0.11059846457E+03  0.00000000000E+00 0.  1.
         22    1    1    2    0    0  0.17493615914E+02  0.27052430723E+00 -0.24347675080E+02  0.29981812203E+02  0.00000000000E+00 0. -1.
<mgrwt>
<rscale>  0 0.60674525E+02</rscale>
<asrwt>0</asrwt>
<pdfrwt beam="1">  1        4 0.23711474E-01 0.91839887E+02</pdfrwt>
<pdfrwt beam="2">  1       -4 0.29885838E-02 0.91839887E+02</pdfrwt>
<totfact> 0.13030916E+04</totfact>
</mgrwt>
</event>
<event>
 6    1  0.1535419E-002  0.9105164E+02  0.7546771E-02  0.1417862E+00
          2   -1    0    0  501    0  0.00000000000E+00  0.00000000000E+00  0.86133873803E+03  0.86133873803E+03  0.00000000000E+00 0. -1.
         -2   -1    0    0    0  501 -0.00000000000E+00 -0.00000000000E+00 -0.32680438608E+01  0.32680438608E+01  0.00000000000E+00 0.  1.
         23    2    1    2    0    0 -0.11077769080E+02 -0.58922928068E+01  0.80184727295E+03  0.80700027899E+03  0.90182953368E+02 0.  0.
         13    1    3    3    0    0  0.27481101901E+02  0.27835732897E+02  0.29824981715E+03  0.30080391024E+03  0.00000000000E+00 0. -1.
        -13    1    3    3    0    0 -0.38558870981E+02 -0.33728025704E+02  0.50359745580E+03  0.50619636875E+03  0.00000000000E+00 0.  1.
         22    1    1    2    0    0  0.11077769080E+02  0.58922928068E+01  0.56223421224E+02  0.57606502901E+02  0.00000000000E+00 0. -1.
<mgrwt>
<rscale>  0 0.55475837E+02</rscale>
<asrwt>0</asrwt>
<pdfrwt beam="1">  1        2 0.13251347E+00 0.91051640E+02</pdfrwt>
<pdfrwt beam="2">  1       -2 0.50277666E-03 0.91051640E+02</pdfrwt>
<totfact> 0.16128064E+05</totfact>
</mgrwt>
</event>
<event>
 6    1  0.1535419E-002  0.9759565E+02  0.7546771E-02  0.1340330E+00
          2   -1    0    0  501    0  0.00000000000E+00  0.00000000000E+00  0.58903282237E+03  0.58903282237E+03  0.00000000000E+00 0. -1.
         -2   -1    0    0    0  501 -0.00000000000E+00 -0.00000000000E+00 -0.83460658728E+01  0.83460658728E+01  0.00000000000E+00 0.  1.
         23    2    1    2    0    0 -0.36043479515E+02  0.31797486819E+01  0.49215324858E+03  0.50173671532E+03  0.90640323231E+02 0.  0.
         11    1    3    3    0    0 -0.10090819390E+02  0.14717370573E+02  0.45308220204E+03  0.45343346528E+03  0.00000000000E+00 0. -1.
        -11    1    3    3    0    0 -0.25952660125E+02 -0.11537621891E+02  0.39071046537E+02  0.48303250035E+02  0.00000000000E+00 0.  1.
         22    1    1    2    0    0  0.36043479515E+02 -0.31797486819E+01  0.88533507922E+02  0.95642172927E+02  0.00000000000E+00 0. -1.
<mgrwt>
<rscale>  0 0.76155346E+02</rscale>
<asrwt>0</asrwt>
<pdfrwt beam="1">  1        2 0.90620402E-01 0.97595653E+02</pdfrwt>
<pdfrwt beam="2">  1       -2 0.12840106E-02 0.97595653E+02</pdfrwt>
<totfact> 0.67806003E+04</totfact>
</mgrwt>
</event>
<event>
 6    1  0.1535419E-002  0.1200879E+03  0.7546771E-02  0.1266093E+00
         -2   -1    0    0    0  501 -0.00000000000E+00  0.00000000000E+00  0.39887685789E+03  0.39887685789E+03  0.00000000000E+00 0. -1.
          2   -1    0    0  501    0  0.00000000000E+00 -0.00000000000E+00 -0.49553483261E+02  0.49553483261E+02  0.00000000000E+00 0.  1.
         23    2    1    2    0    0 -0.75857099172E+02 -0.22281086392E+01  0.35013023688E+02  0.12508801378E+03  0.93068981943E+02 0.  0.
         13    1    3    3    0    0  0.10157573977E+02 -0.27333627078E+02  0.16796074023E+02  0.33651323613E+02  0.00000000000E+00 0. -1.
        -13    1    3    3    0    0 -0.86014673149E+02  0.25105518439E+02  0.18216949665E+02  0.91436690164E+02  0.00000000000E+00 0.  1.
         22    1    1    2    0    0  0.75857099172E+02  0.22281086392E+01  0.31431035094E+03  0.32334232737E+03  0.00000000000E+00 0. -1.
<mgrwt>
<rscale>  0 0.10707061E+03</rscale>
<asrwt>0</asrwt>
<pdfrwt beam="1">  1        2 0.76236131E-02 0.12008788E+03</pdfrwt>
<pdfrwt beam="2">  1       -2 0.61365668E-01 0.12008788E+03</pdfrwt>
<totfact> 0.21817930E+03</totfact>
</mgrwt>
</event>
<event>
 6    1  0.1535419E-002  0.9634340E+02  0.7546771E-02  0.1344420E+00
          1   -1    0    0  501    0  0.00000000000E+00  0.00000000000E+00  0.51795731220E+03  0.51795731220E+03  0.00000000000E+00 0. -1.
         -1   -1    0    0    0  501 -0.00000000000E+00 -0.00000000000E+00 -0.10668000582E+02  0.10668000582E+02  0.00000000000E+00 0.  1.
         23    2    1    2    0    0 -0.22518395891E+02 -0.26858207644E+02  0.45873239711E+03  0.46874029447E+03  0.89741907900E+02 0.  0.
         11    1    3    3    0    0 -0.31423219812E+02 -0.37943910080E+02  0.12013464854E+03  0.12984410975E+03  0.00000000000E+00 0.  1.
        -11    1    3    3    0    0  0.89048239209E+01  0.11085702435E+02  0.33859774857E+03  0.33889618472E+03  0.00000000000E+00 0. -1.
         22    1    1    2    0    0  0.22518395891E+02  0.26858207644E+02  0.48556914508E+02  0.59885018309E+02  0.00000000000E+00 0.  1.
<mgrwt>
<rscale>  0 0.74823117E+02</rscale>
<asrwt>0</asrwt>
<pdfrwt beam="1">  1        1 0.79685721E-01 0.96343404E+02</pdfrwt>
<pdfrwt beam="2">  1       -1 0.16412313E-02 0.96343404E+02</pdfrwt>
<totfact> 0.35404073E+04</totfact>
</mgrwt>
</event>
<event>
 6    1  0.1535419E-002  0.1141268E+03  0.7546771E-02  0.1283404E+00
         -2   -1    0    0    0  501 -0.00000000000E+00  0.00000000000E+00  0.54335206932E+01  0.54335206932E+01  0.00000000000E+00 0. -1.
          2   -1    0    0  501    0  0.00000000000E+00 -0.00000000000E+00 -0.19022691785E+04  0.19022691785E+04  0.00000000000E+00 0.  1.
         23    2    1    2    0    0  0.58948812844E+02  0.23390577333E+02 -0.16051493781E+04  0.16092014975E+04  0.94883359399E+02 0.  0.
         11    1    3    3    0    0  0.22929524377E+02 -0.11442315657E+02 -0.10042246865E+03  0.10364054170E+03  0.00000000000E+00 0. -1.
        -11    1    3    3    0    0  0.36019288467E+02  0.34832892990E+02 -0.15047269095E+04  0.15055609558E+04  0.00000000000E+00 0.  1.
         22    1    1    2    0    0 -0.58948812844E+02 -0.23390577333E+02 -0.29168627965E+03  0.29850120164E+03  0.00000000000E+00 0. -1.
<mgrwt>
<rscale>  0 0.98536511E+02</rscale>
<asrwt>0</asrwt>
<pdfrwt beam="1">  1        2 0.29265714E+00 0.11412683E+03</pdfrwt>
<pdfrwt beam="2">  1       -2 0.83592528E-03 0.11412683E+03</pdfrwt>
<totfact> 0.22184107E+04</totfact>
</mgrwt>
</event>
<event>
 6    1  0.1535419E-002  0.9278797E+02  0.7546771E-02  0.1409083E+00
         -2   -1    0    0    0  501 -0.00000000000E+00  0.00000000000E+00  0.86249729456E+01  0.86249729456E+01  0.00000000000E+00 0.  1.
          2   -1    0    0  501    0  0.00000000000E+00 -0.00000000000E+00 -0.34203675688E+03  0.34203675688E+03  0.00000000000E+00 0. -1.
         23    2    1    2    0    0 -0.12351212216E+02  0.56629330226E+01 -0.31004341550E+03  0.32363023159E+03  0.91787722763E+02 0.  0.
         13    1    3    3    0    0 -0.30941176926E+01  0.36133024327E+02 -0.27020638147E+03  0.27262915765E+03  0.00000000000E+00 0. -1.
        -13    1    3    3    0    0 -0.92570945232E+01 -0.30470091304E+02 -0.39837034029E+02  0.51001073943E+02  0.00000000000E+00 0.  1.
         22    1    1    2    0    0  0.12351212216E+02 -0.56629330226E+01 -0.23368368435E+02  0.27031498237E+02  0.00000000000E+00 0.  1.
<mgrwt>
<rscale>  0 0.57398952E+02</rscale>
<asrwt>0</asrwt>
<pdfrwt beam="1">  1        2 0.52621053E-01 0.92787970E+02</pdfrwt>
<pdfrwt beam="2">  1       -2 0.13269186E-02 0.92787970E+02</pdfrwt>
<totfact> 0.11505991E+05</totfact>
</mgrwt>
</event>
<event>
 6    1  0.1535419E-002  0.9388409E+02  0.7546771E-02  0.1406826E+00
          2   -1    0    0  501    0  0.00000000000E+00  0.00000000000E+00  0.47135159659E+03  0.47135159659E+03  0.00000000000E+00 0. -1.
         -2   -1    0    0    0  501 -0.00000000000E+00 -0.00000000000E+00 -0.63075559443E+01  0.63075559443E+01  0.00000000000E+00 0.  1.
         23    2    1    2    0    0 -0.65918648629E+01  0.11882925883E+02  0.42865013444E+03  0.43881107641E+03  0.92895459588E+02 0.  0.
         11    1    3    3    0    0  0.22618030213E+02  0.58618335244E+01  0.25602706125E+02  0.34661721595E+02  0.00000000000E+00 0.  1.
        -11    1    3    3    0    0 -0.29209895076E+02  0.60210923585E+01  0.40304742831E+03  0.40414935481E+03  0.00000000000E+00 0. -1.
         22    1    1    2    0    0  0.65918648629E+01 -0.11882925883E+02  0.36393906210E+02  0.38848076132E+02  0.00000000000E+00 0. -1.
<mgrwt>
<rscale>  0 0.57908141E+02</rscale>
<asrwt>0</asrwt>
<pdfrwt beam="1">  1        2 0.72515603E-01 0.93884094E+02</pdfrwt>
<pdfrwt beam="2">  1       -2 0.97039359E-03 0.93884094E+02</pdfrwt>
<totfact> 0.12808391E+05</totfact>
</mgrwt>
</event>
<event>
 6    1  0.1535419E-002  0.9346594E+02  0.7546771E-02  0.1392521E+00
          2   -1    0    0  501    0  0.00000000000E+00  0.00000000000E+00  0.35497344588E+03  0.35497344588E+03  0.00000000000E+00 0. -1.
         -2   -1    0    0    0  501 -0.00000000000E+00 -0.00000000000E+00 -0.14167279026E+02  0.14167279026E+02  0.00000000000E+00 0.  1.
         23    2    1    2    0    0 -0.16670896869E+02 -0.45298797472E+01  0.33914163117E+03  0.35178534269E+03  0.91855553574E+02 0.  0.
         11    1    3    3    0    0 -0.54556783324E+02 -0.68861161113E+01  0.21846667881E+03  0.22528104880E+03  0.00000000000E+00 0. -1.
        -11    1    3    3    0    0  0.37885886454E+02  0.23562363641E+01  0.12067495236E+03  0.12650429388E+03  0.00000000000E+00 0.  1.
         22    1    1    2    0    0  0.16670896869E+02  0.45298797472E+01  0.16645356818E+01  0.17355382219E+02  0.00000000000E+00 0.  1.
<mgrwt>
<rscale>  0 0.61283971E+02</rscale>
<asrwt>0</asrwt>
<pdfrwt beam="1">  1        2 0.54611293E-01 0.93465937E+02</pdfrwt>
<pdfrwt beam="2">  1       -2 0.21795817E-02 0.93465937E+02</pdfrwt>
<totfact> 0.54435163E+04</totfact>
</mgrwt>
</event>
<event>
 6    1  0.1535419E-002  0.9456600E+02  0.7546771E-02  0.1424959E+00
          2   -1    0    0  501    0  0.00000000000E+00  0.00000000000E+00  0.31977452166E+03  0.31977452166E+03  0.00000000000E+00 0. -1.
         -2   -1    0    0    0  501 -0.00000000000E+00 -0.00000000000E+00 -0.86158815062E+01  0.86158815062E+01  0.00000000000E+00 0.  1.
         23    2    1    2    0    0  0.72491117978E+01  0.69518642408E+01  0.28855973760E+03  0.30366008908E+03  0.94031109196E+02 0.  0.
         11    1    3    3    0    0 -0.40179138167E+02  0.20468556977E+02  0.12911278626E+03  0.13676050799E+03  0.00000000000E+00 0.  1.
        -11    1    3    3    0    0  0.47428249965E+02 -0.13516692737E+02  0.15944695134E+03  0.16689958109E+03  0.00000000000E+00 0. -1.
         22    1    1    2    0    0 -0.72491117978E+01 -0.69518642408E+01  0.22598902552E+02  0.24730314087E+02  0.00000000000E+00 0. -1.
<mgrwt>
<rscale>  0 0.53985338E+02</rscale>
<asrwt>0</asrwt>
<pdfrwt beam="1">  1        2 0.49196071E-01 0.94565996E+02</pdfrwt>
<pdfrwt beam="2">  1       -2 0.13255205E-02 0.94565996E+02</pdfrwt>
<totfact> 0.12399961E+05</totfact>
</mgrwt>
</event>
<event>
 6    1  0.1535419E-002  0.9836930E+02  0.7546771E-02  0.1337240E+00
          2   -1    0    0  501    0  0.00000000000E+00  0.00000000000E+00  0.14270883188E+04  0.14270883188E+04  0.00000000000E+00 0. -1.
         -2   -1    0    0    0  501 -0.00000000000E+00 -0.00000000000E+00 -0.45842198513E+01  0.45842198513E+01  0.00000000000E+00 0.  1.
         23    2    1    2    0    0 -0.44367529033E+01  0.37018651753E+02  0.12975832301E+04  0.13013065584E+04  0.91029963901E+02 0.  0.
         11    1    3    3    0    0  0.37079661746E+02  0.16293694712E+02  0.31010419716E+03  0.31273790767E+03  0.00000000000E+00 0.  1.
        -11    1    3    3    0    0 -0.41516414649E+02  0.20724957041E+02  0.98747903298E+03  0.98856865068E+03  0.00000000000E+00 0. -1.
         22    1    1    2    0    0  0.44367529033E+01 -0.37018651753E+02  0.12492086878E+03  0.13036598027E+03  0.00000000000E+00 0. -1.
<mgrwt>
<rscale>  0 0.77183434E+02</rscale>
<asrwt>0</asrwt>
<pdfrwt beam="1">  1        2 0.21955169E+00 0.98369303E+02</pdfrwt>
<pdfrwt beam="2">  1       -2 0.70526573E-03 0.98369303E+02</pdfrwt>
<totfact> 0.48696086E+04</totfact>
</mgrwt>
</event>
<event>
 6    1  0.1535419E-002  0.9968654E+02  0.7546771E-02  0.1334019E+00
          1   -1    0    0  501    0  0.00000000000E+00  0.00000000000E+00  0.40955249957E+03  0.40955249957E+03  0.00000000000E+00 0. -1.
         -1   -1    0    0    0  501 -0.00000000000E+00 -0.00000000000E+00 -0.17542998545E+02  0.17542998545E+02  0.00000000000E+00 0.  1.
         23    2    1    2    0    0 -0.34881466396E+02  0.14809597725E+02  0.37016945728E+03  0.38335731807E+03  0.92202848829E+02 0.  0.
         13    1    3    3    0    0 -0.32273487525E+02  0.22755484877E+02  0.37256981633E+03  0.37465672039E+03  0.00000000000E+00 0. -1.
        -13    1    3    3    0    0 -0.26079788718E+01 -0.79458871524E+01 -0.24003590538E+01  0.87005976819E+01  0.00000000000E+00 0.  1.
         22    1    1    2    0    0  0.34881466396E+02 -0.14809597725E+02  0.21840043742E+02  0.43738180042E+02  0.00000000000E+00 0.  1.
<mgrwt>
<rscale>  0 0.78275030E+02</rscale>
<asrwt>0</asrwt>
<pdfrwt beam="1">  1        1 0.63008069E-01 0.99686540E+02</pdfrwt>
<pdfrwt beam="2">  1       -1 0.26989232E-02 0.99686540E+02</pdfrwt>
<totfact> 0.23498811E+04</totfact>
</mgrwt>
</event>
<event>
 6    1  0.1535419E-002  0.1104058E+03  0.7546771E-02  0.1375182E+00
         -2   -1    0    0    0  501 -0.00000000000E+00  0.00000000000E+00  0.14444631038E+02  0.14444631038E+02  0.00000000000E+00 0.  1.
          2   -1    0    0  501    0  0.00000000000E+00 -0.00000000000E+00 -0.10821989541E+04  0.10821989541E+04  0.00000000000E+00 0. -1.
         23    2    1    2    0    0 -0.12587515384E+02  0.58601058692E+01 -0.10752237426E+04  0.10808772092E+04  0.10952925820E+03 0.  0.
         13    1    3    3    0    0 -0.22065063472E+02  0.13909344660E+02 -0.58201161720E+02  0.63778618051E+02  0.00000000000E+00 0.  1.
        -13    1    3    3    0    0  0.94775480882E+01 -0.80492387912E+01 -0.10170225808E+04  0.10170985911E+04  0.00000000000E+00 0. -1.
         22    1    1    2    0    0  0.12587515384E+02 -0.58601058692E+01  0.74694194662E+01  0.15766375979E+02  0.00000000000E+00 0.  1.
<mgrwt>
<rscale>  0 0.65747390E+02</rscale>
<asrwt>0</asrwt>
<pdfrwt beam="1">  1        2 0.16649214E+00 0.11040582E+03</pdfrwt>
<pdfrwt beam="2">  1       -2 0.22222510E-02 0.11040582E+03</pdfrwt>
<totfact> 0.14670092E+04</totfact>
</mgrwt>
</event>
<event>
 6    1  0.1535419E-002  0.8988936E+02  0.7546771E-02  0.1406786E+00
         -2   -1    0    0    0  501 -0.00000000000E+00  0.00000000000E+00  0.40640589587E+02  0.40640589587E+02  0.00000000000E+00 0.  1.
          2   -1    0    0  501    0  0.00000000000E+00 -0.00000000000E+00 -0.13491381189E+03  0.13491381189E+03  0.00000000000E+00 0. -1.
         23    2    1    2    0    0  0.15345465003E+02 -0.21262033381E+01 -0.11731214347E+03  0.14779118975E+03  0.88544298090E+02 0.  0.
         13    1    3    3    0    0 -0.32023848622E+02  0.10969500249E+01 -0.83686284365E+02  0.89610961220E+02  0.00000000000E+00 0.  1.
        -13    1    3    3    0    0  0.47369313625E+02 -0.32231533631E+01 -0.33625859108E+02  0.58180228528E+02  0.00000000000E+00 0. -1.
         22    1    1    2    0    0 -0.15345465003E+02  0.21262033381E+01  0.23038921170E+02  0.27763211728E+02  0.00000000000E+00 0.  1.
<mgrwt>
<rscale>  0 0.57917330E+02</rscale>
<asrwt>0</asrwt>
<pdfrwt beam="1">  1        2 0.20755971E-01 0.89889358E+02</pdfrwt>
<pdfrwt beam="2">  1       -2 0.62523985E-02 0.89889358E+02</pdfrwt>
<totfact> 0.32361938E+04</totfact>
</mgrwt>
</event>
<event>
 6    1  0.1535419E-002  0.9725818E+02  0.7546771E-02  0.1384253E+00
          2   -1    0    0  501    0  0.00000000000E+00  0.00000000000E+00  0.15017933206E+04  0.15017933206E+04  0.00000000000E+00 0.  1.
         -2   -1    0    0    0  501 -0.00000000000E+00 -0.00000000000E+00 -0.28851485756E+01  0.28851485756E+01  0.00000000000E+00 0. -1.
         23    2    1    2    0    0 -0.16368863212E+02  0.62364762045E+01  0.14384403591E+04  0.14417245994E+04  0.95667761290E+02 0.  0.
         11    1    3    3    0    0  0.13744657050E+00  0.38539275117E+02  0.11925717925E+04  0.11931943575E+04  0.00000000000E+00 0.  1.
        -11    1    3    3    0    0 -0.16506309783E+02 -0.32302798912E+02  0.24586856662E+03  0.24853024189E+03  0.00000000000E+00 0. -1.
         22    1    1    2    0    0  0.16368863212E+02 -0.62364762045E+01  0.60467812976E+02  0.62953869813E+02  0.00000000000E+00 0.  1.
<mgrwt>
<rscale>  0 0.63358870E+02</rscale>
<asrwt>0</asrwt>
<pdfrwt beam="1">  1        2 0.23104450E+00 0.97258181E+02</pdfrwt>
<pdfrwt beam="2">  1       -2 0.44387021E-03 0.97258181E+02</pdfrwt>
<totfact> 0.85363180E+04</totfact>
</mgrwt>
</event>
<event>
 6    1  0.1535419E-002  0.1050441E+03  0.7546771E-02  0.1311475E+00
         -2   -1    0    0    0  501 -0.00000000000E+00  0.00000000000E+00  0.30613164231E+03  0.30613164231E+03  0.00000000000E+00 0. -1.
          2   -1    0    0  501    0  0.00000000000E+00 -0.00000000000E+00 -0.88762910534E+02  0.88762910534E+02  0.00000000000E+00 0.  1.
         23    2    1    2    0    0  0.47702426789E+02 -0.80149414244E+01 -0.54787416433E+02  0.11847326239E+03  0.93244260383E+02 0.  0.
         11    1    3    3    0    0  0.62985211813E+02 -0.19841089373E+02 -0.63710895341E+01  0.66343021611E+02  0.00000000000E+00 0.  1.
        -11    1    3    3    0    0 -0.15282785023E+02  0.11826147949E+02 -0.48416326899E+02  0.52130240780E+02  0.00000000000E+00 0. -1.
         22    1    1    2    0    0 -0.47702426789E+02  0.80149414244E+01  0.27215614821E+03  0.27642129046E+03  0.00000000000E+00 0. -1.
<mgrwt>
<rscale>  0 0.86531660E+02</rscale>
<asrwt>0</asrwt>
<pdfrwt beam="1">  1        2 0.13655832E-01 0.10504405E+03</pdfrwt>
<pdfrwt beam="2">  1       -2 0.47097175E-01 0.10504405E+03</pdfrwt>
<totfact> 0.18090455E+03</totfact>
</mgrwt>
</event>
<event>
 6    1  0.1535419E-002  0.9353655E+02  0.7546771E-02  0.1394042E+00
          1   -1    0    0  501    0  0.00000000000E+00  0.00000000000E+00  0.94825342001E+03  0.94825342001E+03  0.00000000000E+00 0. -1.
         -1   -1    0    0    0  501 -0.00000000000E+00 -0.00000000000E+00 -0.33933043493E+01  0.33933043493E+01  0.00000000000E+00 0.  1.
         23    2    1    2    0    0 -0.16368030478E+02 -0.38825195946E+01  0.86445267898E+03  0.86949843007E+03  0.92011408688E+02 0.  0.
         11    1    3    3    0    0 -0.39406791384E+02  0.17425619458E+02  0.21429596887E+03  0.21858478835E+03  0.00000000000E+00 0.  1.
        -11    1    3    3    0    0  0.23038760907E+02 -0.21308139053E+02  0.65015671010E+03  0.65091364173E+03  0.00000000000E+00 0. -1.
         22    1    1    2    0    0  0.16368030478E+02  0.38825195946E+01  0.80407436681E+02  0.82148294284E+02  0.00000000000E+00 0. -1.
<mgrwt>
<rscale>  0 0.60912538E+02</rscale>
<asrwt>0</asrwt>
<pdfrwt beam="1">  1        1 0.14588493E+00 0.93536547E+02</pdfrwt>
<pdfrwt beam="2">  1       -1 0.52204758E-03 0.93536547E+02</pdfrwt>
<totfact> 0.75070304E+04</totfact>
</mgrwt>
</event>
<event>
 6    1  0.1535419E-002  0.9754690E+02  0.7546771E-02  0.1333496E+00
          2   -1    0    0  501    0  0.00000000000E+00  0.00000000000E+00  0.43179808672E+03  0.43179808672E+03  0.00000000000E+00 0. -1.
         -2   -1    0    0    0  501 -0.00000000000E+00 -0.00000000000E+00 -0.12900016680E+02  0.12900016680E+02  0.00000000000E+00 0.  1.
         23    2    1    2    0    0  0.14476195429E+02  0.38162082856E+02  0.36040362020E+03  0.37337135201E+03  0.88597360261E+02 0.  0.
         11    1    3    3    0    0  0.11256482870E+02 -0.24114800409E+02  0.19117901101E+03  0.19302239833E+03  0.00000000000E+00 0.  1.
        -11    1    3    3    0    0  0.32197125590E+01  0.62276883265E+02  0.16922460919E+03  0.18034895368E+03  0.00000000000E+00 0. -1.
         22    1    1    2    0    0 -0.14476195429E+02 -0.38162082856E+02  0.58494449834E+02  0.71326751387E+02  0.00000000000E+00 0.  1.
<mgrwt>
<rscale>  0 0.78454230E+02</rscale>
<asrwt>0</asrwt>
<pdfrwt beam="1">  1        2 0.66430464E-01 0.97546897E+02</pdfrwt>
<pdfrwt beam="2">  1       -2 0.19846183E-02 0.97546897E+02</pdfrwt>
<totfact> 0.50947062E+04</totfact>
</mgrwt>
</event>
<event>
 6    1  0.1535419E-002  0.9355188E+02  0.7546771E-02  0.1390976E+00
         -2   -1    0    0    0  501 -0.00000000000E+00  0.00000000000E+00  0.15530440703E+01  0.15530440703E+01  0.00000000000E+00 0.  1.
          2   -1    0    0  501    0  0.00000000000E+00 -0.00000000000E+00 -0.34731370261E+04  0.34731370261E+04  0.00000000000E+00 0. -1.
         23    2    1    2    0    0  0.14746842644E+02  0.97158526600E+01 -0.33865377606E+04  0.33878296825E+04  0.91869944642E+02 0.  0.
         13    1    3    3    0    0  0.14399161289E+02  0.33883526123E+02 -0.31151980784E+04  0.31154156219E+04  0.00000000000E+00 0. -1.
        -13    1    3    3    0    0  0.34768135525E+00 -0.24167673463E+02 -0.27133968215E+03  0.27241406064E+03  0.00000000000E+00 0.  1.
         22    1    1    2    0    0 -0.14746842644E+02 -0.97158526600E+01 -0.85046221442E+02  0.86860387648E+02  0.00000000000E+00 0.  1.
<mgrwt>
<rscale>  0 0.61664553E+02</rscale>
<asrwt>0</asrwt>
<pdfrwt beam="1">  1        2 0.53432006E+00 0.93551878E+02</pdfrwt>
<pdfrwt beam="2">  1       -2 0.23893375E-03 0.93551878E+02</pdfrwt>
<totfact> 0.17390417E+04</totfact>
</mgrwt>
</event>
<event>
 6    1  0.1535419E-002  0.9366779E+02  0.7546771E-02  0.1407320E+00
          2   -1    0    0  501    0  0.00000000000E+00  0.00000000000E+00  0.70230740083E+03  0.70230740083E+03  0.00000000000E+00 0.  1.
         -2   -1    0    0    0  501 -0.00000000000E+00 -0.00000000000E+00 -0.82091008971E+01  0.82091008971E+01  0.00000000000E+00 0. -1.
         23    2    1    2    0    0 -0.12361210925E+02  0.56174258762E+01  0.69000716511E+03  0.69633579677E+03  0.92678470787E+02 0.  0.
         11    1    3    3    0    0 -0.52789107826E+02  0.46449879754E+01  0.41555663045E+03  0.41892192462E+03  0.00000000000E+00 0.  1.
        -11    1    3    3    0    0  0.40427896901E+02  0.97243790084E+00  0.27445053466E+03  0.27741387214E+03  0.00000000000E+00 0. -1.
         22    1    1    2    0    0  0.12361210925E+02 -0.56174258762E+01  0.40911348224E+01  0.14180704959E+02  0.00000000000E+00 0.  1.
<mgrwt>
<rscale>  0 0.57796236E+02</rscale>
<asrwt>0</asrwt>
<pdfrwt beam="1">  1        2 0.10804725E+00 0.93667785E+02</pdfrwt>
<pdfrwt beam="2">  1       -2 0.12629392E-02 0.93667785E+02</pdfrwt>
<totfact> 0.56500803E+04</totfact>
</mgrwt>
</event>
<event>
 6    1  0.1535419E-002  0.9322686E+02  0.7546771E-02  0.1387896E+00
          4   -1    0    0  501    0  0.00000000000E+00  0.00000000000E+00  0.76275145726E+01  0.76275145726E+01  0.00000000000E+00 0. -1.
         -4   -1    0    0    0  501 -0.00000000000E+00 -0.00000000000E+00 -0.45647833735E+03  0.45647833735E+03  0.00000000000E+00 0.  1.
         23    2    1    2    0    0  0.68737975361E+01 -0.17446299990E+02 -0.41563916417E+03  0.42596615157E+03  0.91321547356E+02 0.  0.
         11    1    3    3    0    0  0.16261627362E+02 -0.45865000418E+02 -0.35524864889E+03  0.35856609059E+03  0.00000000000E+00 0.  1.
        -11    1    3    3    0    0 -0.93878298259E+01  0.28418700428E+02 -0.60390515286E+02  0.67400060975E+02  0.00000000000E+00 0. -1.
         22    1    1    2    0    0 -0.68737975361E+01  0.17446299990E+02 -0.33211658608E+02  0.38139700358E+02  0.00000000000E+00 0. -1.
<mgrwt>
<rscale>  0 0.62433168E+02</rscale>
<asrwt>0</asrwt>
<pdfrwt beam="1">  1        4 0.11734637E-02 0.93226860E+02</pdfrwt>
<pdfrwt beam="2">  1       -4 0.70227443E-01 0.93226860E+02</pdfrwt>
<totfact> 0.64509489E+03</totfact>
</mgrwt>
</event>
<event>
 6    1  0.1535419E-002  0.9636751E+02  0.7546771E-02  0.1355778E+00
          2   -1    0    0  501    0  0.00000000000E+00  0.00000000000E+00  0.63753474241E+03  0.63753474241E+03  0.00000000000E+00 0. -1.
         -2   -1    0    0    0  501 -0.00000000000E+00 -0.00000000000E+00 -0.83720952206E+01  0.83720952206E+01  0.00000000000E+00 0.  1.
         23    2    1    2    0    0  0.25800885178E+02  0.12915570963E+02  0.58674579709E+03  0.59460686861E+03  0.91946724495E+02 0.  0.
         11    1    3    3    0    0 -0.12186822581E+02  0.43152582632E+02  0.20917832385E+03  0.21393044478E+03  0.00000000000E+00 0.  1.
        -11    1    3    3    0    0  0.37987707758E+02 -0.30237011669E+02  0.37756747324E+03  0.38067642384E+03  0.00000000000E+00 0. -1.
         22    1    1    2    0    0 -0.25800885178E+02 -0.12915570963E+02  0.42416850100E+02  0.51299969022E+02  0.00000000000E+00 0.  1.
<mgrwt>
<rscale>  0 0.71284625E+02</rscale>
<asrwt>0</asrwt>
<pdfrwt beam="1">  1        2 0.98082230E-01 0.96367514E+02</pdfrwt>
<pdfrwt beam="2">  1       -2 0.12880152E-02 0.96367514E+02</pdfrwt>
<totfact> 0.61643758E+04</totfact>
</mgrwt>
</event>
<event>
 6    1  0.1535419E-002  0.8502230E+02  0.7546771E-02  0.1370323E+00
          3   -1    0    0  501    0  0.00000000000E+00  0.00000000000E+00  0.30731606734E+02  0.30731606734E+02  0.00000000000E+00 0. -1.
         -3   -1    0    0    0  501 -0.00000000000E+00 -0.00000000000E+00 -0.12240072177E+03  0.12240072177E+03  0.00000000000E+00 0.  1.
         23    2    1    2    0    0 -0.25420439704E+02  0.20946413726E+02 -0.83560125754E+02  0.11921026032E+03  0.78382654631E+02 0.  0.
         13    1    3    3    0    0 -0.46174059295E+02  0.16560313058E+02 -0.84795739586E+02  0.97962264022E+02  0.00000000000E+00 0.  1.
        -13    1    3    3    0    0  0.20753619591E+02  0.43861006678E+01  0.12356138319E+01  0.21247996299E+02  0.00000000000E+00 0. -1.
         22    1    1    2    0    0  0.25420439704E+02 -0.20946413726E+02 -0.81089892822E+01  0.33922068184E+02  0.00000000000E+00 0. -1.
<mgrwt>
<rscale>  0 0.67077351E+02</rscale>
<asrwt>0</asrwt>
<pdfrwt beam="1">  1        3 0.47279394E-02 0.85022300E+02</pdfrwt>
<pdfrwt beam="2">  1       -3 0.18830881E-01 0.85022300E+02</pdfrwt>
<totfact> 0.12581030E+04</totfact>
</mgrwt>
</event>
<event>
 6    1  0.1535419E-002  0.1061971E+03  0.7546771E-02  0.1380114E+00
          2   -1    0    0  501    0  0.00000000000E+00  0.00000000000E+00  0.17886289742E+03  0.17886289742E+03  0.00000000000E+00 0. -1.
         -2   -1    0    0    0  501 -0.00000000000E+00 -0.00000000000E+00 -0.20615564768E+02  0.20615564768E+02  0.00000000000E+00 0.  1.
         23    2    1    2    0    0 -0.12667333587E+02  0.68311909659E+01  0.14626163095E+03  0.18074924556E+03  0.10521738721E+03 0.  0.
         11    1    3    3    0    0  0.17989128471E+02 -0.36223627785E+01 -0.10183403289E+02  0.20986470828E+02  0.00000000000E+00 0.  1.
        -11    1    3    3    0    0 -0.30656462059E+02  0.10453553744E+02  0.15644503424E+03  0.15976277473E+03  0.00000000000E+00 0. -1.
         22    1    1    2    0    0  0.12667333587E+02 -0.68311909659E+01  0.11985701700E+02  0.18729216627E+02  0.00000000000E+00 0.  1.
<mgrwt>
<rscale>  0 0.64433833E+02</rscale>
<asrwt>0</asrwt>
<pdfrwt beam="1">  1        2 0.27517368E-01 0.10619710E+03</pdfrwt>
<pdfrwt beam="2">  1       -2 0.31716255E-02 0.10619710E+03</pdfrwt>
<totfact> 0.66323077E+04</totfact>
</mgrwt>
</event>
<event>
 6    1  0.1535419E-002  0.9160403E+02  0.7546771E-02  0.1418075E+00
          2   -1    0    0  501    0  0.00000000000E+00  0.00000000000E+00  0.11515123089E+03  0.11515123089E+03  0.00000000000E+00 0. -1.
         -2   -1    0    0    0  501 -0.00000000000E+00 -0.00000000000E+00 -0.83172043015E+02  0.83172043015E+02  0.00000000000E+00 0.  1.
         23    2    1    2    0    0 -0.53294857378E+01  0.11064678019E+02  0.96259439889E+02  0.13288031158E+03  0.90777017582E+02 0.  0.
         11    1    3    3    0    0  0.10670808497E+02  0.49142494748E+02  0.53982463128E+02  0.73776400491E+02  0.00000000000E+00 0.  1.
        -11    1    3    3    0    0 -0.16000294235E+02 -0.38077816729E+02  0.42276976761E+02  0.59103911093E+02  0.00000000000E+00 0. -1.
         22    1    1    2    0    0  0.53294857378E+01 -0.11064678019E+02 -0.64280252016E+02  0.65442962319E+02  0.00000000000E+00 0.  1.
<mgrwt>
<rscale>  0 0.55430280E+02</rscale>
<asrwt>0</asrwt>
<pdfrwt beam="1">  1        2 0.17715574E-01 0.91604025E+02</pdfrwt>
<pdfrwt beam="2">  1       -2 0.12795699E-01 0.91604025E+02</pdfrwt>
<totfact> 0.12830176E+04</totfact>
</mgrwt>
</event>
<event>
 6    1  0.1535419E-002  0.9310974E+02  0.7546771E-02  0.1395753E+00
         -4   -1    0    0    0  501 -0.00000000000E+00  0.00000000000E+00  0.43276135291E+02  0.43276135291E+02  0.00000000000E+00 0. -1.
          4   -1    0    0  501    0  0.00000000000E+00 -0.00000000000E+00 -0.83045156903E+02  0.83045156903E+02  0.00000000000E+00 0.  1.
         23    2    1    2    0    0  0.16409136253E+02  0.24778863718E+01 -0.51115710367E+02  0.10621788405E+03  0.91618902916E+02 0.  0.
         13    1    3    3    0    0 -0.12038057545E+02 -0.18817208656E+01  0.23375607739E+02  0.26360476855E+02  0.00000000000E+00 0. -1.
        -13    1    3    3    0    0  0.28447193798E+02  0.43596072374E+01 -0.74491318106E+02  0.79857407192E+02  0.00000000000E+00 0.  1.
         22    1    1    2    0    0 -0.16409136253E+02 -0.24778863718E+01  0.11346688755E+02  0.20103408148E+02  0.00000000000E+00 0. -1.
<mgrwt>
<rscale>  0 0.60498102E+02</rscale>
<asrwt>0</asrwt>
<pdfrwt beam="1">  1        4 0.12776178E-01 0.93109737E+02</pdfrwt>
<pdfrwt beam="2">  1       -4 0.66578670E-02 0.93109737E+02</pdfrwt>
<totfact> 0.10905529E+04</totfact>
</mgrwt>
</event>
<event>
 6    1  0.1535419E-002  0.9097576E+02  0.7546771E-02  0.1379914E+00
         -2   -1    0    0    0  501 -0.00000000000E+00  0.00000000000E+00  0.12991228997E+03  0.12991228997E+03  0.00000000000E+00 0.  1.
          2   -1    0    0  501    0  0.00000000000E+00 -0.00000000000E+00 -0.25908069701E+02  0.25908069701E+02  0.00000000000E+00 0. -1.
         23    2    1    2    0    0  0.21056298209E+02  0.91703749600E+01  0.70011405629E+02  0.11479628237E+03  0.88029120507E+02 0.  0.
         13    1    3    3    0    0 -0.10342879281E+02  0.27050756743E+02  0.73004704488E+02  0.78539197026E+02  0.00000000000E+00 0.  1.
        -13    1    3    3    0    0  0.31399177490E+02 -0.17880381783E+02 -0.29932988583E+01  0.36257085346E+02  0.00000000000E+00 0. -1.
         22    1    1    2    0    0 -0.21056298209E+02 -0.91703749600E+01  0.33992814642E+02  0.41024077302E+02  0.00000000000E+00 0.  1.
<mgrwt>
<rscale>  0 0.64486429E+02</rscale>
<asrwt>0</asrwt>
<pdfrwt beam="1">  1        2 0.39858570E-02 0.90975763E+02</pdfrwt>
<pdfrwt beam="2">  1       -2 0.19986506E-01 0.90975763E+02</pdfrwt>
<totfact> 0.38775742E+04</totfact>
</mgrwt>
</event>
<event>
 6    1  0.1535419E-002  0.9196273E+02  0.7546771E-02  0.1418377E+00
          1   -1    0    0  501    0  0.00000000000E+00  0.00000000000E+00  0.26229796015E+03  0.26229796015E+03  0.00000000000E+00 0. -1.
         -1   -1    0    0    0  501 -0.00000000000E+00 -0.00000000000E+00 -0.11046088689E+02  0.11046088689E+02  0.00000000000E+00 0.  1.
         23    2    1    2    0    0  0.11985593945E+02 -0.15206715103E+01  0.23924421258E+03  0.25631023612E+03  0.91165656804E+02 0.  0.
         13    1    3    3    0    0 -0.16676652725E+02 -0.37653662983E+02  0.73300598539E+02  0.84076672319E+02  0.00000000000E+00 0.  1.
        -13    1    3    3    0    0  0.28662246670E+02  0.36132991472E+02  0.16594361405E+03  0.17223356380E+03  0.00000000000E+00 0. -1.
         22    1    1    2    0    0 -0.11985593945E+02  0.15206715103E+01  0.12007658876E+02  0.17033812719E+02  0.00000000000E+00 0. -1.
<mgrwt>
<rscale>  0 0.55365687E+02</rscale>
<asrwt>0</asrwt>
<pdfrwt beam="1">  1        1 0.40353528E-01 0.91962731E+02</pdfrwt>
<pdfrwt beam="2">  1       -1 0.16993985E-02 0.91962731E+02</pdfrwt>
<totfact> 0.78018943E+04</totfact>
</mgrwt>
</event>
<event>
 6    1  0.1535419E-002  0.9450705E+02  0.7546771E-02  0.1360169E+00
          4   -1    0    0  501    0  0.00000000000E+00  0.00000000000E+00  0.99581368830E+01  0.99581368830E+01  0.00000000000E+00 0. -1.
         -4   -1    0    0    0  501 -0.00000000000E+00 -0.00000000000E+00 -0.38609524164E+03  0.38609524164E+03  0.00000000000E+00 0.  1.
         23    2    1    2    0    0  0.21465625541E+02 -0.18607750402E+02 -0.30966468054E+03  0.32376503481E+03  0.90136351929E+02 0.  0.
         13    1    3    3    0    0  0.30127448366E+02  0.24099136285E+01 -0.28050120324E+02  0.41234452573E+02  0.00000000000E+00 0. -1.
        -13    1    3    3    0    0 -0.86618228250E+01 -0.21017664031E+02 -0.28161456022E+03  0.28253058224E+03  0.00000000000E+00 0.  1.
         22    1    1    2    0    0 -0.21465625541E+02  0.18607750402E+02 -0.66472424212E+02  0.72288343705E+02  0.00000000000E+00 0. -1.
<mgrwt>
<rscale>  0 0.69977562E+02</rscale>
<asrwt>0</asrwt>
<pdfrwt beam="1">  1        4 0.15320209E-02 0.94507055E+02</pdfrwt>
<pdfrwt beam="2">  1       -4 0.59399273E-01 0.94507055E+02</pdfrwt>
<totfact> 0.61681378E+03</totfact>
</mgrwt>
</event>
<event>
 6    1  0.1535419E-002  0.5810217E+02  0.7546771E-02  0.1486925E+00
         -2   -1    0    0    0  501 -0.00000000000E+00  0.00000000000E+00  0.46525903445E+02  0.46525903445E+02  0.00000000000E+00 0.  1.
          2   -1    0    0  501    0  0.00000000000E+00 -0.00000000000E+00 -0.64331960728E+02  0.64331960728E+02  0.00000000000E+00 0. -1.
         23    2    1    2    0    0  0.28332853520E+00 -0.17501693674E+02 -0.48393512894E+02  0.75616099216E+02  0.55402823158E+02 0.  0.
         13    1    3    3    0    0  0.22289975160E+02 -0.21301330195E+02 -0.12346374648E+02  0.33211784470E+02  0.00000000000E+00 0.  1.
        -13    1    3    3    0    0 -0.22006646625E+02  0.37996365213E+01 -0.36047138246E+02  0.42404314746E+02  0.00000000000E+00 0. -1.
         22    1    1    2    0    0 -0.28332853520E+00  0.17501693674E+02  0.30587455611E+02  0.35241764957E+02  0.00000000000E+00 0.  1.
<mgrwt>
<rscale>  0 0.43045576E+02</rscale>
<asrwt>0</asrwt>
<pdfrwt beam="1">  1        2 0.98972247E-02 0.58102172E+02</pdfrwt>
<pdfrwt beam="2">  1       -2 0.71578314E-02 0.58102172E+02</pdfrwt>
<totfact> 0.58295069E+04</totfact>
</mgrwt>
</event>
<event>
 6    1  0.1535419E-002  0.9130032E+02  0.7546771E-02  0.1427988E+00
         -2   -1    0    0    0  501 -0.00000000000E+00  0.00000000000E+00  0.52937204748E+02  0.52937204748E+02  0.00000000000E+00 0.  1.
          2   -1    0    0  501    0  0.00000000000E+00 -0.00000000000E+00 -0.52650196381E+02  0.52650196381E+02  0.00000000000E+00 0. -1.
         23    2    1    2    0    0 -0.19908558671E+01  0.10469526616E+02 -0.86089530196E+01  0.91705303894E+02  0.90676205234E+02 0.  0.
         13    1    3    3    0    0  0.74397835273E+00 -0.14037951859E+02 -0.45337211855E+02  0.47466623800E+02  0.00000000000E+00 0. -1.
        -13    1    3    3    0    0 -0.27348342199E+01  0.24507478475E+02  0.36728258835E+02  0.44238680094E+02  0.00000000000E+00 0.  1.
         22    1    1    2    0    0  0.19908558671E+01 -0.10469526616E+02  0.88959613860E+01  0.13882097235E+02  0.00000000000E+00 0.  1.
<mgrwt>
<rscale>  0 0.53365961E+02</rscale>
<asrwt>0</asrwt>
<pdfrwt beam="1">  1        2 0.81000302E-02 0.91300321E+02</pdfrwt>
<pdfrwt beam="2">  1       -2 0.81441853E-02 0.91300321E+02</pdfrwt>
<totfact> 0.65685996E+04</totfact>
</mgrwt>
</event>
<event>
 6    1  0.1535419E-002  0.9253516E+02  0.7546771E-02  0.1420117E+00
          2   -1    0    0  501    0  0.00000000000E+00  0.00000000000E+00  0.39588990192E+03  0.39588990192E+03  0.00000000000E+00 0. -1.
         -2   -1    0    0    0  501 -0.00000000000E+00 -0.00000000000E+00 -0.74670578242E+01  0.74670578242E+01  0.00000000000E+00 0.  1.
         23    2    1    2    0    0  0.81604740072E+01 -0.81672812472E+01  0.37163553686E+03  0.38298267440E+03  0.91812084259E+02 0.  0.
         11    1    3    3    0    0 -0.27329592240E+02 -0.14995764267E+02  0.47356160224E+02  0.56695550699E+02  0.00000000000E+00 0.  1.
        -11    1    3    3    0    0  0.35490066248E+02  0.68284830199E+01  0.32427937663E+03  0.32628712370E+03  0.00000000000E+00 0. -1.
         22    1    1    2    0    0 -0.81604740072E+01  0.81672812472E+01  0.16787307240E+02  0.20374285346E+02  0.00000000000E+00 0.  1.
<mgrwt>
<rscale>  0 0.54996238E+02</rscale>
<asrwt>0</asrwt>
<pdfrwt beam="1">  1        2 0.60906123E-01 0.92535164E+02</pdfrwt>
<pdfrwt beam="2">  1       -2 0.11487784E-02 0.92535164E+02</pdfrwt>
<totfact> 0.12108697E+05</totfact>
</mgrwt>
</event>
<event>
 6    1  0.1535419E-002  0.9341214E+02  0.7546771E-02  0.1407560E+00
          2   -1    0    0  501    0  0.00000000000E+00  0.00000000000E+00  0.12191239886E+03  0.12191239886E+03  0.00000000000E+00 0. -1.
         -2   -1    0    0    0  501 -0.00000000000E+00 -0.00000000000E+00 -0.27726697474E+02  0.27726697474E+02  0.00000000000E+00 0.  1.
         23    2    1    2    0    0 -0.95754278436E+01  0.97113700718E+01  0.98090227568E+02  0.13545301683E+03  0.92411187077E+02 0.  0.
         11    1    3    3    0    0 -0.21450140826E+02  0.75051507241E-01 -0.11814996554E+02  0.24488942765E+02  0.00000000000E+00 0.  1.
        -11    1    3    3    0    0  0.11874712983E+02  0.96363185645E+01  0.10990522412E+03  0.11096407407E+03  0.00000000000E+00 0. -1.
         22    1    1    2    0    0  0.95754278436E+01 -0.97113700718E+01 -0.39045261803E+01  0.14186079506E+02  0.00000000000E+00 0.  1.
<mgrwt>
<rscale>  0 0.57741951E+02</rscale>
<asrwt>0</asrwt>
<pdfrwt beam="1">  1        2 0.18755753E-01 0.93412135E+02</pdfrwt>
<pdfrwt beam="2">  1       -2 0.42656458E-02 0.93412135E+02</pdfrwt>
<totfact> 0.64373203E+04</totfact>
</mgrwt>
</event>
<event>
 6    1  0.1535419E-002  0.9446531E+02  0.7546771E-02  0.1374884E+00
          2   -1    0    0  501    0  0.00000000000E+00  0.00000000000E+00  0.69608248167E+02  0.69608248167E+02  0.00000000000E+00 0.  1.
         -2   -1    0    0    0  501 -0.00000000000E+00 -0.00000000000E+00 -0.49533054805E+02  0.49533054805E+02  0.00000000000E+00 0. -1.
         23    2    1    2    0    0  0.20291799083E+02 -0.91885931163E+01  0.21283587638E+02  0.96833287144E+02  0.91801454471E+02 0.  0.
         11    1    3    3    0    0 -0.23713094732E+02 -0.35769903630E+01 -0.23656880967E+02  0.33686106022E+02  0.00000000000E+00 0. -1.
        -11    1    3    3    0    0  0.44004893815E+02 -0.56116027533E+01  0.44940468606E+02  0.63147181122E+02  0.00000000000E+00 0.  1.
         22    1    1    2    0    0 -0.20291799083E+02  0.91885931163E+01 -0.12083942760E+01  0.22308015828E+02  0.00000000000E+00 0. -1.
<mgrwt>
<rscale>  0 0.65827895E+02</rscale>
<asrwt>0</asrwt>
<pdfrwt beam="1">  1        2 0.10708961E-01 0.94465308E+02</pdfrwt>
<pdfrwt beam="2">  1       -2 0.76204699E-02 0.94465308E+02</pdfrwt>
<totfact> 0.51939976E+04</totfact>
</mgrwt>
</event>
<event>
 6    1  0.1535419E-002  0.9154457E+02  0.7546771E-02  0.1394345E+00
         -1   -1    0    0    0  501 -0.00000000000E+00  0.00000000000E+00  0.47653674745E+01  0.47653674745E+01  0.00000000000E+00 0.  1.
          1   -1    0    0  501    0  0.00000000000E+00 -0.00000000000E+00 -0.68089266439E+03  0.68089266439E+03  0.00000000000E+00 0. -1.
         23    2    1    2    0    0  0.10151362759E+02  0.14691848653E+02 -0.62097965162E+03  0.62769111574E+03  0.89785903555E+02 0.  0.
         13    1    3    3    0    0 -0.13130402559E+02  0.20768257210E+02 -0.45515637916E+02  0.51724281279E+02  0.00000000000E+00 0.  1.
        -13    1    3    3    0    0  0.23281765319E+02 -0.60764085568E+01 -0.57546401370E+03  0.57596683446E+03  0.00000000000E+00 0. -1.
         22    1    1    2    0    0 -0.10151362759E+02 -0.14691848653E+02 -0.55147645304E+02  0.57966916127E+02  0.00000000000E+00 0.  1.
<mgrwt>
<rscale>  0 0.60838902E+02</rscale>
<asrwt>0</asrwt>
<pdfrwt beam="1">  1        1 0.10475276E+00 0.91544574E+02</pdfrwt>
<pdfrwt beam="2">  1       -1 0.73313319E-03 0.91544574E+02</pdfrwt>
<totfact> 0.76198376E+04</totfact>
</mgrwt>
</event>
<event>
 6    1  0.1535419E-002  0.9230201E+02  0.7546771E-02  0.1400650E+00
          2   -1    0    0  501    0  0.00000000000E+00  0.00000000000E+00  0.17050253003E+04  0.17050253003E+04  0.00000000000E+00 0. -1.
         -2   -1    0    0    0  501 -0.00000000000E+00 -0.00000000000E+00 -0.42316000364E+01  0.42316000364E+01  0.00000000000E+00 0.  1.
         23    2    1    2    0    0 -0.14029666585E+02 -0.71804510402E+01  0.16828302768E+04  0.16853597247E+04  0.90946526444E+02 0.  0.
         11    1    3    3    0    0 -0.45374935940E+02 -0.25976791203E+02  0.12049529085E+04  0.12060867258E+04  0.00000000000E+00 0. -1.
        -11    1    3    3    0    0  0.31345269355E+02  0.18796340163E+02  0.47787736828E+03  0.47927299886E+03  0.00000000000E+00 0.  1.
         22    1    1    2    0    0  0.14029666585E+02  0.71804510402E+01  0.17963423489E+02  0.23897175671E+02  0.00000000000E+00 0.  1.
<mgrwt>
<rscale>  0 0.59333535E+02</rscale>
<asrwt>0</asrwt>
<pdfrwt beam="1">  1        2 0.26231104E+00 0.92302010E+02</pdfrwt>
<pdfrwt beam="2">  1       -2 0.65101675E-03 0.92302010E+02</pdfrwt>
<totfact> 0.39123343E+04</totfact>
</mgrwt>
</event>
<event>
 6    1  0.1535419E-002  0.9269537E+02  0.7546771E-02  0.1426084E+00
          2   -1    0    0  501    0  0.00000000000E+00  0.00000000000E+00  0.59684390217E+03  0.59684390217E+03  0.00000000000E+00 0.  1.
         -2   -1    0    0    0  501 -0.00000000000E+00 -0.00000000000E+00 -0.44864889599E+01  0.44864889599E+01  0.00000000000E+00 0. -1.
         23    2    1    2    0    0  0.77221269863E+01 -0.70891247365E+01  0.54498946221E+03  0.55281637546E+03  0.92100728114E+02 0.  0.
         11    1    3    3    0    0  0.13685274909E+02 -0.43360457612E+02  0.16817322267E+03  0.17421150609E+03  0.00000000000E+00 0. -1.
        -11    1    3    3    0    0 -0.59631479226E+01  0.36271332875E+02  0.37681623954E+03  0.37860486936E+03  0.00000000000E+00 0.  1.
         22    1    1    2    0    0 -0.77221269863E+01  0.70891247365E+01  0.47367950998E+02  0.48514015671E+02  0.00000000000E+00 0.  1.
<mgrwt>
<rscale>  0 0.53754123E+02</rscale>
<asrwt>0</asrwt>
<pdfrwt beam="1">  1        2 0.91822076E-01 0.92695367E+02</pdfrwt>
<pdfrwt beam="2">  1       -2 0.69022954E-03 0.92695367E+02</pdfrwt>
<totfact> 0.15975837E+05</totfact>
</mgrwt>
</event>
<event>
 6    1  0.1535419E-002  0.9031137E+02  0.7546771E-02  0.1428670E+00
         -2   -1    0    0    0  501 -0.00000000000E+00  0.00000000000E+00  0.77474690173E+01  0.77474690173E+01  0.00000000000E+00 0.  1.
          2   -1    0    0  501    0  0.00000000000E+00 -0.00000000000E+00 -0.33181734021E+03  0.33181734021E+03  0.00000000000E+00 0. -1.
         23    2    1    2    0    0  0.82836541188E+00 -0.10866066812E+02 -0.29524685787E+03  0.30875046688E+03  0.89651470262E+02 0.  0.
         13    1    3    3    0    0 -0.11546762626E+02  0.34148709170E+02 -0.70224326200E+02  0.78936164433E+02  0.00000000000E+00 0.  1.
        -13    1    3    3    0    0  0.12375128037E+02 -0.45014775982E+02 -0.22502253167E+03  0.22981430245E+03  0.00000000000E+00 0. -1.
         22    1    1    2    0    0 -0.82836541188E+00  0.10866066812E+02 -0.28823013324E+02  0.30814342347E+02  0.00000000000E+00 0. -1.
<mgrwt>
<rscale>  0 0.53227921E+02</rscale>
<asrwt>0</asrwt>
<pdfrwt beam="1">  1        2 0.51048817E-01 0.90311371E+02</pdfrwt>
<pdfrwt beam="2">  1       -2 0.11919184E-02 0.90311371E+02</pdfrwt>
<totfact> 0.13776486E+05</totfact>
</mgrwt>
</event>
<event>
 6    1  0.1535419E-002  0.9325382E+02  0.7546771E-02  0.1380514E+00
          2   -1    0    0  501    0  0.00000000000E+00  0.00000000000E+00  0.43097072536E+03  0.43097072536E+03  0.00000000000E+00 0. -1.
         -2   -1    0    0    0  501 -0.00000000000E+00 -0.00000000000E+00 -0.77310435507E+01  0.77310435507E+01  0.00000000000E+00 0.  1.
         23    2    1    2    0    0 -0.51780157679E+01  0.20471965941E+02  0.31931862750E+03  0.33265697288E+03  0.90831506094E+02 0.  0.
         11    1    3    3    0    0 -0.46640216408E+02  0.17083858486E+02  0.20717139502E+03  0.21304261293E+03  0.00000000000E+00 0. -1.
        -11    1    3    3    0    0  0.41462200640E+02  0.33881074556E+01  0.11214723248E+03  0.11961435995E+03  0.00000000000E+00 0.  1.
         22    1    1    2    0    0  0.51780157679E+01 -0.20471965941E+02  0.10392105431E+03  0.10604479603E+03  0.00000000000E+00 0.  1.
<mgrwt>
<rscale>  0 0.64328923E+02</rscale>
<asrwt>0</asrwt>
<pdfrwt beam="1">  1        2 0.66303170E-01 0.93253824E+02</pdfrwt>
<pdfrwt beam="2">  1       -2 0.11893917E-02 0.93253824E+02</pdfrwt>
<totfact> 0.10548743E+05</totfact>
</mgrwt>
</event>
<event>
 6    1  0.1535419E-002  0.9542045E+02  0.7546771E-02  0.1387765E+00
         -2   -1    0    0    0  501 -0.00000000000E+00  0.00000000000E+00  0.96794890030E+02  0.96794890030E+02  0.00000000000E+00 0.  1.
          2   -1    0    0  501    0  0.00000000000E+00 -0.00000000000E+00 -0.19456145188E+03  0.19456145188E+03  0.00000000000E+00 0. -1.
         23    2    1    2    0    0 -0.16895576966E+02 -0.46532221467E+01 -0.18190460126E+03  0.20541262387E+03  0.93797383159E+02 0.  0.
         11    1    3    3    0    0 -0.51142523913E+02  0.31625148664E+01 -0.14789101498E+03  0.15651617030E+03  0.00000000000E+00 0. -1.
        -11    1    3    3    0    0  0.34246946947E+02 -0.78157370131E+01 -0.34013586279E+02  0.48896453571E+02  0.00000000000E+00 0.  1.
         22    1    1    2    0    0  0.16895576966E+02  0.46532221467E+01  0.84138039404E+02  0.85943718049E+02  0.00000000000E+00 0.  1.
<mgrwt>
<rscale>  0 0.62465952E+02</rscale>
<asrwt>0</asrwt>
<pdfrwt beam="1">  1        2 0.29932531E-01 0.95420449E+02</pdfrwt>
<pdfrwt beam="2">  1       -2 0.14891522E-01 0.95420449E+02</pdfrwt>
<totfact> 0.56662797E+03</totfact>
</mgrwt>
</event>
<event>
 6    1  0.1535419E-002  0.9549463E+02  0.7546771E-02  0.1378692E+00
         -2   -1    0    0    0  501 -0.00000000000E+00  0.00000000000E+00  0.10903209079E+03  0.10903209079E+03  0.00000000000E+00 0.  1.
          2   -1    0    0  501    0  0.00000000000E+00 -0.00000000000E+00 -0.46090394935E+02  0.46090394935E+02  0.00000000000E+00 0. -1.
         23    2    1    2    0    0  0.20240942944E+02  0.83407655513E+00  0.71444361197E+01  0.95761508233E+02  0.93321123207E+02 0.  0.
         11    1    3    3    0    0  0.34622120676E+02  0.14187947277E+02  0.41697686773E+02  0.56023978529E+02  0.00000000000E+00 0.  1.
        -11    1    3    3    0    0 -0.14381177732E+02 -0.13353870722E+02 -0.34553250653E+02  0.39737529703E+02  0.00000000000E+00 0. -1.
         22    1    1    2    0    0 -0.20240942944E+02 -0.83407655513E+00  0.55797259738E+02  0.59360977496E+02  0.00000000000E+00 0. -1.
<mgrwt>
<rscale>  0 0.64808801E+02</rscale>
<asrwt>0</asrwt>
<pdfrwt beam="1">  1        2 0.70908300E-02 0.95494625E+02</pdfrwt>
<pdfrwt beam="2">  1       -2 0.16774168E-01 0.95494625E+02</pdfrwt>
<totfact> 0.24899777E+04</totfact>
</mgrwt>
</event>
<event>
 6    1  0.1535419E-002  0.8379150E+02  0.7546771E-02  0.1412814E+00
         -2   -1    0    0    0  501 -0.00000000000E+00  0.00000000000E+00  0.10310387764E+03  0.10310387764E+03  0.00000000000E+00 0.  1.
          2   -1    0    0  501    0  0.00000000000E+00 -0.00000000000E+00 -0.36426143228E+02  0.36426143228E+02  0.00000000000E+00 0. -1.
         23    2    1    2    0    0 -0.13623445918E+02 -0.10838148418E+02  0.15161879228E+02  0.85152203008E+02  0.81963109724E+02 0.  0.
         13    1    3    3    0    0 -0.40836665881E+01 -0.27445582690E+02  0.43112011726E+02  0.51269697649E+02  0.00000000000E+00 0.  1.
        -13    1    3    3    0    0 -0.95397793300E+01  0.16607434272E+02 -0.27950132498E+02  0.33882505359E+02  0.00000000000E+00 0. -1.
         22    1    1    2    0    0  0.13623445918E+02  0.10838148418E+02  0.51515855182E+02  0.54377817858E+02  0.00000000000E+00 0.  1.
<mgrwt>
<rscale>  0 0.56570721E+02</rscale>
<asrwt>0</asrwt>
<pdfrwt beam="1">  1        2 0.56040221E-02 0.83791498E+02</pdfrwt>
<pdfrwt beam="2">  1       -2 0.15862135E-01 0.83791498E+02</pdfrwt>
<totfact> 0.36125479E+04</totfact>
</mgrwt>
</event>
<event>
 6    1  0.1535419E-002  0.9348769E+02  0.7546771E-02  0.1411891E+00
         -2   -1    0    0    0  501 -0.00000000000E+00  0.00000000000E+00  0.17294550926E+02  0.17294550926E+02  0.00000000000E+00 0.  1.
          2   -1    0    0  501    0  0.00000000000E+00 -0.00000000000E+00 -0.19169844770E+03  0.19169844770E+03  0.00000000000E+00 0. -1.
         23    2    1    2    0    0 -0.15841721006E+01  0.12616441395E+02 -0.17240551329E+03  0.19612141243E+03  0.92618913879E+02 0.  0.
         11    1    3    3    0    0  0.11359452423E+02  0.29496183959E+02 -0.17196495660E+03  0.17484567002E+03  0.00000000000E+00 0. -1.
        -11    1    3    3    0    0 -0.12943624524E+02 -0.16879742564E+02 -0.44055668622E+00  0.21275742409E+02  0.00000000000E+00 0.  1.
         22    1    1    2    0    0  0.15841721006E+01 -0.12616441395E+02 -0.19983834938E+01  0.12871586200E+02  0.00000000000E+00 0. -1.
<mgrwt>
<rscale>  0 0.56773969E+02</rscale>
<asrwt>0</asrwt>
<pdfrwt beam="1">  1        2 0.29492068E-01 0.93487686E+02</pdfrwt>
<pdfrwt beam="2">  1       -2 0.26607002E-02 0.93487686E+02</pdfrwt>
<totfact> 0.78084636E+04</totfact>
</mgrwt>
</event>
<event>
 6    1  0.1535419E-002  0.1230192E+03  0.7546771E-02  0.1260478E+00
          2   -1    0    0  501    0  0.00000000000E+00  0.00000000000E+00  0.65568566718E+03  0.65568566718E+03  0.00000000000E+00 0. -1.
         -2   -1    0    0    0  501 -0.00000000000E+00 -0.00000000000E+00 -0.15659122125E+02  0.15659122125E+02  0.00000000000E+00 0.  1.
         23    2    1    2    0    0 -0.46820985225E+02 -0.63361476867E+02  0.41961233785E+03  0.43727363741E+03  0.94481947986E+02 0.  0.
         13    1    3    3    0    0  0.64953848986E+01  0.11261990501E+02  0.73532920323E+01  0.14936310078E+02  0.00000000000E+00 0.  1.
        -13    1    3    3    0    0 -0.53316370124E+02 -0.74623467368E+02  0.41225904581E+03  0.42233732734E+03  0.00000000000E+00 0. -1.
         22    1    1    2    0    0  0.46820985225E+02  0.63361476867E+02  0.22041420721E+03  0.23407115189E+03  0.00000000000E+00 0.  1.
<mgrwt>
<rscale>  0 0.11004969E+03</rscale>
<asrwt>0</asrwt>
<pdfrwt beam="1">  1        2 0.10087470E+00 0.12301919E+03</pdfrwt>
<pdfrwt beam="2">  1       -2 0.24090962E-02 0.12301919E+03</pdfrwt>
<totfact> 0.24881093E+04</totfact>
</mgrwt>
</event>
<event>
 6    1  0.1535419E-002  0.9171325E+02  0.7546771E-02  0.1411121E+00
          2   -1    0    0  501    0  0.00000000000E+00  0.00000000000E+00  0.12767948194E+03  0.12767948194E+03  0.00000000000E+00 0. -1.
         -2   -1    0    0    0  501 -0.00000000000E+00 -0.00000000000E+00 -0.21811954840E+02  0.21811954840E+02  0.00000000000E+00 0.  1.
         23    2    1    2    0    0  0.12767528825E+02 -0.47728180541E+01  0.88914996968E+02  0.12773878493E+03  0.90694712669E+02 0.  0.
         11    1    3    3    0    0 -0.28333983877E+02  0.13684137144E+02  0.73779551429E+02  0.80209054730E+02  0.00000000000E+00 0. -1.
        -11    1    3    3    0    0  0.41101512702E+02 -0.18456955198E+02  0.15135445539E+02  0.47529730204E+02  0.00000000000E+00 0.  1.
         22    1    1    2    0    0 -0.12767528825E+02  0.47728180541E+01  0.16952530137E+02  0.21752651851E+02  0.00000000000E+00 0. -1.
<mgrwt>
<rscale>  0 0.56944494E+02</rscale>
<asrwt>0</asrwt>
<pdfrwt beam="1">  1        2 0.19642997E-01 0.91713251E+02</pdfrwt>
<pdfrwt beam="2">  1       -2 0.33556854E-02 0.91713251E+02</pdfrwt>
<totfact> 0.86686846E+04</totfact>
</mgrwt>
</event>
<event>
 6    1  0.1535419E-002  0.9438646E+02  0.7546771E-02  0.1368023E+00
         -2   -1    0    0    0  501 -0.00000000000E+00  0.00000000000E+00  0.22941629424E+02  0.22941629424E+02  0.00000000000E+00 0.  1.
          2   -1    0    0  501    0  0.00000000000E+00 -0.00000000000E+00 -0.15534930119E+03  0.15534930119E+03  0.00000000000E+00 0. -1.
         23    2    1    2    0    0  0.24500307355E+02 -0.50294781758E+01 -0.10452275411E+03  0.14083256247E+03  0.91012327816E+02 0.  0.
         11    1    3    3    0    0  0.55622112947E+02 -0.19234446939E+02 -0.54377593756E+02  0.80129308623E+02  0.00000000000E+00 0.  1.
        -11    1    3    3    0    0 -0.31121805592E+02  0.14204968764E+02 -0.50145160354E+02  0.60703253849E+02  0.00000000000E+00 0. -1.
         22    1    1    2    0    0 -0.24500307355E+02  0.50294781758E+01 -0.27884917654E+02  0.37458368141E+02  0.00000000000E+00 0. -1.
<mgrwt>
<rscale>  0 0.67719847E+02</rscale>
<asrwt>0</asrwt>
<pdfrwt beam="1">  1        2 0.23899892E-01 0.94386464E+02</pdfrwt>
<pdfrwt beam="2">  1       -2 0.35294816E-02 0.94386464E+02</pdfrwt>
<totfact> 0.65065012E+04</totfact>
</mgrwt>
</event>
<event>
 6    1  0.1535419E-002  0.9224786E+02  0.7546771E-02  0.1413203E+00
          4   -1    0    0  501    0  0.00000000000E+00  0.00000000000E+00  0.23212838468E+03  0.23212838468E+03  0.00000000000E+00 0. -1.
         -4   -1    0    0    0  501 -0.00000000000E+00 -0.00000000000E+00 -0.12592995163E+02  0.12592995163E+02  0.00000000000E+00 0.  1.
         23    2    1    2    0    0 -0.70063238653E+01 -0.10912249006E+02  0.20727308754E+03  0.22687397661E+03  0.91331827368E+02 0.  0.
         11    1    3    3    0    0 -0.39265251870E+02  0.40316949519E+01  0.17316303462E+03  0.17760476099E+03  0.00000000000E+00 0. -1.
        -11    1    3    3    0    0  0.32258928005E+02 -0.14943943958E+02  0.34110052925E+02  0.49269215618E+02  0.00000000000E+00 0.  1.
         22    1    1    2    0    0  0.70063238653E+01  0.10912249006E+02  0.12262301972E+02  0.17847403232E+02  0.00000000000E+00 0.  1.
<mgrwt>
<rscale>  0 0.56485169E+02</rscale>
<asrwt>0</asrwt>
<pdfrwt beam="1">  1        4 0.35712056E-01 0.92247864E+02</pdfrwt>
<pdfrwt beam="2">  1       -4 0.19373840E-02 0.92247864E+02</pdfrwt>
<totfact> 0.11835129E+04</totfact>
</mgrwt>
</event>
<event>
 6    1  0.1535419E-002  0.9434278E+02  0.7546771E-02  0.1371548E+00
         -2   -1    0    0    0  501 -0.00000000000E+00  0.00000000000E+00  0.85944186183E+01  0.85944186183E+01  0.00000000000E+00 0.  1.
          2   -1    0    0  501    0  0.00000000000E+00 -0.00000000000E+00 -0.46595438701E+03  0.46595438701E+03  0.00000000000E+00 0. -1.
         23    2    1    2    0    0 -0.10305982544E+00  0.23625538451E+02 -0.41905738065E+03  0.42954586221E+03  0.91336645317E+02 0.  0.
         11    1    3    3    0    0  0.14142849920E+02  0.84601030150E+01 -0.40280936255E+03  0.40314634576E+03  0.00000000000E+00 0. -1.
        -11    1    3    3    0    0 -0.14245909745E+02  0.15165435436E+02 -0.16248018103E+02  0.26399516449E+02  0.00000000000E+00 0.  1.
         22    1    1    2    0    0  0.10305982544E+00 -0.23625538451E+02 -0.38302587743E+02  0.45002943417E+02  0.00000000000E+00 0.  1.
<mgrwt>
<rscale>  0 0.66738732E+02</rscale>
<asrwt>0</asrwt>
<pdfrwt beam="1">  1        2 0.71685297E-01 0.94342776E+02</pdfrwt>
<pdfrwt beam="2">  1       -2 0.13222181E-02 0.94342776E+02</pdfrwt>
<totfact> 0.83632400E+04</totfact>
</mgrwt>
</event>
<event>
 6    1  0.1535419E-002  0.9198556E+02  0.7546771E-02  0.1411861E+00
          4   -1    0    0  501    0  0.00000000000E+00  0.00000000000E+00  0.47285195654E+02  0.47285195654E+02  0.00000000000E+00 0. -1.
         -4   -1    0    0    0  501 -0.00000000000E+00 -0.00000000000E+00 -0.67436985278E+02  0.67436985278E+02  0.00000000000E+00 0.  1.
         23    2    1    2    0    0 -0.50301657842E+01 -0.12371496737E+02 -0.17718627343E+01  0.92002625218E+02  0.91010917203E+02 0.  0.
         13    1    3    3    0    0 -0.25897291084E+02  0.31237296775E+02  0.10920202990E+02  0.42020105052E+02  0.00000000000E+00 0.  1.
        -13    1    3    3    0    0  0.20867125300E+02 -0.43608793512E+02 -0.12692065724E+02  0.49982520166E+02  0.00000000000E+00 0. -1.
         22    1    1    2    0    0  0.50301657842E+01  0.12371496737E+02 -0.18379926890E+02  0.22719555713E+02  0.00000000000E+00 0.  1.
<mgrwt>
<rscale>  0 0.56780716E+02</rscale>
<asrwt>0</asrwt>
<pdfrwt beam="1">  1        4 0.72746455E-02 0.91985562E+02</pdfrwt>
<pdfrwt beam="2">  1       -4 0.10374921E-01 0.91985562E+02</pdfrwt>
<totfact> 0.13374915E+04</totfact>
</mgrwt>
</event>
<event>
 6    1  0.1535419E-002  0.9535389E+02  0.7546771E-02  0.1372253E+00
          1   -1    0    0  501    0  0.00000000000E+00  0.00000000000E+00  0.14998058961E+03  0.14998058961E+03  0.00000000000E+00 0. -1.
         -1   -1    0    0    0  501 -0.00000000000E+00 -0.00000000000E+00 -0.29154571017E+02  0.29154571017E+02  0.00000000000E+00 0.  1.
         23    2    1    2    0    0 -0.21874527139E+02  0.57486768344E+01  0.12386276856E+03  0.15631490486E+03  0.92632725445E+02 0.  0.
         13    1    3    3    0    0 -0.43638071554E+02 -0.12064019996E+02  0.21428333992E+02  0.50089872880E+02  0.00000000000E+00 0. -1.
        -13    1    3    3    0    0  0.21763544415E+02  0.17812696830E+02  0.10243443457E+03  0.10622503198E+03  0.00000000000E+00 0.  1.
         22    1    1    2    0    0  0.21874527139E+02 -0.57486768344E+01 -0.30367499670E+01  0.22820255767E+02  0.00000000000E+00 0.  1.
<mgrwt>
<rscale>  0 0.66544780E+02</rscale>
<asrwt>0</asrwt>
<pdfrwt beam="1">  1        1 0.23073937E-01 0.95353888E+02</pdfrwt>
<pdfrwt beam="2">  1       -1 0.44853187E-02 0.95353888E+02</pdfrwt>
<totfact> 0.38575674E+04</totfact>
</mgrwt>
</event>
<event>
 6    1  0.1535419E-002  0.9263066E+02  0.7546771E-02  0.1398199E+00
          2   -1    0    0  501    0  0.00000000000E+00  0.00000000000E+00  0.28240393048E+02  0.28240393048E+02  0.00000000000E+00 0. -1.
         -2   -1    0    0    0  501 -0.00000000000E+00 -0.00000000000E+00 -0.10526447604E+03  0.10526447604E+03  0.00000000000E+00 0.  1.
         23    2    1    2    0    0 -0.28050939597E+01 -0.15966353475E+02 -0.62542859793E+02  0.11176783109E+03  0.91201128069E+02 0.  0.
         11    1    3    3    0    0 -0.26397352506E+02  0.30008261550E+02 -0.35442885716E+02  0.53418293950E+02  0.00000000000E+00 0.  1.
        -11    1    3    3    0    0  0.23592258546E+02 -0.45974615025E+02 -0.27099974077E+02  0.58349537144E+02  0.00000000000E+00 0. -1.
         22    1    1    2    0    0  0.28050939597E+01  0.15966353475E+02 -0.14481223198E+02  0.21737037993E+02  0.00000000000E+00 0.  1.
<mgrwt>
<rscale>  0 0.59912547E+02</rscale>
<asrwt>0</asrwt>
<pdfrwt beam="1">  1        2 0.43446759E-02 0.92630658E+02</pdfrwt>
<pdfrwt beam="2">  1       -2 0.16194534E-01 0.92630658E+02</pdfrwt>
<totfact> 0.49188938E+04</totfact>
</mgrwt>
</event>
<event>
 6    1  0.1535419E-002  0.8963193E+02  0.7546771E-02  0.1430990E+00
         -2   -1    0    0    0  501 -0.00000000000E+00  0.00000000000E+00  0.12959311120E+01  0.12959311120E+01  0.00000000000E+00 0. -1.
          2   -1    0    0  501    0  0.00000000000E+00 -0.00000000000E+00 -0.26453912918E+04  0.26453912918E+04  0.00000000000E+00 0.  1.
         23    2    1    2    0    0 -0.76355687244E+01 -0.75840957454E+01 -0.25889740205E+04  0.25905251133E+04  0.88983499086E+02 0.  0.
         11    1    3    3    0    0 -0.22984746580E+01 -0.27720047393E+02 -0.26464087886E+03  0.26609862603E+03  0.00000000000E+00 0. -1.
        -11    1    3    3    0    0 -0.53370940664E+01  0.20135951648E+02 -0.23243331417E+04  0.23244264872E+04  0.00000000000E+00 0.  1.
         22    1    1    2    0    0  0.76355687244E+01  0.75840957454E+01 -0.55121340118E+02  0.56162109598E+02  0.00000000000E+00 0.  1.
<mgrwt>
<rscale>  0 0.52761874E+02</rscale>
<asrwt>0</asrwt>
<pdfrwt beam="1">  1        2 0.40698218E+00 0.89631934E+02</pdfrwt>
<pdfrwt beam="2">  1       -2 0.19937456E-03 0.89631934E+02</pdfrwt>
<totfact> 0.67247988E+04</totfact>
</mgrwt>
</event>
<event>
 6    1  0.1535419E-002  0.9333397E+02  0.7546771E-02  0.1426560E+00
         -1   -1    0    0    0  501 -0.00000000000E+00  0.00000000000E+00  0.31270317591E+01  0.31270317591E+01  0.00000000000E+00 0.  1.
          1   -1    0    0  501    0  0.00000000000E+00 -0.00000000000E+00 -0.10811899490E+04  0.10811899490E+04  0.00000000000E+00 0. -1.
         23    2    1    2    0    0  0.99411633796E+01  0.22599368570E+01 -0.10547617493E+04  0.10588831751E+04  0.92775517459E+02 0.  0.
         13    1    3    3    0    0  0.30294863120E+02  0.38965267491E+02 -0.67706552590E+03  0.67886213414E+03  0.00000000000E+00 0. -1.
        -13    1    3    3    0    0 -0.20353699740E+02 -0.36705330634E+02 -0.37769622340E+03  0.38002104094E+03  0.00000000000E+00 0.  1.
         22    1    1    2    0    0 -0.99411633796E+01 -0.22599368570E+01 -0.23301167963E+02  0.25433805700E+02  0.00000000000E+00 0.  1.
<mgrwt>
<rscale>  0 0.53656773E+02</rscale>
<asrwt>0</asrwt>
<pdfrwt beam="1">  1        1 0.16633730E+00 0.93333974E+02</pdfrwt>
<pdfrwt beam="2">  1       -1 0.48108069E-03 0.93333974E+02</pdfrwt>
<totfact> 0.67564596E+04</totfact>
</mgrwt>
</event>
<event>
 6    1  0.1535419E-002  0.9320962E+02  0.7546771E-02  0.1390861E+00
          4   -1    0    0  501    0  0.00000000000E+00  0.00000000000E+00  0.55435217209E+02  0.55435217209E+02  0.00000000000E+00 0. -1.
         -4   -1    0    0    0  501 -0.00000000000E+00 -0.00000000000E+00 -0.12893948596E+03  0.12893948596E+03  0.00000000000E+00 0.  1.
         23    2    1    2    0    0 -0.74890770046E+01 -0.16244814979E+02  0.14711609521E+02  0.94363473494E+02  0.91477064815E+02 0.  0.
         11    1    3    3    0    0 -0.15939791351E+02 -0.47874121948E+02  0.29490001747E+02  0.58443722534E+02  0.00000000000E+00 0. -1.
        -11    1    3    3    0    0  0.84507143460E+01  0.31629306969E+02 -0.14778392225E+02  0.35919750960E+02  0.00000000000E+00 0.  1.
         22    1    1    2    0    0  0.74890770046E+01  0.16244814979E+02 -0.88215878271E+02  0.90011229673E+02  0.00000000000E+00 0.  1.
<mgrwt>
<rscale>  0 0.61693011E+02</rscale>
<asrwt>0</asrwt>
<pdfrwt beam="1">  1        4 0.85284950E-02 0.93209622E+02</pdfrwt>
<pdfrwt beam="2">  1       -4 0.19836844E-01 0.93209622E+02</pdfrwt>
<totfact> 0.33796527E+03</totfact>
</mgrwt>
</event>
<event>
 6    1  0.1535419E-002  0.1054392E+03  0.7546771E-02  0.1372139E+00
         -2   -1    0    0    0  501 -0.00000000000E+00  0.00000000000E+00  0.53138873440E+01  0.53138873440E+01  0.00000000000E+00 0.  1.
          2   -1    0    0  501    0  0.00000000000E+00 -0.00000000000E+00 -0.11295710087E+04  0.11295710087E+04  0.00000000000E+00 0. -1.
         23    2    1    2    0    0  0.16683040668E+02 -0.16016208616E+01 -0.11019520539E+04  0.11069849844E+04  0.10409869143E+03 0.  0.
         11    1    3    3    0    0  0.29681005114E+02 -0.15692251336E+02 -0.11385581605E+03  0.11870280395E+03  0.00000000000E+00 0.  1.
        -11    1    3    3    0    0 -0.12997964447E+02  0.14090630475E+02 -0.98809623783E+03  0.98828218043E+03  0.00000000000E+00 0. -1.
         22    1    1    2    0    0 -0.16683040668E+02  0.16016208616E+01 -0.22305067437E+02  0.27899911625E+02  0.00000000000E+00 0.  1.
<mgrwt>
<rscale>  0 0.66576115E+02</rscale>
<asrwt>0</asrwt>
<pdfrwt beam="1">  1        2 0.17377994E+00 0.10543921E+03</pdfrwt>
<pdfrwt beam="2">  1       -2 0.81752215E-03 0.10543921E+03</pdfrwt>
<totfact> 0.57451874E+04</totfact>
</mgrwt>
</event>
<event>
 6    1  0.1535419E-002  0.9415715E+02  0.7546771E-02  0.1375238E+00
          2   -1    0    0  501    0  0.00000000000E+00  0.00000000000E+00  0.65889637450E+03  0.65889637450E+03  0.00000000000E+00 0. -1.
         -2   -1    0    0    0  501 -0.00000000000E+00 -0.00000000000E+00 -0.52857743408E+01  0.52857743408E+01  0.00000000000E+00 0.  1.
         23    2    1    2    0    0 -0.13349949081E+02  0.17942591329E+02  0.56505853339E+03  0.57284964502E+03  0.91462625839E+02 0.  0.
         13    1    3    3    0    0  0.31567853303E+02  0.30883627731E+02  0.20047473216E+03  0.20528138264E+03  0.00000000000E+00 0. -1.
        -13    1    3    3    0    0 -0.44917802383E+02 -0.12941036402E+02  0.36458380122E+03  0.36756826238E+03  0.00000000000E+00 0.  1.
         22    1    1    2    0    0  0.13349949081E+02 -0.17942591329E+02  0.88552066778E+02  0.91332503823E+02  0.00000000000E+00 0. -1.
<mgrwt>
<rscale>  0 0.65732230E+02</rscale>
<asrwt>0</asrwt>
<pdfrwt beam="1">  1        2 0.10136861E+00 0.94157154E+02</pdfrwt>
<pdfrwt beam="2">  1       -2 0.81319657E-03 0.94157154E+02</pdfrwt>
<totfact> 0.11360493E+05</totfact>
</mgrwt>
</event>
<event>
 6    1  0.1535419E-002  0.1041285E+03  0.7546771E-02  0.1313593E+00
         -2   -1    0    0    0  501 -0.00000000000E+00  0.00000000000E+00  0.11670551817E+02  0.11670551817E+02  0.00000000000E+00 0.  1.
          2   -1    0    0  501    0  0.00000000000E+00 -0.00000000000E+00 -0.49532143793E+03  0.49532143793E+03  0.00000000000E+00 0. -1.
         23    2    1    2    0    0 -0.29326744838E+02 -0.37737772768E+02 -0.32124262016E+03  0.33769744670E+03  0.92512415616E+02 0.  0.
         13    1    3    3    0    0  0.61617534951E+01 -0.40593223707E+02 -0.52705952996E+02  0.66810886076E+02  0.00000000000E+00 0.  1.
        -13    1    3    3    0    0 -0.35488498334E+02  0.28554509399E+01 -0.26853666717E+03  0.27088656062E+03  0.00000000000E+00 0. -1.
         22    1    1    2    0    0  0.29326744838E+02  0.37737772768E+02 -0.16240826595E+03  0.16929454304E+03  0.00000000000E+00 0.  1.
<mgrwt>
<rscale>  0 0.85707517E+02</rscale>
<asrwt>0</asrwt>
<pdfrwt beam="1">  1        2 0.76203298E-01 0.10412850E+03</pdfrwt>
<pdfrwt beam="2">  1       -2 0.17954695E-02 0.10412850E+03</pdfrwt>
<totfact> 0.51187873E+04</totfact>
</mgrwt>
</event>
<event>
 6    1  0.1535419E-002  0.9291609E+02  0.7546771E-02  0.1412549E+00
         -2   -1    0    0    0  501 -0.00000000000E+00  0.00000000000E+00  0.29759228202E+01  0.29759228202E+01  0.00000000000E+00 0. -1.
          2   -1    0    0  501    0  0.00000000000E+00 -0.00000000000E+00 -0.14611710287E+04  0.14611710287E+04  0.00000000000E+00 0.  1.
         23    2    1    2    0    0  0.12773798143E+02 -0.10834648054E+01 -0.14317150601E+04  0.14347269475E+04  0.92027477408E+02 0.  0.
         13    1    3    3    0    0  0.15038826849E+02  0.35523020900E+02 -0.11484102968E+04  0.11490579886E+04  0.00000000000E+00 0. -1.
        -13    1    3    3    0    0 -0.22650287060E+01 -0.36606485706E+02 -0.28330476332E+03  0.28566895888E+03  0.00000000000E+00 0.  1.
         22    1    1    2    0    0 -0.12773798143E+02  0.10834648054E+01 -0.26480045748E+02  0.29420004041E+02  0.00000000000E+00 0. -1.
<mgrwt>
<rscale>  0 0.56628802E+02</rscale>
<asrwt>0</asrwt>
<pdfrwt beam="1">  1        2 0.22479580E+00 0.92916093E+02</pdfrwt>
<pdfrwt beam="2">  1       -2 0.45783376E-03 0.92916093E+02</pdfrwt>
<totfact> 0.85325788E+04</totfact>
</mgrwt>
</event>
<event>
 6    1  0.1535419E-002  0.9362343E+02  0.7546771E-02  0.1398572E+00
         -3   -1    0    0    0  501 -0.00000000000E+00  0.00000000000E+00  0.86431650039E+02  0.86431650039E+02  0.00000000000E+00 0.  1.
          3   -1    0    0  501    0  0.00000000000E+00 -0.00000000000E+00 -0.38712624045E+02  0.38712624045E+02  0.00000000000E+00 0. -1.
         23    2    1    2    0    0 -0.92038437298E+01 -0.12605404607E+02  0.23830187470E+02  0.96608619706E+02  0.92313274245E+02 0.  0.
         11    1    3    3    0    0  0.19280761821E+02  0.36004200823E+01 -0.28659327767E+02  0.34728487862E+02  0.00000000000E+00 0. -1.
        -11    1    3    3    0    0 -0.28484605550E+02 -0.16205824689E+02  0.52489515236E+02  0.61880131843E+02  0.00000000000E+00 0.  1.
         22    1    1    2    0    0  0.92038437298E+01  0.12605404607E+02  0.23888838525E+02  0.28535654378E+02  0.00000000000E+00 0.  1.
<mgrwt>
<rscale>  0 0.59823889E+02</rscale>
<asrwt>0</asrwt>
<pdfrwt beam="1">  1        3 0.59557883E-02 0.93623435E+02</pdfrwt>
<pdfrwt beam="2">  1       -3 0.13297177E-01 0.93623435E+02</pdfrwt>
<totfact> 0.16217926E+04</totfact>
</mgrwt>
</event>
<event>
 6    1  0.1535419E-002  0.9232667E+02  0.7546771E-02  0.1425776E+00
         -2   -1    0    0    0  501 -0.00000000000E+00  0.00000000000E+00  0.34484640335E+01  0.34484640335E+01  0.00000000000E+00 0.  1.
          2   -1    0    0  501    0  0.00000000000E+00 -0.00000000000E+00 -0.77661377500E+03  0.77661377500E+03  0.00000000000E+00 0. -1.
         23    2    1    2    0    0  0.85112079744E+01 -0.64163219418E+01 -0.71398647670E+03  0.71993117989E+03  0.91709350781E+02 0.  0.
         13    1    3    3    0    0  0.17136851158E+02 -0.47275003606E+02 -0.41786558754E+03  0.42088032370E+03  0.00000000000E+00 0. -1.
        -13    1    3    3    0    0 -0.86256431834E+01  0.40858681664E+02 -0.29612088916E+03  0.29905085619E+03  0.00000000000E+00 0.  1.
         22    1    1    2    0    0 -0.85112079744E+01  0.64163219418E+01 -0.59178834272E+02  0.60131059147E+02  0.00000000000E+00 0. -1.
<mgrwt>
<rscale>  0 0.53817360E+02</rscale>
<asrwt>0</asrwt>
<pdfrwt beam="1">  1        2 0.11947912E+00 0.92326675E+02</pdfrwt>
<pdfrwt beam="2">  1       -2 0.53053257E-03 0.92326675E+02</pdfrwt>
<totfact> 0.17029345E+05</totfact>
</mgrwt>
</event>
<event>
 6    1  0.1535419E-002  0.9437872E+02  0.7546771E-02  0.1408359E+00
          2   -1    0    0  501    0  0.00000000000E+00  0.00000000000E+00  0.14591537442E+04  0.14591537442E+04  0.00000000000E+00 0. -1.
         -2   -1    0    0    0  501 -0.00000000000E+00 -0.00000000000E+00 -0.25820241817E+01  0.25820241817E+01  0.00000000000E+00 0.  1.
         23    2    1    2    0    0 -0.13058197226E+02  0.15146347296E+00  0.14153889139E+04  0.14185320304E+04  0.93470873612E+02 0.  0.
         11    1    3    3    0    0  0.19470476076E+02 -0.34226899304E+02  0.37379049804E+03  0.37585890504E+03  0.00000000000E+00 0. -1.
        -11    1    3    3    0    0 -0.32528673302E+02  0.34378362777E+02  0.10415984159E+04  0.10426731254E+04  0.00000000000E+00 0.  1.
         22    1    1    2    0    0  0.13058197226E+02 -0.15146347296E+00  0.41182806086E+02  0.43203737953E+02  0.00000000000E+00 0.  1.
<mgrwt>
<rscale>  0 0.57561710E+02</rscale>
<asrwt>0</asrwt>
<pdfrwt beam="1">  1        2 0.22448453E+00 0.94378725E+02</pdfrwt>
<pdfrwt beam="2">  1       -2 0.39723565E-03 0.94378725E+02</pdfrwt>
<totfact> 0.10451880E+05</totfact>
</mgrwt>
</event>
<event>
 6    1  0.1535419E-002  0.1029431E+03  0.7546771E-02  0.1319814E+00
          2   -1    0    0  501    0  0.00000000000E+00  0.00000000000E+00  0.11066709889E+04  0.11066709889E+04  0.00000000000E+00 0. -1.
         -2   -1    0    0    0  501 -0.00000000000E+00 -0.00000000000E+00 -0.50378905058E+01  0.50378905058E+01  0.00000000000E+00 0.  1.
         23    2    1    2    0    0  0.31441988182E+02  0.31113730713E+02  0.85081418924E+03  0.85701928785E+03  0.92954893721E+02 0.  0.
         11    1    3    3    0    0  0.29060258478E+02  0.17976435770E+02  0.83738681828E+03  0.83808372750E+03  0.00000000000E+00 0. -1.
        -11    1    3    3    0    0  0.23817297042E+01  0.13137294943E+02  0.13427370960E+02  0.18935560348E+02  0.00000000000E+00 0.  1.
         22    1    1    2    0    0 -0.31441988182E+02 -0.31113730713E+02  0.25081890911E+03  0.25468959151E+03  0.00000000000E+00 0.  1.
<mgrwt>
<rscale>  0 0.83346493E+02</rscale>
<asrwt>0</asrwt>
<pdfrwt beam="1">  1        2 0.17025688E+00 0.10294307E+03</pdfrwt>
<pdfrwt beam="2">  1       -2 0.77506096E-03 0.10294307E+03</pdfrwt>
<totfact> 0.63655557E+04</totfact>
</mgrwt>
</event>
<event>
 6    1  0.1535419E-002  0.1000288E+03  0.7546771E-02  0.1328295E+00
          2   -1    0    0  501    0  0.00000000000E+00  0.00000000000E+00  0.11232656546E+03  0.11232656546E+03  0.00000000000E+00 0.  1.
         -2   -1    0    0    0  501 -0.00000000000E+00 -0.00000000000E+00 -0.68416362130E+02  0.68416362130E+02  0.00000000000E+00 0. -1.
         23    2    1    2    0    0 -0.28676897779E+02  0.29962347581E+02  0.78168781942E+02  0.12694927604E+03  0.91025564963E+02 0.  0.
         11    1    3    3    0    0 -0.41654144480E+02  0.29315357480E+02  0.33883293165E+01  0.51048395784E+02  0.00000000000E+00 0. -1.
        -11    1    3    3    0    0  0.12977246700E+02  0.64699010072E+00  0.74780452626E+02  0.75900880252E+02  0.00000000000E+00 0.  1.
         22    1    1    2    0    0  0.28676897779E+02 -0.29962347581E+02 -0.34258578613E+02  0.53793651553E+02  0.00000000000E+00 0. -1.
<mgrwt>
<rscale>  0 0.80267218E+02</rscale>
<asrwt>0</asrwt>
<pdfrwt beam="1">  1        2 0.17281010E-01 0.10002880E+03</pdfrwt>
<pdfrwt beam="2">  1       -2 0.10525594E-01 0.10002880E+03</pdfrwt>
<totfact> 0.18122349E+04</totfact>
</mgrwt>
</event>
<event>
 6    1  0.1535419E-002  0.9312946E+02  0.7546771E-02  0.1419809E+00
         -2   -1    0    0    0  501 -0.00000000000E+00  0.00000000000E+00  0.34897749612E+01  0.34897749612E+01  0.00000000000E+00 0.  1.
          2   -1    0    0  501    0  0.00000000000E+00 -0.00000000000E+00 -0.95250426134E+03  0.95250426134E+03  0.00000000000E+00 0. -1.
         23    2    1    2    0    0 -0.73593449785E+01 -0.86796105006E+01 -0.92185082361E+03  0.92654305716E+03  0.92431597398E+02 0.  0.
         13    1    3    3    0    0  0.33754942557E+02 -0.30313994680E+02 -0.53278577194E+03  0.53471395456E+03  0.00000000000E+00 0. -1.
        -13    1    3    3    0    0 -0.41114287535E+02  0.21634384179E+02 -0.38906505167E+03  0.39182910261E+03  0.00000000000E+00 0.  1.
         22    1    1    2    0    0  0.73593449785E+01  0.86796105006E+01 -0.27163662776E+02  0.29450979141E+02  0.00000000000E+00 0.  1.
<mgrwt>
<rscale>  0 0.55061391E+02</rscale>
<asrwt>0</asrwt>
<pdfrwt beam="1">  1        2 0.14653906E+00 0.93129457E+02</pdfrwt>
<pdfrwt beam="2">  1       -2 0.53688865E-03 0.93129457E+02</pdfrwt>
<totfact> 0.12963311E+05</totfact>
</mgrwt>
</event>
<event>
 6    1  0.1535419E-002  0.9203326E+02  0.7546771E-02  0.1379362E+00
          2   -1    0    0  501    0  0.00000000000E+00  0.00000000000E+00  0.11003070146E+03  0.11003070146E+03  0.00000000000E+00 0. -1.
         -2   -1    0    0    0  501 -0.00000000000E+00 -0.00000000000E+00 -0.36571168293E+02  0.36571168293E+02  0.00000000000E+00 0.  1.
         23    2    1    2    0    0  0.20690954644E+01 -0.22288838805E+02  0.81384401011E+02  0.12285577488E+03  0.89269520001E+02 0.  0.
         13    1    3    3    0    0  0.66225563519E+01  0.31585873359E+02  0.10986291539E+02  0.34091410213E+02  0.00000000000E+00 0.  1.
        -13    1    3    3    0    0 -0.45534608875E+01 -0.53874712164E+02  0.70398109472E+02  0.88764364663E+02  0.00000000000E+00 0. -1.
         22    1    1    2    0    0 -0.20690954644E+01  0.22288838805E+02 -0.79248678480E+01  0.23746094873E+02  0.00000000000E+00 0.  1.
<mgrwt>
<rscale>  0 0.64631804E+02</rscale>
<asrwt>0</asrwt>
<pdfrwt beam="1">  1        2 0.16927800E-01 0.92033259E+02</pdfrwt>
<pdfrwt beam="2">  1       -2 0.56263336E-02 0.92033259E+02</pdfrwt>
<totfact> 0.47833588E+04</totfact>
</mgrwt>
</event>
<event>
 6    1  0.1535419E-002  0.9366958E+02  0.7546771E-02  0.1402288E+00
         -2   -1    0    0    0  501 -0.00000000000E+00  0.00000000000E+00  0.47072316466E+01  0.47072316466E+01  0.00000000000E+00 0.  1.
          2   -1    0    0  501    0  0.00000000000E+00 -0.00000000000E+00 -0.64865178029E+03  0.64865178029E+03  0.00000000000E+00 0. -1.
         23    2    1    2    0    0  0.13951193091E+02  0.46156933636E+01 -0.59243599099E+03  0.59979529357E+03  0.92509731124E+02 0.  0.
         11    1    3    3    0    0 -0.24358095530E+02 -0.28342209476E+02 -0.35969067299E+03  0.36162684897E+03  0.00000000000E+00 0. -1.
        -11    1    3    3    0    0  0.38309288621E+02  0.32957902839E+02 -0.23274531800E+03  0.23816844460E+03  0.00000000000E+00 0.  1.
         22    1    1    2    0    0 -0.13951193091E+02 -0.46156933636E+01 -0.51508557653E+02  0.53563718368E+02  0.00000000000E+00 0.  1.
<mgrwt>
<rscale>  0 0.58950933E+02</rscale>
<asrwt>0</asrwt>
<pdfrwt beam="1">  1        2 0.99792482E-01 0.93669583E+02</pdfrwt>
<pdfrwt beam="2">  1       -2 0.72419021E-03 0.93669583E+02</pdfrwt>
<totfact> 0.13611074E+05</totfact>
</mgrwt>
</event>
<event>
 6    1  0.1535419E-002  0.9316250E+02  0.7546771E-02  0.1394622E+00
         -2   -1    0    0    0  501 -0.00000000000E+00  0.00000000000E+00  0.28371251977E+02  0.28371251977E+02  0.00000000000E+00 0.  1.
          2   -1    0    0  501    0  0.00000000000E+00 -0.00000000000E+00 -0.73885780632E+03  0.73885780632E+03  0.00000000000E+00 0. -1.
         23    2    1    2    0    0  0.11522045243E+02 -0.12320364605E+02 -0.73311182685E+03  0.73900757947E+03  0.91622611527E+02 0.  0.
         11    1    3    3    0    0  0.50456262771E+01 -0.37208422147E+02 -0.66720964204E+03  0.66826538998E+03  0.00000000000E+00 0. -1.
        -11    1    3    3    0    0  0.64764189658E+01  0.24888057542E+02 -0.65902184813E+02  0.70742189491E+02  0.00000000000E+00 0.  1.
         22    1    1    2    0    0 -0.11522045243E+02  0.12320364605E+02  0.22625272510E+02  0.28221478819E+02  0.00000000000E+00 0.  1.
<mgrwt>
<rscale>  0 0.60771573E+02</rscale>
<asrwt>0</asrwt>
<pdfrwt beam="1">  1        2 0.11367041E+00 0.93162502E+02</pdfrwt>
<pdfrwt beam="2">  1       -2 0.43648087E-02 0.93162502E+02</pdfrwt>
<totfact> 0.88548487E+03</totfact>
</mgrwt>
</event>
<event>
 6    1  0.1535419E-002  0.9714429E+02  0.7546771E-02  0.1351651E+00
          4   -1    0    0  501    0  0.00000000000E+00  0.00000000000E+00  0.20732200610E+03  0.20732200610E+03  0.00000000000E+00 0. -1.
         -4   -1    0    0    0  501 -0.00000000000E+00 -0.00000000000E+00 -0.21033216379E+02  0.21033216379E+02  0.00000000000E+00 0.  1.
         23    2    1    2    0    0  0.23524503944E+02 -0.18953209122E+02  0.16473401673E+03  0.19124411012E+03  0.92327606737E+02 0.  0.
         11    1    3    3    0    0  0.33305761933E+02 -0.26751561878E+02  0.22164357360E+02  0.48126692989E+02  0.00000000000E+00 0.  1.
        -11    1    3    3    0    0 -0.97812579892E+01  0.77983527556E+01  0.14256965937E+03  0.14311741713E+03  0.00000000000E+00 0. -1.
         22    1    1    2    0    0 -0.23524503944E+02  0.18953209122E+02  0.21554772995E+02  0.37111112361E+02  0.00000000000E+00 0.  1.
<mgrwt>
<rscale>  0 0.72543682E+02</rscale>
<asrwt>0</asrwt>
<pdfrwt beam="1">  1        4 0.31895692E-01 0.97144292E+02</pdfrwt>
<pdfrwt beam="2">  1       -4 0.32358796E-02 0.97144292E+02</pdfrwt>
<totfact> 0.67536077E+03</totfact>
</mgrwt>
</event>
<event>
 6    1  0.1535419E-002  0.9253559E+02  0.7546771E-02  0.1409007E+00
         -4   -1    0    0    0  501 -0.00000000000E+00  0.00000000000E+00  0.47599376806E+02  0.47599376806E+02  0.00000000000E+00 0. -1.
          4   -1    0    0  501    0  0.00000000000E+00 -0.00000000000E+00 -0.59393191376E+02  0.59393191376E+02  0.00000000000E+00 0.  1.
         23    2    1    2    0    0  0.11906967029E+02 -0.68068250521E+01 -0.11738756814E+02  0.93277184029E+02  0.91513528605E+02 0.  0.
         11    1    3    3    0    0  0.34132824589E+02 -0.95507896619E+01  0.29655212642E+02  0.46213622823E+02  0.00000000000E+00 0. -1.
        -11    1    3    3    0    0 -0.22225857560E+02  0.27439646098E+01 -0.41393969456E+02  0.47063561206E+02  0.00000000000E+00 0.  1.
         22    1    1    2    0    0 -0.11906967029E+02  0.68068250521E+01 -0.55057755423E-01  0.13715384153E+02  0.00000000000E+00 0. -1.
<mgrwt>
<rscale>  0 0.57415970E+02</rscale>
<asrwt>0</asrwt>
<pdfrwt beam="1">  1        4 0.91374141E-02 0.92535586E+02</pdfrwt>
<pdfrwt beam="2">  1       -4 0.73229810E-02 0.92535586E+02</pdfrwt>
<totfact> 0.16381108E+04</totfact>
</mgrwt>
</event>
<event>
 6    1  0.1535419E-002  0.1015334E+03  0.7546771E-02  0.1324647E+00
          2   -1    0    0  501    0  0.00000000000E+00  0.00000000000E+00  0.14174826976E+03  0.14174826976E+03  0.00000000000E+00 0. -1.
         -2   -1    0    0    0  501 -0.00000000000E+00 -0.00000000000E+00 -0.46054223585E+02  0.46054223585E+02  0.00000000000E+00 0.  1.
         23    2    1    2    0    0  0.42138482425E+02 -0.37059606717E+01  0.10327587763E+03  0.14482726776E+03  0.92301921650E+02 0.  0.
         11    1    3    3    0    0  0.46269054185E+02  0.12078137745E+01  0.52389091191E+01  0.46580364512E+02  0.00000000000E+00 0.  1.
        -11    1    3    3    0    0 -0.41305717600E+01 -0.49137744463E+01  0.98036968515E+02  0.98246903249E+02  0.00000000000E+00 0. -1.
         22    1    1    2    0    0 -0.42138482425E+02  0.37059606717E+01 -0.75818314598E+01  0.42975225583E+02  0.00000000000E+00 0.  1.
<mgrwt>
<rscale>  0 0.81572671E+02</rscale>
<asrwt>0</asrwt>
<pdfrwt beam="1">  1        2 0.21807426E-01 0.10153340E+03</pdfrwt>
<pdfrwt beam="2">  1       -2 0.70852652E-02 0.10153340E+03</pdfrwt>
<totfact> 0.25723454E+04</totfact>
</mgrwt>
</event>
<event>
 6    1  0.1535419E-002  0.9338917E+02  0.7546771E-02  0.1421194E+00
          2   -1    0    0  501    0  0.00000000000E+00  0.00000000000E+00  0.85530215507E+03  0.85530215507E+03  0.00000000000E+00 0. -1.
         -2   -1    0    0    0  501 -0.00000000000E+00 -0.00000000000E+00 -0.33777598823E+01  0.33777598823E+01  0.00000000000E+00 0.  1.
         23    2    1    2    0    0 -0.96855299295E+01  0.53134299196E+01  0.80835697355E+03  0.81373369981E+03  0.92733464783E+02 0.  0.
         13    1    3    3    0    0 -0.23012018561E+02 -0.62905876525E+01  0.77971189726E+03  0.78007677008E+03  0.00000000000E+00 0. -1.
        -13    1    3    3    0    0  0.13326488631E+02  0.11604017572E+02  0.28645076289E+02  0.33656929727E+02  0.00000000000E+00 0.  1.
         22    1    1    2    0    0  0.96855299295E+01 -0.53134299196E+01  0.43567421638E+02  0.44946215143E+02  0.00000000000E+00 0.  1.
<mgrwt>
<rscale>  0 0.54769159E+02</rscale>
<asrwt>0</asrwt>
<pdfrwt beam="1">  1        2 0.13158477E+00 0.93389172E+02</pdfrwt>
<pdfrwt beam="2">  1       -2 0.51965605E-03 0.93389172E+02</pdfrwt>
<totfact> 0.15592372E+05</totfact>
</mgrwt>
</event>
<event>
 6    1  0.1535419E-002  0.9325380E+02  0.7546771E-02  0.1375617E+00
          2   -1    0    0  501    0  0.00000000000E+00  0.00000000000E+00  0.22735253489E+04  0.22735253489E+04  0.00000000000E+00 0. -1.
         -2   -1    0    0    0  501 -0.00000000000E+00 -0.00000000000E+00 -0.20977246586E+01  0.20977246586E+01  0.00000000000E+00 0.  1.
         23    2    1    2    0    0  0.11982268290E+01  0.22846331326E+02  0.21522584875E+04  0.21542778068E+04  0.90403990189E+02 0.  0.
         13    1    3    3    0    0  0.50925532706E+01  0.23150407112E+02  0.21491632335E+04  0.21492939491E+04  0.00000000000E+00 0. -1.
        -13    1    3    3    0    0 -0.38943264416E+01 -0.30407578585E+00  0.30952539785E+01  0.49838577135E+01  0.00000000000E+00 0.  1.
         22    1    1    2    0    0 -0.11982268290E+01 -0.22846331326E+02  0.11916913680E+03  0.12134526678E+03  0.00000000000E+00 0.  1.
<mgrwt>
<rscale>  0 0.65630114E+02</rscale>
<asrwt>0</asrwt>
<pdfrwt beam="1">  1        2 0.34977116E+00 0.93253804E+02</pdfrwt>
<pdfrwt beam="2">  1       -2 0.32272869E-03 0.93253804E+02</pdfrwt>
<totfact> 0.54048977E+04</totfact>
</mgrwt>
</event>
<event>
 6    1  0.1535419E-002  0.9271052E+02  0.7546771E-02  0.1408406E+00
         -1   -1    0    0    0  501 -0.00000000000E+00  0.00000000000E+00  0.42726895556E+01  0.42726895556E+01  0.00000000000E+00 0.  1.
          1   -1    0    0  501    0  0.00000000000E+00 -0.00000000000E+00 -0.69183213905E+03  0.69183213905E+03  0.00000000000E+00 0. -1.
         23    2    1    2    0    0  0.36011189373E+01 -0.13287200502E+02 -0.63672986818E+03  0.64344398840E+03  0.91682732388E+02 0.  0.
         11    1    3    3    0    0 -0.14695506012E+02  0.33661471141E+02 -0.16543808300E+03  0.16946625576E+03  0.00000000000E+00 0.  1.
        -11    1    3    3    0    0  0.18296624950E+02 -0.46948671643E+02 -0.47129178518E+03  0.47397773263E+03  0.00000000000E+00 0. -1.
         22    1    1    2    0    0 -0.36011189373E+01  0.13287200502E+02 -0.50829581314E+02  0.52660840207E+02  0.00000000000E+00 0.  1.
<mgrwt>
<rscale>  0 0.57551018E+02</rscale>
<asrwt>0</asrwt>
<pdfrwt beam="1">  1        1 0.10643573E+00 0.92710524E+02</pdfrwt>
<pdfrwt beam="2">  1       -1 0.65733673E-03 0.92710524E+02</pdfrwt>
<totfact> 0.87011898E+04</totfact>
</mgrwt>
</event>
<event>
 6    1  0.1535419E-002  0.9071662E+02  0.7546771E-02  0.1380157E+00
         -1   -1    0    0    0  501 -0.00000000000E+00  0.00000000000E+00  0.22504919177E+02  0.22504919177E+02  0.00000000000E+00 0.  1.
          1   -1    0    0  501    0  0.00000000000E+00 -0.00000000000E+00 -0.14421859589E+03  0.14421859589E+03  0.00000000000E+00 0. -1.
         23    2    1    2    0    0  0.24675030768E+01 -0.22939873456E+02 -0.10040196540E+03  0.13531467229E+03  0.87733571196E+02 0.  0.
         13    1    3    3    0    0 -0.38647223402E+02 -0.29375005112E+02 -0.46543711266E+02  0.67251883695E+02  0.00000000000E+00 0. -1.
        -13    1    3    3    0    0  0.41114726479E+02  0.64351316567E+01 -0.53858254133E+02  0.68062788594E+02  0.00000000000E+00 0.  1.
         22    1    1    2    0    0 -0.24675030768E+01  0.22939873456E+02 -0.21311711314E+02  0.31408842779E+02  0.00000000000E+00 0.  1.
<mgrwt>
<rscale>  0 0.64422475E+02</rscale>
<asrwt>0</asrwt>
<pdfrwt beam="1">  1        1 0.22187475E-01 0.90716624E+02</pdfrwt>
<pdfrwt beam="2">  1       -1 0.34622954E-02 0.90716624E+02</pdfrwt>
<totfact> 0.58609413E+04</totfact>
</mgrwt>
</event>
<event>
 6    1  0.1535419E-002  0.9817810E+02  0.7546771E-02  0.1373908E+00
          2   -1    0    0  501    0  0.00000000000E+00  0.00000000000E+00  0.14166326098E+04  0.14166326098E+04  0.00000000000E+00 0. -1.
         -2   -1    0    0    0  501 -0.00000000000E+00 -0.00000000000E+00 -0.29556303090E+01  0.29556303090E+01  0.00000000000E+00 0.  1.
         23    2    1    2    0    0 -0.17344199905E+02  0.10283502251E+02  0.13256875110E+04  0.13293179889E+04  0.96085207438E+02 0.  0.
         11    1    3    3    0    0  0.74353269405E+01 -0.17958757691E+02  0.11235622836E+04  0.11237303975E+04  0.00000000000E+00 0. -1.
        -11    1    3    3    0    0 -0.24779526846E+02  0.28242259942E+02  0.20212522743E+03  0.20558759146E+03  0.00000000000E+00 0.  1.
         22    1    1    2    0    0  0.17344199905E+02 -0.10283502251E+02  0.87989468469E+02  0.90270251192E+02  0.00000000000E+00 0. -1.
<mgrwt>
<rscale>  0 0.66092640E+02</rscale>
<asrwt>0</asrwt>
<pdfrwt beam="1">  1        2 0.21794294E+00 0.98178097E+02</pdfrwt>
<pdfrwt beam="2">  1       -2 0.45471349E-03 0.98178097E+02</pdfrwt>
<totfact> 0.91398694E+04</totfact>
</mgrwt>
</event>
<event>
 6    1  0.1535419E-002  0.9753116E+02  0.7546771E-02  0.1387019E+00
          2   -1    0    0  501    0  0.00000000000E+00  0.00000000000E+00  0.83178826723E+03  0.83178826723E+03  0.00000000000E+00 0. -1.
         -2   -1    0    0    0  501 -0.00000000000E+00 -0.00000000000E+00 -0.41269922183E+01  0.41269922183E+01  0.00000000000E+00 0.  1.
         23    2    1    2    0    0 -0.15139496866E+01  0.16540859845E+02  0.76059567440E+03  0.76682338674E+03  0.96106370534E+02 0.  0.
         11    1    3    3    0    0 -0.15840160813E+02  0.78387724759E+01  0.22850216455E+02  0.28887530884E+02  0.00000000000E+00 0.  1.
        -11    1    3    3    0    0  0.14326211126E+02  0.87020873689E+01  0.73774545794E+03  0.73793585586E+03  0.00000000000E+00 0. -1.
         22    1    1    2    0    0  0.15139496866E+01 -0.16540859845E+02  0.67065600616E+02  0.69091872706E+02  0.00000000000E+00 0. -1.
<mgrwt>
<rscale>  0 0.62654164E+02</rscale>
<asrwt>0</asrwt>
<pdfrwt beam="1">  1        2 0.12796729E+00 0.97531157E+02</pdfrwt>
<pdfrwt beam="2">  1       -2 0.63492254E-03 0.97531157E+02</pdfrwt>
<totfact> 0.12257404E+05</totfact>
</mgrwt>
</event>
<event>
 6    1  0.1535419E-002  0.9308117E+02  0.7546771E-02  0.1386499E+00
          1   -1    0    0  501    0  0.00000000000E+00  0.00000000000E+00  0.59419784378E+02  0.59419784378E+02  0.00000000000E+00 0. -1.
         -1   -1    0    0    0  501 -0.00000000000E+00 -0.00000000000E+00 -0.53144676596E+02  0.53144676596E+02  0.00000000000E+00 0.  1.
         23    2    1    2    0    0  0.95645536750E+01  0.16727769186E+02  0.63173008763E+01  0.93295295731E+02  0.91064839352E+02 0.  0.
         11    1    3    3    0    0 -0.39869966194E+02  0.15305319829E+02  0.94550164722E+01  0.43740877401E+02  0.00000000000E+00 0. -1.
        -11    1    3    3    0    0  0.49434519869E+02  0.14224493569E+01 -0.31377155959E+01  0.49554418329E+02  0.00000000000E+00 0.  1.
         22    1    1    2    0    0 -0.95645536750E+01 -0.16727769186E+02 -0.42193093729E-01  0.19269165244E+02  0.00000000000E+00 0. -1.
<mgrwt>
<rscale>  0 0.62785858E+02</rscale>
<asrwt>0</asrwt>
<pdfrwt beam="1">  1        1 0.91415053E-02 0.93081168E+02</pdfrwt>
<pdfrwt beam="2">  1       -1 0.81761041E-02 0.93081168E+02</pdfrwt>
<totfact> 0.51958574E+04</totfact>
</mgrwt>
</event>
<event>
 6    1  0.1535419E-002  0.9154636E+02  0.7546771E-02  0.1412298E+00
          2   -1    0    0  501    0  0.00000000000E+00  0.00000000000E+00  0.44867361423E+02  0.44867361423E+02  0.00000000000E+00 0. -1.
         -2   -1    0    0    0  501 -0.00000000000E+00 -0.00000000000E+00 -0.71153883140E+02  0.71153883140E+02  0.00000000000E+00 0.  1.
         23    2    1    2    0    0 -0.31017121280E+01  0.13093950432E+02 -0.60850333985E+01  0.91748373157E+02  0.90551997158E+02 0.  0.
         11    1    3    3    0    0  0.89203313751E+01  0.78502615545E+01  0.41095369062E+02  0.42778829772E+02  0.00000000000E+00 0. -1.
        -11    1    3    3    0    0 -0.12022043503E+02  0.52436888773E+01 -0.47180402460E+02  0.48969543385E+02  0.00000000000E+00 0.  1.
         22    1    1    2    0    0  0.31017121280E+01 -0.13093950432E+02 -0.20201488318E+02  0.24272871406E+02  0.00000000000E+00 0. -1.
<mgrwt>
<rscale>  0 0.56684233E+02</rscale>
<asrwt>0</asrwt>
<pdfrwt beam="1">  1        2 0.69026710E-02 0.91546362E+02</pdfrwt>
<pdfrwt beam="2">  1       -2 0.10946751E-01 0.91546362E+02</pdfrwt>
<totfact> 0.50754358E+04</totfact>
</mgrwt>
</event>
<event>
 6    1  0.1535419E-002  0.8056034E+02  0.7546771E-02  0.1434036E+00
         -3   -1    0    0    0  501 -0.00000000000E+00  0.00000000000E+00  0.28424013626E+02  0.28424013626E+02  0.00000000000E+00 0.  1.
          3   -1    0    0  501    0  0.00000000000E+00 -0.00000000000E+00 -0.84058185324E+02  0.84058185324E+02  0.00000000000E+00 0. -1.
         23    2    1    2    0    0  0.14044823627E+02 -0.17678724186E+01 -0.35903432974E+02  0.88198778799E+02  0.79306907887E+02 0.  0.
         13    1    3    3    0    0 -0.25445489520E+02  0.81807221375E+01  0.84046710593E+01  0.28018487597E+02  0.00000000000E+00 0. -1.
        -13    1    3    3    0    0  0.39490313147E+02 -0.99485945561E+01 -0.44308104033E+02  0.60180291202E+02  0.00000000000E+00 0.  1.
         22    1    1    2    0    0 -0.14044823627E+02  0.17678724186E+01 -0.19730738725E+02  0.24283420151E+02  0.00000000000E+00 0. -1.
<mgrwt>
<rscale>  0 0.52158299E+02</rscale>
<asrwt>0</asrwt>
<pdfrwt beam="1">  1        3 0.12932029E-01 0.80560338E+02</pdfrwt>
<pdfrwt beam="2">  1       -3 0.43729252E-02 0.80560338E+02</pdfrwt>
<totfact> 0.26499265E+04</totfact>
</mgrwt>
</event>
<event>
 6    1  0.1535419E-002  0.8868498E+02  0.7546771E-02  0.1423079E+00
         -1   -1    0    0    0  501 -0.00000000000E+00  0.00000000000E+00  0.80544389137E+03  0.80544389137E+03  0.00000000000E+00 0.  1.
          1   -1    0    0  501    0  0.00000000000E+00 -0.00000000000E+00 -0.32984162992E+01  0.32984162992E+01  0.00000000000E+00 0. -1.
         23    2    1    2    0    0  0.27041885558E+01 -0.12237251153E+02  0.74364466196E+03  0.74891415304E+03  0.87795002208E+02 0.  0.
         11    1    3    3    0    0  0.31468568185E+02  0.60854767865E+01  0.11608646907E+03  0.12042994691E+03  0.00000000000E+00 0. -1.
        -11    1    3    3    0    0 -0.28764379629E+02 -0.18322727940E+02  0.62755819289E+03  0.62848420614E+03  0.00000000000E+00 0.  1.
         22    1    1    2    0    0 -0.27041885558E+01  0.12237251153E+02  0.58500813106E+02  0.59828154623E+02  0.00000000000E+00 0.  1.
<mgrwt>
<rscale>  0 0.54374687E+02</rscale>
<asrwt>0</asrwt>
<pdfrwt beam="1">  1        1 0.50744930E-03 0.88684978E+02</pdfrwt>
<pdfrwt beam="2">  1       -1 0.12391429E+00 0.88684978E+02</pdfrwt>
<totfact> 0.22998117E+04</totfact>
</mgrwt>
</event>
<event>
 6    1  0.1535419E-002  0.9545867E+02  0.7546771E-02  0.1384876E+00
         -2   -1    0    0    0  501 -0.00000000000E+00  0.00000000000E+00  0.25478878964E+02  0.25478878964E+02  0.00000000000E+00 0.  1.
          2   -1    0    0  501    0  0.00000000000E+00 -0.00000000000E+00 -0.39485514203E+03  0.39485514203E+03  0.00000000000E+00 0. -1.
         23    2    1    2    0    0  0.13414015123E+02  0.12507075925E+02 -0.38474223815E+03  0.39640755154E+03  0.93680277306E+02 0.  0.
         13    1    3    3    0    0 -0.21968440827E+02  0.13090692505E+02 -0.33145743134E+03  0.33244248738E+03  0.00000000000E+00 0. -1.
        -13    1    3    3    0    0  0.35382455950E+02 -0.58361658014E+00 -0.53284806809E+02  0.63965064168E+02  0.00000000000E+00 0.  1.
         22    1    1    2    0    0 -0.13414015123E+02 -0.12507075925E+02  0.15365975085E+02  0.23926469448E+02  0.00000000000E+00 0. -1.
<mgrwt>
<rscale>  0 0.63199335E+02</rscale>
<asrwt>0</asrwt>
<pdfrwt beam="1">  1        2 0.60746942E-01 0.95458667E+02</pdfrwt>
<pdfrwt beam="2">  1       -2 0.39198277E-02 0.95458667E+02</pdfrwt>
<totfact> 0.20773530E+04</totfact>
</mgrwt>
</event>
<event>
 6    1  0.1535419E-002  0.9714814E+02  0.7546771E-02  0.1377900E+00
          2   -1    0    0  501    0  0.00000000000E+00  0.00000000000E+00  0.70090021799E+02  0.70090021799E+02  0.00000000000E+00 0. -1.
         -2   -1    0    0    0  501 -0.00000000000E+00 -0.00000000000E+00 -0.78046033546E+02  0.78046033546E+02  0.00000000000E+00 0.  1.
         23    2    1    2    0    0  0.11583147251E+02 -0.15677264136E+02  0.33145349946E+02  0.10264684955E+03  0.95172556906E+02 0.  0.
         11    1    3    3    0    0  0.40199392746E+02 -0.40338698818E+02  0.85961714295E+01  0.57594235499E+02  0.00000000000E+00 0.  1.
        -11    1    3    3    0    0 -0.28616245495E+02  0.24661434682E+02  0.24549178517E+02  0.45052614049E+02  0.00000000000E+00 0. -1.
         22    1    1    2    0    0 -0.11583147251E+02  0.15677264136E+02 -0.41101361693E+02  0.45489205797E+02  0.00000000000E+00 0.  1.
<mgrwt>
<rscale>  0 0.65019121E+02</rscale>
<asrwt>0</asrwt>
<pdfrwt beam="1">  1        2 0.10783080E-01 0.97148142E+02</pdfrwt>
<pdfrwt beam="2">  1       -2 0.12007082E-01 0.97148142E+02</pdfrwt>
<totfact> 0.25521871E+04</totfact>
</mgrwt>
</event>
<event>
 6    1  0.1535419E-002  0.9003559E+02  0.7546771E-02  0.1412830E+00
          1   -1    0    0  501    0  0.00000000000E+00  0.00000000000E+00  0.52216828276E+02  0.52216828276E+02  0.00000000000E+00 0. -1.
         -1   -1    0    0    0  501 -0.00000000000E+00 -0.00000000000E+00 -0.53139359627E+02  0.53139359627E+02  0.00000000000E+00 0.  1.
         23    2    1    2    0    0 -0.84874884252E+00 -0.14002866817E+02 -0.64764622377E+01  0.90268219120E+02  0.88935966663E+02 0.  0.
         11    1    3    3    0    0 -0.18392240828E+02 -0.24658066563E+02  0.33407073116E+02  0.45412853945E+02  0.00000000000E+00 0. -1.
        -11    1    3    3    0    0  0.17543491985E+02  0.10655199746E+02 -0.39883535353E+02  0.44855365175E+02  0.00000000000E+00 0.  1.
         22    1    1    2    0    0  0.84874884252E+00  0.14002866817E+02  0.55539308869E+01  0.15087968783E+02  0.00000000000E+00 0. -1.
<mgrwt>
<rscale>  0 0.56567107E+02</rscale>
<asrwt>0</asrwt>
<pdfrwt beam="1">  1        1 0.80333582E-02 0.90035586E+02</pdfrwt>
<pdfrwt beam="2">  1       -1 0.81752861E-02 0.90035586E+02</pdfrwt>
<totfact> 0.61341778E+04</totfact>
</mgrwt>
</event>
<event>
 6    1  0.1535419E-002  0.1242074E+03  0.7546771E-02  0.1261774E+00
          2   -1    0    0  501    0  0.00000000000E+00  0.00000000000E+00  0.48427938347E+03  0.48427938347E+03  0.00000000000E+00 0. -1.
         -2   -1    0    0    0  501 -0.00000000000E+00 -0.00000000000E+00 -0.20408587893E+02  0.20408587893E+02  0.00000000000E+00 0.  1.
         23    2    1    2    0    0  0.61941723839E+02 -0.41613791308E+02  0.28882227991E+03  0.31439748916E+03  0.99292431935E+02 0.  0.
         11    1    3    3    0    0  0.12180858470E+02  0.10533563319E+00 -0.52329857871E+01  0.13257773150E+02  0.00000000000E+00 0.  1.
        -11    1    3    3    0    0  0.49760865369E+02 -0.41719126941E+02  0.29405526570E+03  0.30113971601E+03  0.00000000000E+00 0. -1.
         22    1    1    2    0    0 -0.61941723839E+02  0.41613791308E+02  0.17504851566E+03  0.19029048220E+03  0.00000000000E+00 0.  1.
<mgrwt>
<rscale>  0 0.10935224E+03</rscale>
<asrwt>0</asrwt>
<pdfrwt beam="1">  1        2 0.74504512E-01 0.12420737E+03</pdfrwt>
<pdfrwt beam="2">  1       -2 0.31397831E-02 0.12420737E+03</pdfrwt>
<totfact> 0.23739104E+04</totfact>
</mgrwt>
</event>
<event>
 6    1  0.1535419E-002  0.9141071E+02  0.7546771E-02  0.1417892E+00
         -2   -1    0    0    0  501 -0.00000000000E+00  0.00000000000E+00  0.43608603635E+01  0.43608603635E+01  0.00000000000E+00 0.  1.
          2   -1    0    0  501    0  0.00000000000E+00 -0.00000000000E+00 -0.65321741952E+03  0.65321741952E+03  0.00000000000E+00 0. -1.
         23    2    1    2    0    0 -0.74790749137E+01 -0.98834977257E+01 -0.60948838017E+03  0.61630512146E+03  0.90566534089E+02 0.  0.
         13    1    3    3    0    0 -0.22051322073E+02  0.50367816234E+01 -0.57855951538E+03  0.57900150502E+03  0.00000000000E+00 0. -1.
        -13    1    3    3    0    0  0.14572247159E+02 -0.14920279349E+02 -0.30928864782E+02  0.37303616445E+02  0.00000000000E+00 0.  1.
         22    1    1    2    0    0  0.74790749137E+01  0.98834977257E+01 -0.39368178987E+02  0.41273158416E+02  0.00000000000E+00 0. -1.
<mgrwt>
<rscale>  0 0.55469442E+02</rscale>
<asrwt>0</asrwt>
<pdfrwt beam="1">  1        2 0.10049494E+00 0.91410706E+02</pdfrwt>
<pdfrwt beam="2">  1       -2 0.67090189E-03 0.91410706E+02</pdfrwt>
<totfact> 0.14982593E+05</totfact>
</mgrwt>
</event>
<event>
 6    1  0.1535419E-002  0.8738236E+02  0.7546771E-02  0.1428192E+00
          2   -1    0    0  501    0  0.00000000000E+00  0.00000000000E+00  0.18661542177E+04  0.18661542177E+04  0.00000000000E+00 0. -1.
         -2   -1    0    0    0  501 -0.00000000000E+00 -0.00000000000E+00 -0.31550672764E+01  0.31550672764E+01  0.00000000000E+00 0.  1.
         23    2    1    2    0    0  0.82042765272E+01 -0.89185712743E+01  0.18478254517E+04  0.18498904230E+04  0.86538004078E+02 0.  0.
         11    1    3    3    0    0  0.45153115946E+02 -0.13525479778E+02  0.78577866504E+03  0.78719111587E+03  0.00000000000E+00 0.  1.
        -11    1    3    3    0    0 -0.36948839419E+02  0.46069085039E+01  0.10620467867E+04  0.10626993071E+04  0.00000000000E+00 0. -1.
         22    1    1    2    0    0 -0.82042765272E+01  0.89185712743E+01  0.15173698728E+02  0.19418861964E+02  0.00000000000E+00 0.  1.
<mgrwt>
<rscale>  0 0.53324584E+02</rscale>
<asrwt>0</asrwt>
<pdfrwt beam="1">  1        2 0.28709977E+00 0.87382362E+02</pdfrwt>
<pdfrwt beam="2">  1       -2 0.48539646E-03 0.87382362E+02</pdfrwt>
<totfact> 0.48806422E+04</totfact>
</mgrwt>
</event>
<event>
 6    1  0.1535419E-002  0.1105703E+03  0.7546771E-02  0.1298595E+00
          2   -1    0    0  501    0  0.00000000000E+00  0.00000000000E+00  0.10463999877E+04  0.10463999877E+04  0.00000000000E+00 0. -1.
         -2   -1    0    0    0  501 -0.00000000000E+00 -0.00000000000E+00 -0.64661462791E+01  0.64661462791E+01  0.00000000000E+00 0.  1.
         23    2    1    2    0    0 -0.41902033327E+02 -0.31618134748E+02  0.76717123976E+03  0.77509838260E+03  0.97315490814E+02 0.  0.
         11    1    3    3    0    0 -0.11002728704E+02  0.23600169636E+02  0.64121270529E+02  0.69206685949E+02  0.00000000000E+00 0.  1.
        -11    1    3    3    0    0 -0.30899304623E+02 -0.55218304384E+02  0.70304996923E+03  0.70589169665E+03  0.00000000000E+00 0. -1.
         22    1    1    2    0    0  0.41902033327E+02  0.31618134748E+02  0.27276260170E+03  0.27776775142E+03  0.00000000000E+00 0.  1.
<mgrwt>
<rscale>  0 0.91781186E+02</rscale>
<asrwt>0</asrwt>
<pdfrwt beam="1">  1        2 0.16098448E+00 0.11057030E+03</pdfrwt>
<pdfrwt beam="2">  1       -2 0.99479257E-03 0.11057030E+03</pdfrwt>
<totfact> 0.48727171E+04</totfact>
</mgrwt>
</event>
<event>
 6    1  0.1535419E-002  0.9673591E+02  0.7546771E-02  0.1359244E+00
         -2   -1    0    0    0  501 -0.00000000000E+00  0.00000000000E+00  0.74378661703E+02  0.74378661703E+02  0.00000000000E+00 0.  1.
          2   -1    0    0  501    0  0.00000000000E+00 -0.00000000000E+00 -0.68384321562E+02  0.68384321562E+02  0.00000000000E+00 0. -1.
         23    2    1    2    0    0  0.92702895489E+01 -0.25257040949E+02 -0.26766211834E+02  0.10037064726E+03  0.92919214109E+02 0.  0.
         13    1    3    3    0    0 -0.27434752534E+01  0.93429629455E+01 -0.53910117553E+02  0.54782464235E+02  0.00000000000E+00 0. -1.
        -13    1    3    3    0    0  0.12013764802E+02 -0.34600003895E+02  0.27143905719E+02  0.45588183029E+02  0.00000000000E+00 0.  1.
         22    1    1    2    0    0 -0.92702895489E+01  0.25257040949E+02  0.32760551975E+02  0.42392336000E+02  0.00000000000E+00 0. -1.
<mgrwt>
<rscale>  0 0.70250165E+02</rscale>
<asrwt>0</asrwt>
<pdfrwt beam="1">  1        2 0.10520665E-01 0.96735912E+02</pdfrwt>
<pdfrwt beam="2">  1       -2 0.11442871E-01 0.96735912E+02</pdfrwt>
<totfact> 0.28354174E+04</totfact>
</mgrwt>
</event>
<event>
 6    1  0.1535419E-002  0.9780317E+02  0.7546771E-02  0.1389966E+00
          2   -1    0    0  501    0  0.00000000000E+00  0.00000000000E+00  0.85886430214E+03  0.85886430214E+03  0.00000000000E+00 0. -1.
         -2   -1    0    0    0  501 -0.00000000000E+00 -0.00000000000E+00 -0.38807075629E+01  0.38807075629E+01  0.00000000000E+00 0.  1.
         23    2    1    2    0    0  0.60458848845E+01 -0.14498094655E+02  0.78185141034E+03  0.78794485032E+03  0.96533475126E+02 0.  0.
         11    1    3    3    0    0  0.27650519391E+02 -0.28409478166E+02  0.13801649886E+03  0.14359736637E+03  0.00000000000E+00 0.  1.
        -11    1    3    3    0    0 -0.21604634507E+02  0.13911383511E+02  0.64383491149E+03  0.64434748395E+03  0.00000000000E+00 0. -1.
         22    1    1    2    0    0 -0.60458848845E+01  0.14498094655E+02  0.73132184238E+02  0.74800159385E+02  0.00000000000E+00 0. -1.
<mgrwt>
<rscale>  0 0.61915057E+02</rscale>
<asrwt>0</asrwt>
<pdfrwt beam="1">  1        2 0.13213282E+00 0.97803166E+02</pdfrwt>
<pdfrwt beam="2">  1       -2 0.59703262E-03 0.97803166E+02</pdfrwt>
<totfact> 0.12845684E+05</totfact>
</mgrwt>
</event>
<event>
 6    1  0.1535419E-002  0.9610125E+02  0.7546771E-02  0.1370361E+00
          1   -1    0    0  501    0  0.00000000000E+00  0.00000000000E+00  0.39218597601E+03  0.39218597601E+03  0.00000000000E+00 0. -1.
         -1   -1    0    0    0  501 -0.00000000000E+00 -0.00000000000E+00 -0.11534280006E+02  0.11534280006E+02  0.00000000000E+00 0.  1.
         23    2    1    2    0    0 -0.11720353186E+02  0.19551537537E+02  0.36116157230E+03  0.37372868685E+03  0.93358560245E+02 0.  0.
         11    1    3    3    0    0 -0.63113956540E+01 -0.28445030446E+02  0.43125227536E+02  0.52045544691E+02  0.00000000000E+00 0. -1.
        -11    1    3    3    0    0 -0.54089575316E+01  0.47996567982E+02  0.31803634476E+03  0.32168314216E+03  0.00000000000E+00 0.  1.
         22    1    1    2    0    0  0.11720353186E+02 -0.19551537537E+02  0.19490123701E+02  0.29991569161E+02  0.00000000000E+00 0.  1.
<mgrwt>
<rscale>  0 0.67066938E+02</rscale>
<asrwt>0</asrwt>
<pdfrwt beam="1">  1        1 0.60336294E-01 0.96101249E+02</pdfrwt>
<pdfrwt beam="2">  1       -1 0.17745049E-02 0.96101249E+02</pdfrwt>
<totfact> 0.45038591E+04</totfact>
</mgrwt>
</event>
<event>
 6    1  0.1535419E-002  0.9062254E+02  0.7546771E-02  0.1424765E+00
          2   -1    0    0  501    0  0.00000000000E+00  0.00000000000E+00  0.17087751309E+03  0.17087751309E+03  0.00000000000E+00 0. -1.
         -2   -1    0    0    0  501 -0.00000000000E+00 -0.00000000000E+00 -0.17156602974E+02  0.17156602974E+02  0.00000000000E+00 0.  1.
         23    2    1    2    0    0  0.16438934558E+00 -0.11445557244E+02  0.15125460018E+03  0.17632469724E+03  0.89896701698E+02 0.  0.
         13    1    3    3    0    0 -0.10451243387E+02 -0.39616213566E+01 -0.97289201534E+01  0.14818057209E+02  0.00000000000E+00 0.  1.
        -13    1    3    3    0    0  0.10615632733E+02 -0.74839358870E+01  0.16098352033E+03  0.16150664003E+03  0.00000000000E+00 0. -1.
         22    1    1    2    0    0 -0.16438934558E+00  0.11445557244E+02  0.24663099330E+01  0.11709418822E+02  0.00000000000E+00 0. -1.
<mgrwt>
<rscale>  0 0.54025352E+02</rscale>
<asrwt>0</asrwt>
<pdfrwt beam="1">  1        2 0.26288847E-01 0.90622540E+02</pdfrwt>
<pdfrwt beam="2">  1       -2 0.26394775E-02 0.90622540E+02</pdfrwt>
<totfact> 0.89005508E+04</totfact>
</mgrwt>
</event>
<event>
 6    1  0.1535419E-002  0.1105694E+03  0.7546771E-02  0.1286408E+00
         -1   -1    0    0    0  501 -0.00000000000E+00  0.00000000000E+00  0.31174804438E+03  0.31174804438E+03  0.00000000000E+00 0.  1.
          1   -1    0    0  501    0  0.00000000000E+00 -0.00000000000E+00 -0.38153235392E+02  0.38153235392E+02  0.00000000000E+00 0. -1.
         23    2    1    2    0    0  0.60624648866E+02 -0.25822639226E+02  0.58812011801E+02  0.12523751608E+03  0.88788658940E+02 0.  0.
         11    1    3    3    0    0  0.48092435193E+02 -0.29727541387E+02 -0.80414517421E+01  0.57107565049E+02  0.00000000000E+00 0. -1.
        -11    1    3    3    0    0  0.12532213673E+02  0.39049021612E+01  0.66853463543E+02  0.68129951036E+02  0.00000000000E+00 0.  1.
         22    1    1    2    0    0 -0.60624648866E+02  0.25822639226E+02  0.21478279718E+03  0.22466376368E+03  0.00000000000E+00 0.  1.
<mgrwt>
<rscale>  0 0.97149210E+02</rscale>
<asrwt>0</asrwt>
<pdfrwt beam="1">  1        1 0.58697287E-02 0.11056936E+03</pdfrwt>
<pdfrwt beam="2">  1       -1 0.47961236E-01 0.11056936E+03</pdfrwt>
<totfact> 0.55424835E+03</totfact>
</mgrwt>
</event>
<event>
 6    1  0.1535419E-002  0.9520418E+02  0.7546771E-02  0.1361643E+00
          2   -1    0    0  501    0  0.00000000000E+00  0.00000000000E+00  0.38418801991E+03  0.38418801991E+03  0.00000000000E+00 0. -1.
         -2   -1    0    0    0  501 -0.00000000000E+00 -0.00000000000E+00 -0.11083793314E+02  0.11083793314E+02  0.00000000000E+00 0.  1.
         23    2    1    2    0    0  0.27009188716E+02  0.23321916565E+01  0.33658313933E+03  0.34978857226E+03  0.91262808485E+02 0.  0.
         11    1    3    3    0    0  0.37820099244E+02  0.85187318042E+01  0.51636309859E+02  0.64569630588E+02  0.00000000000E+00 0. -1.
        -11    1    3    3    0    0 -0.10810910529E+02 -0.61865401477E+01  0.28494682947E+03  0.28521894168E+03  0.00000000000E+00 0.  1.
         22    1    1    2    0    0 -0.27009188716E+02 -0.23321916565E+01  0.36521087266E+02  0.45483240959E+02  0.00000000000E+00 0.  1.
<mgrwt>
<rscale>  0 0.69546160E+02</rscale>
<asrwt>0</asrwt>
<pdfrwt beam="1">  1        2 0.59105839E-01 0.95204179E+02</pdfrwt>
<pdfrwt beam="2">  1       -2 0.17051993E-02 0.95204179E+02</pdfrwt>
<totfact> 0.71447510E+04</totfact>
</mgrwt>
</event>
<event>
 6    1  0.1535419E-002  0.9135775E+02  0.7546771E-02  0.1399928E+00
         -2   -1    0    0    0  501 -0.00000000000E+00  0.00000000000E+00  0.11625250845E+02  0.11625250845E+02  0.00000000000E+00 0. -1.
          2   -1    0    0  501    0  0.00000000000E+00 -0.00000000000E+00 -0.25799743476E+03  0.25799743476E+03  0.00000000000E+00 0.  1.
         23    2    1    2    0    0  0.52211777532E+01 -0.15589951001E+02 -0.22353290248E+03  0.24148125626E+03  0.89866185869E+02 0.  0.
         11    1    3    3    0    0  0.10895650494E+02 -0.19085277021E+02 -0.23067101784E+03  0.23171551841E+03  0.00000000000E+00 0.  1.
        -11    1    3    3    0    0 -0.56744727407E+01  0.34953260196E+01  0.71381153601E+01  0.97657378504E+01  0.00000000000E+00 0. -1.
         22    1    1    2    0    0 -0.52211777532E+01  0.15589951001E+02 -0.22839281437E+02  0.28141429351E+02  0.00000000000E+00 0.  1.
<mgrwt>
<rscale>  0 0.59503329E+02</rscale>
<asrwt>0</asrwt>
<pdfrwt beam="1">  1        2 0.39691911E-01 0.91357751E+02</pdfrwt>
<pdfrwt beam="2">  1       -2 0.17885002E-02 0.91357751E+02</pdfrwt>
<totfact> 0.10066777E+05</totfact>
</mgrwt>
</event>
<event>
 6    1  0.1535419E-002  0.9329998E+02  0.7546771E-02  0.1411308E+00
          3   -1    0    0  501    0  0.00000000000E+00  0.00000000000E+00  0.10992347026E+03  0.10992347026E+03  0.00000000000E+00 0. -1.
         -3   -1    0    0    0  501 -0.00000000000E+00 -0.00000000000E+00 -0.25915688136E+02  0.25915688136E+02  0.00000000000E+00 0.  1.
         23    2    1    2    0    0 -0.58326899710E+01  0.11516254728E+02  0.77958700202E+02  0.12158307943E+03  0.92402607498E+02 0.  0.
         11    1    3    3    0    0 -0.10409833952E+02  0.26208651727E+02  0.94719976528E+02  0.98828801580E+02  0.00000000000E+00 0. -1.
        -11    1    3    3    0    0  0.45771439809E+01 -0.14692396999E+02 -0.16761276326E+02  0.22754277854E+02  0.00000000000E+00 0.  1.
         22    1    1    2    0    0  0.58326899710E+01 -0.11516254728E+02  0.60490819235E+01  0.14256078962E+02  0.00000000000E+00 0. -1.
<mgrwt>
<rscale>  0 0.56902979E+02</rscale>
<asrwt>0</asrwt>
<pdfrwt beam="1">  1        3 0.16911303E-01 0.93299980E+02</pdfrwt>
<pdfrwt beam="2">  1       -3 0.39870290E-02 0.93299980E+02</pdfrwt>
<totfact> 0.20211628E+04</totfact>
</mgrwt>
</event>
<event>
 6    1  0.1535419E-002  0.9055308E+02  0.7546771E-02  0.1413025E+00
          2   -1    0    0  501    0  0.00000000000E+00  0.00000000000E+00  0.87947771387E+01  0.87947771387E+01  0.00000000000E+00 0.  1.
         -2   -1    0    0    0  501 -0.00000000000E+00 -0.00000000000E+00 -0.31091833045E+03  0.31091833045E+03  0.00000000000E+00 0. -1.
         23    2    1    2    0    0  0.64973254177E+01  0.12115547714E+02 -0.26967867262E+03  0.28447574082E+03  0.89503401683E+02 0.  0.
         13    1    3    3    0    0  0.16113831884E+02 -0.22763966602E+02 -0.26012226364E+02  0.38137772272E+02  0.00000000000E+00 0.  1.
        -13    1    3    3    0    0 -0.96165064663E+01  0.34879514316E+02 -0.24366644626E+03  0.24633796854E+03  0.00000000000E+00 0. -1.
         22    1    1    2    0    0 -0.64973254177E+01 -0.12115547714E+02 -0.32444880691E+02  0.35237366772E+02  0.00000000000E+00 0. -1.
<mgrwt>
<rscale>  0 0.56524360E+02</rscale>
<asrwt>0</asrwt>
<pdfrwt beam="1">  1        2 0.13530427E-02 0.90553082E+02</pdfrwt>
<pdfrwt beam="2">  1       -2 0.47833585E-01 0.90553082E+02</pdfrwt>
<totfact> 0.34323302E+04</totfact>
</mgrwt>
</event>
<event>
 6    1  0.1535419E-002  0.9443168E+02  0.7546771E-02  0.1357804E+00
          1   -1    0    0  501    0  0.00000000000E+00  0.00000000000E+00  0.10449216226E+04  0.10449216226E+04  0.00000000000E+00 0. -1.
         -1   -1    0    0    0  501 -0.00000000000E+00 -0.00000000000E+00 -0.38884268073E+01  0.38884268073E+01  0.00000000000E+00 0.  1.
         23    2    1    2    0    0 -0.10498956943E+02  0.27710505371E+02  0.88190075003E+03  0.88694209242E+03  0.89661821302E+02 0.  0.
         11    1    3    3    0    0 -0.30628878580E+01 -0.24855932836E+02  0.57040723928E+03  0.57095675607E+03  0.00000000000E+00 0. -1.
        -11    1    3    3    0    0 -0.74360690852E+01  0.52566438207E+02  0.31149351075E+03  0.31598533635E+03  0.00000000000E+00 0.  1.
         22    1    1    2    0    0  0.10498956943E+02 -0.27710505371E+02  0.15913244580E+03  0.16186795702E+03  0.00000000000E+00 0. -1.
<mgrwt>
<rscale>  0 0.70677520E+02</rscale>
<asrwt>0</asrwt>
<pdfrwt beam="1">  1        1 0.16075695E+00 0.94431681E+02</pdfrwt>
<pdfrwt beam="2">  1       -1 0.59822034E-03 0.94431681E+02</pdfrwt>
<totfact> 0.52869238E+04</totfact>
</mgrwt>
</event>
<event>
 6    1  0.1535419E-002  0.8360451E+02  0.7546771E-02  0.1443004E+00
          1   -1    0    0  501    0  0.00000000000E+00  0.00000000000E+00  0.20237288255E+04  0.20237288255E+04  0.00000000000E+00 0. -1.
         -1   -1    0    0    0  501 -0.00000000000E+00 -0.00000000000E+00 -0.19015211204E+01  0.19015211204E+01  0.00000000000E+00 0.  1.
         23    2    1    2    0    0  0.35928600534E+01  0.10474123134E+02  0.19929490417E+04  0.19947018815E+04  0.82867951480E+02 0.  0.
         11    1    3    3    0    0  0.28724408191E+00 -0.21138430188E+02  0.16819417131E+04  0.16820745649E+04  0.00000000000E+00 0. -1.
        -11    1    3    3    0    0  0.33056159715E+01  0.31612553322E+02  0.31100732867E+03  0.31262731664E+03  0.00000000000E+00 0.  1.
         22    1    1    2    0    0 -0.35928600534E+01 -0.10474123134E+02  0.28878262680E+02  0.30928465112E+02  0.00000000000E+00 0.  1.
<mgrwt>
<rscale>  0 0.50435997E+02</rscale>
<asrwt>0</asrwt>
<pdfrwt beam="1">  1        1 0.31134117E+00 0.83604505E+02</pdfrwt>
<pdfrwt beam="2">  1       -1 0.29254333E-03 0.83604505E+02</pdfrwt>
<totfact> 0.33102592E+04</totfact>
</mgrwt>
</event>
<event>
 6    1  0.1535419E-002  0.1039244E+03  0.7546771E-02  0.1393743E+00
         -1   -1    0    0    0  501 -0.00000000000E+00  0.00000000000E+00  0.50067434310E+02  0.50067434310E+02  0.00000000000E+00 0.  1.
          1   -1    0    0  501    0  0.00000000000E+00 -0.00000000000E+00 -0.12686863859E+03  0.12686863859E+03  0.00000000000E+00 0. -1.
         23    2    1    2    0    0  0.73320810968E+01 -0.99055913570E+01 -0.10403135862E+03  0.14704692004E+03  0.10319105079E+03 0.  0.
         13    1    3    3    0    0  0.47662393800E+02 -0.35884987421E+01 -0.93311348009E+02  0.10484077820E+03  0.00000000000E+00 0. -1.
        -13    1    3    3    0    0 -0.40330312703E+02 -0.63170926149E+01 -0.10720010615E+02  0.42206141845E+02  0.00000000000E+00 0.  1.
         22    1    1    2    0    0 -0.73320810968E+01  0.99055913570E+01  0.27230154340E+02  0.29889152861E+02  0.00000000000E+00 0.  1.
<mgrwt>
<rscale>  0 0.60985369E+02</rscale>
<asrwt>0</asrwt>
<pdfrwt beam="1">  1        1 0.19518252E-01 0.10392436E+03</pdfrwt>
<pdfrwt beam="2">  1       -1 0.77026823E-02 0.10392436E+03</pdfrwt>
<totfact> 0.21635695E+04</totfact>
</mgrwt>
</event>
<event>
 6    1  0.1535419E-002  0.9130029E+02  0.7546771E-02  0.1421315E+00
         -2   -1    0    0    0  501 -0.00000000000E+00  0.00000000000E+00  0.84575968288E+02  0.84575968288E+02  0.00000000000E+00 0.  1.
          2   -1    0    0  501    0  0.00000000000E+00 -0.00000000000E+00 -0.32192908043E+02  0.32192908043E+02  0.00000000000E+00 0. -1.
         23    2    1    2    0    0 -0.10076640960E+02  0.61419178531E+01  0.40046400159E+02  0.99696822265E+02  0.90534415313E+02 0.  0.
         13    1    3    3    0    0 -0.39484658682E+02 -0.75561835520E+01 -0.87096650687E+01  0.41133835789E+02  0.00000000000E+00 0. -1.
        -13    1    3    3    0    0  0.29408017722E+02  0.13698101405E+02  0.48756065228E+02  0.58562986476E+02  0.00000000000E+00 0.  1.
         22    1    1    2    0    0  0.10076640960E+02 -0.61419178531E+01  0.12336660086E+02  0.17072054066E+02  0.00000000000E+00 0. -1.
<mgrwt>
<rscale>  0 0.54743571E+02</rscale>
<asrwt>0</asrwt>
<pdfrwt beam="1">  1        2 0.49527551E-02 0.91300286E+02</pdfrwt>
<pdfrwt beam="2">  1       -2 0.13011687E-01 0.91300286E+02</pdfrwt>
<totfact> 0.58947570E+04</totfact>
</mgrwt>
</event>
<event>
 6    1  0.1535419E-002  0.9330183E+02  0.7546771E-02  0.1400759E+00
         -1   -1    0    0    0  501 -0.00000000000E+00  0.00000000000E+00  0.57410954825E+01  0.57410954825E+01  0.00000000000E+00 0.  1.
          1   -1    0    0  501    0  0.00000000000E+00 -0.00000000000E+00 -0.10258255263E+04  0.10258255263E+04  0.00000000000E+00 0. -1.
         23    2    1    2    0    0  0.13981015186E+02  0.60474996460E+01 -0.10074912517E+04  0.10118022802E+04  0.92049937335E+02 0.  0.
         11    1    3    3    0    0  0.16111453748E+02  0.41864069781E+02 -0.79806788813E+03  0.79932755072E+03  0.00000000000E+00 0. -1.
        -11    1    3    3    0    0 -0.21304385628E+01 -0.35816570135E+02 -0.20942336357E+03  0.21247472949E+03  0.00000000000E+00 0.  1.
         22    1    1    2    0    0 -0.13981015186E+02 -0.60474996460E+01 -0.12593179144E+02  0.19764341591E+02  0.00000000000E+00 0.  1.
<mgrwt>
<rscale>  0 0.59307993E+02</rscale>
<asrwt>0</asrwt>
<pdfrwt beam="1">  1        1 0.15781905E+00 0.93301833E+02</pdfrwt>
<pdfrwt beam="2">  1       -1 0.88324691E-03 0.93301833E+02</pdfrwt>
<totfact> 0.31497724E+04</totfact>
</mgrwt>
</event>
<event>
 6    1  0.1535419E-002  0.9187681E+02  0.7546771E-02  0.1422726E+00
          2   -1    0    0  501    0  0.00000000000E+00  0.00000000000E+00  0.17987997489E+02  0.17987997489E+02  0.00000000000E+00 0. -1.
         -2   -1    0    0    0  501 -0.00000000000E+00 -0.00000000000E+00 -0.16192209458E+03  0.16192209458E+03  0.00000000000E+00 0.  1.
         23    2    1    2    0    0 -0.37371183402E+01 -0.10698503811E+02 -0.10578593550E+03  0.14011428488E+03  0.91175241376E+02 0.  0.
         11    1    3    3    0    0  0.68694301819E+01 -0.49209205708E+02 -0.43055856437E+02  0.65746039965E+02  0.00000000000E+00 0. -1.
        -11    1    3    3    0    0 -0.10606548522E+02  0.38510701897E+02 -0.62730079067E+02  0.74368244917E+02  0.00000000000E+00 0.  1.
         22    1    1    2    0    0  0.37371183402E+01  0.10698503811E+02 -0.38148161585E+02  0.39795807186E+02  0.00000000000E+00 0.  1.
<mgrwt>
<rscale>  0 0.54448413E+02</rscale>
<asrwt>0</asrwt>
<pdfrwt beam="1">  1        2 0.27673841E-02 0.91876813E+02</pdfrwt>
<pdfrwt beam="2">  1       -2 0.24911093E-01 0.91876813E+02</pdfrwt>
<totfact> 0.43223041E+04</totfact>
</mgrwt>
</event>
<event>
 6    1  0.1535419E-002  0.7537189E+02  0.7546771E-02  0.1393481E+00
         -2   -1    0    0    0  501 -0.00000000000E+00  0.00000000000E+00  0.43234081108E+01  0.43234081108E+01  0.00000000000E+00 0.  1.
          2   -1    0    0  501    0  0.00000000000E+00 -0.00000000000E+00 -0.10960806951E+04  0.10960806951E+04  0.00000000000E+00 0. -1.
         23    2    1    2    0    0  0.12305772316E+02 -0.30016002197E+02 -0.10042952385E+04  0.10071195796E+04  0.68033294064E+02 0.  0.
         13    1    3    3    0    0  0.40668323362E+01  0.20521870641E+02 -0.44294119197E+03  0.44343498491E+03  0.00000000000E+00 0. -1.
        -13    1    3    3    0    0  0.82389399796E+01 -0.50537872838E+02 -0.56135404657E+03  0.56368459472E+03  0.00000000000E+00 0.  1.
         22    1    1    2    0    0 -0.12305772316E+02  0.30016002197E+02 -0.87462048410E+02  0.93284523541E+02  0.00000000000E+00 0. -1.
<mgrwt>
<rscale>  0 0.61049099E+02</rscale>
<asrwt>0</asrwt>
<pdfrwt beam="1">  1        2 0.16862772E+00 0.75371888E+02</pdfrwt>
<pdfrwt beam="2">  1       -2 0.66514004E-03 0.75371888E+02</pdfrwt>
<totfact> 0.77126607E+04</totfact>
</mgrwt>
</event>
<event>
 6    1  0.1535419E-002  0.1061015E+03  0.7546771E-02  0.1301776E+00
          3   -1    0    0  501    0  0.00000000000E+00  0.00000000000E+00  0.63281463897E+02  0.63281463897E+02  0.00000000000E+00 0. -1.
         -3   -1    0    0    0  501 -0.00000000000E+00 -0.00000000000E+00 -0.23712997794E+03  0.23712997794E+03  0.00000000000E+00 0.  1.
         23    2    1    2    0    0  0.15005458888E+02 -0.53979062175E+02  0.11554000404E+02  0.10672872368E+03  0.90103399399E+02 0.  0.
         11    1    3    3    0    0 -0.69094554534E+01 -0.67805678706E+02  0.30459015052E+02  0.74653213175E+02  0.00000000000E+00 0. -1.
        -11    1    3    3    0    0  0.21914914341E+02  0.13826616531E+02 -0.18905014648E+02  0.32075510504E+02  0.00000000000E+00 0.  1.
         22    1    1    2    0    0 -0.15005458888E+02  0.53979062175E+02 -0.18540251444E+03  0.19368271815E+03  0.00000000000E+00 0.  1.
<mgrwt>
<rscale>  0 0.90445786E+02</rscale>
<asrwt>0</asrwt>
<pdfrwt beam="1">  1        3 0.97356099E-02 0.10610149E+03</pdfrwt>
<pdfrwt beam="2">  1       -3 0.36481535E-01 0.10610149E+03</pdfrwt>
<totfact> 0.12619959E+03</totfact>
</mgrwt>
</event>
<event>
 6    1  0.1535419E-002  0.1550385E+03  0.7546771E-02  0.1203374E+00
          2   -1    0    0  501    0  0.00000000000E+00  0.00000000000E+00  0.10562007275E+03  0.10562007275E+03  0.00000000000E+00 0.  1.
         -2   -1    0    0    0  501 -0.00000000000E+00 -0.00000000000E+00 -0.43978802571E+03  0.43978802571E+03  0.00000000000E+00 0. -1.
         23    2    1    2    0    0 -0.12715835593E+03  0.10316628696E+02  0.31428360458E+02  0.15819195120E+03  0.88098077585E+02 0.  0.
         13    1    3    3    0    0 -0.11782088068E+03 -0.55888816929E+01  0.53423113643E+02  0.12948754610E+03  0.00000000000E+00 0.  1.
        -13    1    3    3    0    0 -0.93374752473E+01  0.15905510389E+02 -0.21994753186E+02  0.28704405105E+02  0.00000000000E+00 0. -1.
         22    1    1    2    0    0  0.12715835593E+03 -0.10316628696E+02 -0.36559631342E+03  0.38721614726E+03  0.00000000000E+00 0. -1.
<mgrwt>
<rscale>  0 0.14766316E+03</rscale>
<asrwt>0</asrwt>
<pdfrwt beam="1">  1        2 0.16249242E-01 0.15503855E+03</pdfrwt>
<pdfrwt beam="2">  1       -2 0.67659697E-01 0.15503855E+03</pdfrwt>
<totfact> 0.71907427E+02</totfact>
</mgrwt>
</event>
<event>
 6    1  0.1535419E-002  0.9669708E+02  0.7546771E-02  0.1383349E+00
         -2   -1    0    0    0  501 -0.00000000000E+00  0.00000000000E+00  0.77373369683E+02  0.77373369683E+02  0.00000000000E+00 0. -1.
          2   -1    0    0  501    0  0.00000000000E+00 -0.00000000000E+00 -0.47653471778E+02  0.47653471778E+02  0.00000000000E+00 0.  1.
         23    2    1    2    0    0 -0.16770385211E+02 -0.67736824960E+01  0.83892130804E+01  0.97060313078E+02  0.94990509442E+02 0.  0.
         13    1    3    3    0    0  0.95108522894E+01 -0.70651313521E+01 -0.40150259004E+02  0.41861864393E+02  0.00000000000E+00 0.  1.
        -13    1    3    3    0    0 -0.26281237500E+02  0.29144885608E+00  0.48539472085E+02  0.55198448685E+02  0.00000000000E+00 0. -1.
         22    1    1    2    0    0  0.16770385211E+02  0.67736824960E+01  0.21330684825E+02  0.27966528383E+02  0.00000000000E+00 0. -1.
<mgrwt>
<rscale>  0 0.63591612E+02</rscale>
<asrwt>0</asrwt>
<pdfrwt beam="1">  1        2 0.73313034E-02 0.96697081E+02</pdfrwt>
<pdfrwt beam="2">  1       -2 0.11903595E-01 0.96697081E+02</pdfrwt>
<totfact> 0.41549843E+04</totfact>
</mgrwt>
</event>
<event>
 6    1  0.1535419E-002  0.9365971E+02  0.7546771E-02  0.1376146E+00
          2   -1    0    0  501    0  0.00000000000E+00  0.00000000000E+00  0.11869046042E+03  0.11869046042E+03  0.00000000000E+00 0. -1.
         -2   -1    0    0    0  501 -0.00000000000E+00 -0.00000000000E+00 -0.79203576447E+02  0.79203576447E+02  0.00000000000E+00 0.  1.
         23    2    1    2    0    0 -0.19127834770E+02 -0.11630481690E+02 -0.49638240409E+02  0.10600045731E+03  0.90945037644E+02 0.  0.
         11    1    3    3    0    0 -0.51760752300E+02  0.11389543898E+02 -0.21734977314E+02  0.57282688726E+02  0.00000000000E+00 0. -1.
        -11    1    3    3    0    0  0.32632917530E+02 -0.23020025588E+02 -0.27903263096E+02  0.48717768586E+02  0.00000000000E+00 0.  1.
         22    1    1    2    0    0  0.19127834770E+02  0.11630481690E+02  0.89125124382E+02  0.91893579555E+02  0.00000000000E+00 0. -1.
<mgrwt>
<rscale>  0 0.65487700E+02</rscale>
<asrwt>0</asrwt>
<pdfrwt beam="1">  1        2 0.18260071E-01 0.93659714E+02</pdfrwt>
<pdfrwt beam="2">  1       -2 0.12185166E-01 0.93659714E+02</pdfrwt>
<totfact> 0.13427440E+04</totfact>
</mgrwt>
</event>
<event>
 6    1  0.1535419E-002  0.9554401E+02  0.7546771E-02  0.1353507E+00
         -2   -1    0    0    0  501 -0.00000000000E+00  0.00000000000E+00  0.25104951678E+01  0.25104951678E+01  0.00000000000E+00 0.  1.
          2   -1    0    0  501    0  0.00000000000E+00 -0.00000000000E+00 -0.20267520462E+04  0.20267520462E+04  0.00000000000E+00 0. -1.
         23    2    1    2    0    0 -0.13981160430E+02 -0.27407131449E+02 -0.18392443366E+04  0.18417242972E+04  0.90454592208E+02 0.  0.
         13    1    3    3    0    0 -0.18252792548E+01 -0.19775927437E+02 -0.80233508528E+02  0.82654914198E+02  0.00000000000E+00 0.  1.
        -13    1    3    3    0    0 -0.12155881175E+02 -0.76312040114E+01 -0.17590108281E+04  0.17590693830E+04  0.00000000000E+00 0. -1.
         22    1    1    2    0    0  0.13981160430E+02  0.27407131449E+02 -0.18499721443E+03  0.18753824423E+03  0.00000000000E+00 0. -1.
<mgrwt>
<rscale>  0 0.71973853E+02</rscale>
<asrwt>0</asrwt>
<pdfrwt beam="1">  1        2 0.31180848E+00 0.95544005E+02</pdfrwt>
<pdfrwt beam="2">  1       -2 0.38622944E-03 0.95544005E+02</pdfrwt>
<totfact> 0.56242132E+04</totfact>
</mgrwt>
</event>
<event>
 6    1  0.1535419E-002  0.8942942E+02  0.7546771E-02  0.1432286E+00
          2   -1    0    0  501    0  0.00000000000E+00  0.00000000000E+00  0.59601355293E+02  0.59601355293E+02  0.00000000000E+00 0. -1.
         -2   -1    0    0    0  501 -0.00000000000E+00 -0.00000000000E+00 -0.42020597037E+02  0.42020597037E+02  0.00000000000E+00 0.  1.
         23    2    1    2    0    0  0.51845987041E+01  0.92740380557E+01  0.14876304402E+02  0.90658288882E+02  0.88796019419E+02 0.  0.
         11    1    3    3    0    0 -0.12679403953E+02  0.11697171442E+02 -0.34238851957E+02  0.38339145630E+02  0.00000000000E+00 0.  1.
        -11    1    3    3    0    0  0.17864002657E+02 -0.24231333862E+01  0.49115156359E+02  0.52319143251E+02  0.00000000000E+00 0. -1.
         22    1    1    2    0    0 -0.51845987041E+01 -0.92740380557E+01  0.27044538535E+01  0.10963663449E+02  0.00000000000E+00 0. -1.
<mgrwt>
<rscale>  0 0.52503856E+02</rscale>
<asrwt>0</asrwt>
<pdfrwt beam="1">  1        2 0.91694392E-02 0.89429419E+02</pdfrwt>
<pdfrwt beam="2">  1       -2 0.64647073E-02 0.89429419E+02</pdfrwt>
<totfact> 0.79814685E+04</totfact>
</mgrwt>
</event>
<event>
 6    1  0.1535419E-002  0.9601096E+02  0.7546771E-02  0.1355797E+00
          2   -1    0    0  501    0  0.00000000000E+00  0.00000000000E+00  0.46359604866E+03  0.46359604866E+03  0.00000000000E+00 0. -1.
         -2   -1    0    0    0  501 -0.00000000000E+00 -0.00000000000E+00 -0.15560170208E+02  0.15560170208E+02  0.00000000000E+00 0.  1.
         23    2    1    2    0    0  0.23333941766E+02  0.17499199982E+02  0.43786409330E+03  0.44826673763E+03  0.91473542748E+02 0.  0.
         11    1    3    3    0    0 -0.13004850682E+02  0.81461002695E+00  0.36433885497E+03  0.36457179124E+03  0.00000000000E+00 0. -1.
        -11    1    3    3    0    0  0.36338792447E+02  0.16684589955E+02  0.73525238334E+02  0.83694946386E+02  0.00000000000E+00 0.  1.
         22    1    1    2    0    0 -0.23333941766E+02 -0.17499199982E+02  0.10171785155E+02  0.30889481245E+02  0.00000000000E+00 0.  1.
<mgrwt>
<rscale>  0 0.71279119E+02</rscale>
<asrwt>0</asrwt>
<pdfrwt beam="1">  1        2 0.71322459E-01 0.96010957E+02</pdfrwt>
<pdfrwt beam="2">  1       -2 0.23938727E-02 0.96010957E+02</pdfrwt>
<totfact> 0.35969400E+04</totfact>
</mgrwt>
</event>
<event>
 6    1  0.1535419E-002  0.9366777E+02  0.7546771E-02  0.1384571E+00
         -2   -1    0    0    0  501 -0.00000000000E+00  0.00000000000E+00  0.54059700901E+02  0.54059700901E+02  0.00000000000E+00 0.  1.
          2   -1    0    0  501    0  0.00000000000E+00 -0.00000000000E+00 -0.61626262662E+02  0.61626262662E+02  0.00000000000E+00 0. -1.
         23    2    1    2    0    0 -0.24107072125E+01 -0.19359055650E+02 -0.14898236775E+02  0.94845186143E+02  0.91613685280E+02 0.  0.
         13    1    3    3    0    0 -0.37415662524E+01  0.13020855891E+02 -0.47189873712E+02  0.49096091363E+02  0.00000000000E+00 0. -1.
        -13    1    3    3    0    0  0.13308590399E+01 -0.32379911541E+02  0.32291636937E+02  0.45749094780E+02  0.00000000000E+00 0.  1.
         22    1    1    2    0    0  0.24107072125E+01  0.19359055650E+02  0.73316750142E+01  0.20840777419E+02  0.00000000000E+00 0. -1.
<mgrwt>
<rscale>  0 0.63277461E+02</rscale>
<asrwt>0</asrwt>
<pdfrwt beam="1">  1        2 0.94809635E-02 0.93667774E+02</pdfrwt>
<pdfrwt beam="2">  1       -2 0.83168771E-02 0.93667774E+02</pdfrwt>
<totfact> 0.52606190E+04</totfact>
</mgrwt>
</event>
<event>
 6    1  0.1535419E-002  0.9282163E+02  0.7546771E-02  0.1416582E+00
         -2   -1    0    0    0  501 -0.00000000000E+00  0.00000000000E+00  0.12305416228E+02  0.12305416228E+02  0.00000000000E+00 0. -1.
          2   -1    0    0  501    0  0.00000000000E+00 -0.00000000000E+00 -0.28064638751E+03  0.28064638751E+03  0.00000000000E+00 0.  1.
         23    2    1    2    0    0 -0.45467327883E+01  0.11191290091E+02 -0.26444033250E+03  0.28025799675E+03  0.92032263547E+02 0.  0.
         11    1    3    3    0    0 -0.38373348406E+02  0.68509161218E+01 -0.22395838596E+03  0.22732533418E+03  0.00000000000E+00 0.  1.
        -11    1    3    3    0    0  0.33826615617E+02  0.43403739695E+01 -0.40481946546E+02  0.52932662567E+02  0.00000000000E+00 0. -1.
         22    1    1    2    0    0  0.45467327883E+01 -0.11191290091E+02 -0.39006387753E+01  0.12693806987E+02  0.00000000000E+00 0. -1.
<mgrwt>
<rscale>  0 0.55750712E+02</rscale>
<asrwt>0</asrwt>
<pdfrwt beam="1">  1        2 0.43176362E-01 0.92821632E+02</pdfrwt>
<pdfrwt beam="2">  1       -2 0.18931412E-02 0.92821632E+02</pdfrwt>
<totfact> 0.85158022E+04</totfact>
</mgrwt>
</event>
<event>
 6    1  0.1535419E-002  0.9422616E+02  0.7546771E-02  0.1388805E+00
         -2   -1    0    0    0  501 -0.00000000000E+00  0.00000000000E+00  0.38509040759E+01  0.38509040759E+01  0.00000000000E+00 0.  1.
          2   -1    0    0  501    0  0.00000000000E+00 -0.00000000000E+00 -0.11417658187E+04  0.11417658187E+04  0.00000000000E+00 0. -1.
         23    2    1    2    0    0 -0.17896113566E+02 -0.20407328054E+00 -0.10959703530E+04  0.11000134468E+04  0.92510842861E+02 0.  0.
         13    1    3    3    0    0 -0.65977819379E+01  0.94364700956E+01 -0.10702563850E+04  0.10703183206E+04  0.00000000000E+00 0. -1.
        -13    1    3    3    0    0 -0.11298331628E+02 -0.96405433762E+01 -0.25713967966E+02  0.29695126245E+02  0.00000000000E+00 0.  1.
         22    1    1    2    0    0  0.17896113566E+02  0.20407328054E+00 -0.41944561681E+02  0.45603275993E+02  0.00000000000E+00 0. -1.
<mgrwt>
<rscale>  0 0.62205008E+02</rscale>
<asrwt>0</asrwt>
<pdfrwt beam="1">  1        2 0.17565637E+00 0.94226157E+02</pdfrwt>
<pdfrwt beam="2">  1       -2 0.59244647E-03 0.94226157E+02</pdfrwt>
<totfact> 0.87972323E+04</totfact>
</mgrwt>
</event>
<event>
 6    1  0.1535419E-002  0.1026496E+03  0.7546771E-02  0.1357303E+00
         -4   -1    0    0    0  501 -0.00000000000E+00  0.00000000000E+00  0.21065617137E+02  0.21065617137E+02  0.00000000000E+00 0.  1.
          4   -1    0    0  501    0  0.00000000000E+00 -0.00000000000E+00 -0.24663492792E+03  0.24663492792E+03  0.00000000000E+00 0. -1.
         23    2    1    2    0    0  0.21387927866E+02 -0.91580227894E+01 -0.22143423854E+03  0.24406980951E+03  0.99978183012E+02 0.  0.
         11    1    3    3    0    0  0.48011160072E+02  0.42502219852E+01 -0.20382880187E+03  0.20945003307E+03  0.00000000000E+00 0. -1.
        -11    1    3    3    0    0 -0.26623232206E+02 -0.13408244775E+02 -0.17605436666E+02  0.34619776447E+02  0.00000000000E+00 0.  1.
         22    1    1    2    0    0 -0.21387927866E+02  0.91580227894E+01 -0.41350722423E+01  0.23630735542E+02  0.00000000000E+00 0. -1.
<mgrwt>
<rscale>  0 0.70827047E+02</rscale>
<asrwt>0</asrwt>
<pdfrwt beam="1">  1        4 0.37943835E-01 0.10264965E+03</pdfrwt>
<pdfrwt beam="2">  1       -4 0.32408642E-02 0.10264965E+03</pdfrwt>
<totfact> 0.49051248E+03</totfact>
</mgrwt>
</event>
<event>
 6    1  0.1535419E-002  0.9364378E+02  0.7546771E-02  0.1370375E+00
          2   -1    0    0  501    0  0.00000000000E+00  0.00000000000E+00  0.73606844066E+03  0.73606844066E+03  0.00000000000E+00 0. -1.
         -2   -1    0    0    0  501 -0.00000000000E+00 -0.00000000000E+00 -0.16756980307E+02  0.16756980307E+02  0.00000000000E+00 0.  1.
         23    2    1    2    0    0 -0.10323207249E+02 -0.22364136583E+02  0.72199989088E+03  0.72804738893E+03  0.90346194646E+02 0.  0.
         11    1    3    3    0    0  0.34368238214E+01  0.22277437539E+01 -0.12240311326E+01  0.42746757101E+01  0.00000000000E+00 0.  1.
        -11    1    3    3    0    0 -0.13760031071E+02 -0.24591880337E+02  0.72322392201E+03  0.72377271322E+03  0.00000000000E+00 0. -1.
         22    1    1    2    0    0  0.10323207249E+02  0.22364136583E+02 -0.26884305232E+01  0.24778032039E+02  0.00000000000E+00 0.  1.
<mgrwt>
<rscale>  0 0.67063010E+02</rscale>
<asrwt>0</asrwt>
<pdfrwt beam="1">  1        2 0.11324127E+00 0.93643783E+02</pdfrwt>
<pdfrwt beam="2">  1       -2 0.25779975E-02 0.93643783E+02</pdfrwt>
<totfact> 0.19209967E+04</totfact>
</mgrwt>
</event>
<event>
 6    1  0.1535419E-002  0.9232685E+02  0.7546771E-02  0.1403087E+00
          1   -1    0    0  501    0  0.00000000000E+00  0.00000000000E+00  0.91101386708E+03  0.91101386708E+03  0.00000000000E+00 0. -1.
         -1   -1    0    0    0  501 -0.00000000000E+00 -0.00000000000E+00 -0.50372120778E+01  0.50372120778E+01  0.00000000000E+00 0.  1.
         23    2    1    2    0    0  0.58026728479E+01  0.13998062764E+02  0.88688014464E+03  0.89167294384E+03  0.91074865121E+02 0.  0.
         11    1    3    3    0    0  0.44341335587E+01  0.21411249035E+01  0.87436462856E+03  0.87437849335E+03  0.00000000000E+00 0. -1.
        -11    1    3    3    0    0  0.13685392892E+01  0.11856937860E+02  0.12515516081E+02  0.17294450496E+02  0.00000000000E+00 0.  1.
         22    1    1    2    0    0 -0.58026728479E+01 -0.13998062764E+02  0.19096510367E+02  0.24378135316E+02  0.00000000000E+00 0. -1.
<mgrwt>
<rscale>  0 0.58765370E+02</rscale>
<asrwt>0</asrwt>
<pdfrwt beam="1">  1        1 0.14015585E+00 0.92326853E+02</pdfrwt>
<pdfrwt beam="2">  1       -1 0.77495643E-03 0.92326853E+02</pdfrwt>
<totfact> 0.45892633E+04</totfact>
</mgrwt>
</event>
<event>
 6    1  0.1535419E-002  0.9423086E+02  0.7546771E-02  0.1374286E+00
         -1   -1    0    0    0  501 -0.00000000000E+00  0.00000000000E+00  0.82333440984E+02  0.82333440984E+02  0.00000000000E+00 0.  1.
          1   -1    0    0  501    0  0.00000000000E+00 -0.00000000000E+00 -0.42256732288E+02  0.42256732288E+02  0.00000000000E+00 0. -1.
         23    2    1    2    0    0 -0.25442432710E+01  0.22520336249E+02  0.38751542342E+02  0.10188786536E+03  0.91464836716E+02 0.  0.
         13    1    3    3    0    0  0.19856232779E+01 -0.57873641613E+01 -0.28305831771E+02  0.28959564844E+02  0.00000000000E+00 0. -1.
        -13    1    3    3    0    0 -0.45298665489E+01  0.28307700410E+02  0.67057374113E+02  0.72928300518E+02  0.00000000000E+00 0.  1.
         22    1    1    2    0    0  0.25442432710E+01 -0.22520336249E+02  0.13251663540E+01  0.22702307911E+02  0.00000000000E+00 0.  1.
<mgrwt>
<rscale>  0 0.65989842E+02</rscale>
<asrwt>0</asrwt>
<pdfrwt beam="1">  1        1 0.65010357E-02 0.94230861E+02</pdfrwt>
<pdfrwt beam="2">  1       -1 0.12666683E-01 0.94230861E+02</pdfrwt>
<totfact> 0.42204833E+04</totfact>
</mgrwt>
</event>
<event>
 6    1  0.1535419E-002  0.9285374E+02  0.7546771E-02  0.1388803E+00
         -2   -1    0    0    0  501 -0.00000000000E+00  0.00000000000E+00  0.15751322478E+02  0.15751322478E+02  0.00000000000E+00 0.  1.
          2   -1    0    0  501    0  0.00000000000E+00 -0.00000000000E+00 -0.19754867547E+03  0.19754867547E+03  0.00000000000E+00 0. -1.
         23    2    1    2    0    0  0.18237401239E+02 -0.41472899148E+01 -0.15037789200E+03  0.17673518772E+03  0.90950609454E+02 0.  0.
         13    1    3    3    0    0 -0.20896876065E+02 -0.27548235574E+02 -0.11174502666E+03  0.11697237151E+03  0.00000000000E+00 0. -1.
        -13    1    3    3    0    0  0.39134277304E+02  0.23400945659E+02 -0.38632865337E+02  0.59762816215E+02  0.00000000000E+00 0.  1.
         22    1    1    2    0    0 -0.18237401239E+02  0.41472899148E+01 -0.31419460993E+02  0.36564810224E+02  0.00000000000E+00 0.  1.
<mgrwt>
<rscale>  0 0.62205308E+02</rscale>
<asrwt>0</asrwt>
<pdfrwt beam="1">  1        2 0.30392101E-01 0.92853735E+02</pdfrwt>
<pdfrwt beam="2">  1       -2 0.24232806E-02 0.92853735E+02</pdfrwt>
<totfact> 0.86478032E+04</totfact>
</mgrwt>
</event>
<event>
 6    1  0.1535419E-002  0.9077590E+02  0.7546771E-02  0.1384840E+00
          2   -1    0    0  501    0  0.00000000000E+00  0.00000000000E+00  0.98405486130E+02  0.98405486130E+02  0.00000000000E+00 0. -1.
         -2   -1    0    0    0  501 -0.00000000000E+00 -0.00000000000E+00 -0.39281401455E+02  0.39281401455E+02  0.00000000000E+00 0.  1.
         23    2    1    2    0    0 -0.18874833803E+02  0.99562639202E+01  0.69145459740E+02  0.11411116913E+03  0.88231954392E+02 0.  0.
         11    1    3    3    0    0 -0.42655192534E+02  0.37415496763E+01  0.77171626247E+02  0.88254883953E+02  0.00000000000E+00 0. -1.
        -11    1    3    3    0    0  0.23780358731E+02  0.62147142439E+01 -0.80261665062E+01  0.25856285180E+02  0.00000000000E+00 0.  1.
         22    1    1    2    0    0  0.18874833803E+02 -0.99562639202E+01 -0.10021375065E+02  0.23575718452E+02  0.00000000000E+00 0. -1.
<mgrwt>
<rscale>  0 0.63208495E+02</rscale>
<asrwt>0</asrwt>
<pdfrwt beam="1">  1        2 0.15139305E-01 0.90775902E+02</pdfrwt>
<pdfrwt beam="2">  1       -2 0.60432926E-02 0.90775902E+02</pdfrwt>
<totfact> 0.48761166E+04</totfact>
</mgrwt>
</event>
<event>
 6    1  0.1535419E-002  0.9542734E+02  0.7546771E-02  0.1373271E+00
         -4   -1    0    0    0  501 -0.00000000000E+00  0.00000000000E+00  0.17454226535E+03  0.17454226535E+03  0.00000000000E+00 0. -1.
          4   -1    0    0  501    0  0.00000000000E+00 -0.00000000000E+00 -0.35626119145E+02  0.35626119145E+02  0.00000000000E+00 0.  1.
         23    2    1    2    0    0 -0.22160101222E+02  0.11440723039E+01  0.31511518306E+02  0.10049553880E+03  0.92811629369E+02 0.  0.
         13    1    3    3    0    0 -0.13540960210E+02  0.39174910095E+02  0.43117971674E+02  0.59809620176E+02  0.00000000000E+00 0. -1.
        -13    1    3    3    0    0 -0.86191410118E+01 -0.38030837791E+02 -0.11606453368E+02  0.40685918628E+02  0.00000000000E+00 0.  1.
         22    1    1    2    0    0  0.22160101222E+02 -0.11440723039E+01  0.10740462790E+03  0.10967284569E+03  0.00000000000E+00 0. -1.
<mgrwt>
<rscale>  0 0.66266199E+02</rscale>
<asrwt>0</asrwt>
<pdfrwt beam="1">  1        4 0.54809415E-02 0.95427342E+02</pdfrwt>
<pdfrwt beam="2">  1       -4 0.26852656E-01 0.95427342E+02</pdfrwt>
<totfact> 0.40296446E+03</totfact>
</mgrwt>
</event>
<event>
 6    1  0.1535419E-002  0.9657470E+02  0.7546771E-02  0.1350225E+00
          2   -1    0    0  501    0  0.00000000000E+00  0.00000000000E+00  0.14487210182E+03  0.14487210182E+03  0.00000000000E+00 0. -1.
         -2   -1    0    0    0  501 -0.00000000000E+00 -0.00000000000E+00 -0.36114474028E+02  0.36114474028E+02  0.00000000000E+00 0.  1.
         23    2    1    2    0    0  0.69132968754E+01  0.30735284418E+02  0.11361162970E+03  0.14911162147E+03  0.91291959521E+02 0.  0.
         11    1    3    3    0    0 -0.26589090149E+02  0.22333780554E+02  0.10883853597E+03  0.11424361856E+03  0.00000000000E+00 0. -1.
        -11    1    3    3    0    0  0.33502387024E+02  0.84015038641E+01  0.47730937264E+01  0.34868002914E+02  0.00000000000E+00 0.  1.
         22    1    1    2    0    0 -0.69132968754E+01 -0.30735284418E+02 -0.48540019071E+01  0.31874954376E+02  0.00000000000E+00 0. -1.
<mgrwt>
<rscale>  0 0.72985433E+02</rscale>
<asrwt>0</asrwt>
<pdfrwt beam="1">  1        2 0.22288015E-01 0.96574703E+02</pdfrwt>
<pdfrwt beam="2">  1       -2 0.55560730E-02 0.96574703E+02</pdfrwt>
<totfact> 0.36016241E+04</totfact>
</mgrwt>
</event>
<event>
 6    1  0.1535419E-002  0.9447136E+02  0.7546771E-02  0.1402597E+00
         -2   -1    0    0    0  501 -0.00000000000E+00  0.00000000000E+00  0.42828808302E+02  0.42828808302E+02  0.00000000000E+00 0.  1.
          2   -1    0    0  501    0  0.00000000000E+00 -0.00000000000E+00 -0.79236289367E+02  0.79236289367E+02  0.00000000000E+00 0. -1.
         23    2    1    2    0    0 -0.36659970797E+01  0.13774732494E+02 -0.45806693261E+02  0.10499090721E+03  0.93389799548E+02 0.  0.
         11    1    3    3    0    0  0.17238830395E+02 -0.17893763966E+02  0.18049624897E+02  0.30710796492E+02  0.00000000000E+00 0.  1.
        -11    1    3    3    0    0 -0.20904827474E+02  0.31668496460E+02 -0.63856318158E+02  0.74280110719E+02  0.00000000000E+00 0. -1.
         22    1    1    2    0    0  0.36659970797E+01 -0.13774732494E+02  0.93992121961E+01  0.17074190457E+02  0.00000000000E+00 0. -1.
<mgrwt>
<rscale>  0 0.58879076E+02</rscale>
<asrwt>0</asrwt>
<pdfrwt beam="1">  1        2 0.12190198E-01 0.94471358E+02</pdfrwt>
<pdfrwt beam="2">  1       -2 0.65890474E-02 0.94471358E+02</pdfrwt>
<totfact> 0.55472202E+04</totfact>
</mgrwt>
</event>
<event>
 6    1  0.1535419E-002  0.1019996E+03  0.7546771E-02  0.1319479E+00
         -4   -1    0    0    0  501 -0.00000000000E+00  0.00000000000E+00  0.25281121352E+03  0.25281121352E+03  0.00000000000E+00 0.  1.
          4   -1    0    0  501    0  0.00000000000E+00 -0.00000000000E+00 -0.22284859263E+02  0.22284859263E+02  0.00000000000E+00 0. -1.
         23    2    1    2    0    0  0.36338675069E+02  0.27789229502E+02  0.13519238167E+03  0.16935437376E+03  0.91165691294E+02 0.  0.
         11    1    3    3    0    0  0.20098498401E+02  0.10946258902E+02  0.14289944769E+03  0.14472049742E+03  0.00000000000E+00 0.  1.
        -11    1    3    3    0    0  0.16240176668E+02  0.16842970600E+02 -0.77070660281E+01  0.24633876341E+02  0.00000000000E+00 0. -1.
         22    1    1    2    0    0 -0.36338675069E+02 -0.27789229502E+02  0.95333972592E+02  0.10574169902E+03  0.00000000000E+00 0. -1.
<mgrwt>
<rscale>  0 0.83471528E+02</rscale>
<asrwt>0</asrwt>
<pdfrwt beam="1">  1        4 0.34284401E-02 0.10199963E+03</pdfrwt>
<pdfrwt beam="2">  1       -4 0.38894031E-01 0.10199963E+03</pdfrwt>
<totfact> 0.42735542E+03</totfact>
</mgrwt>
</event>
<event>
 6    1  0.1535419E-002  0.1073697E+03  0.7546771E-02  0.1298759E+00
         -2   -1    0    0    0  501 -0.00000000000E+00  0.00000000000E+00  0.13430486891E+02  0.13430486891E+02  0.00000000000E+00 0.  1.
          2   -1    0    0  501    0  0.00000000000E+00 -0.00000000000E+00 -0.51338254554E+03  0.51338254554E+03  0.00000000000E+00 0. -1.
         23    2    1    2    0    0  0.45517572444E+02  0.34565649746E+02 -0.35905617001E+03  0.37476604963E+03  0.90893482652E+02 0.  0.
         13    1    3    3    0    0  0.20968349343E+02  0.17591774674E+02 -0.18804058948E+02  0.33207451623E+02  0.00000000000E+00 0.  1.
        -13    1    3    3    0    0  0.24549223101E+02  0.16973875072E+02 -0.34025211106E+03  0.34155859801E+03  0.00000000000E+00 0. -1.
         22    1    1    2    0    0 -0.45517572444E+02 -0.34565649746E+02 -0.14089588864E+03  0.15204698280E+03  0.00000000000E+00 0.  1.
<mgrwt>
<rscale>  0 0.91711531E+02</rscale>
<asrwt>0</asrwt>
<pdfrwt beam="1">  1        2 0.78981918E-01 0.10736973E+03</pdfrwt>
<pdfrwt beam="2">  1       -2 0.20662291E-02 0.10736973E+03</pdfrwt>
<totfact> 0.40354673E+04</totfact>
</mgrwt>
</event>
<event>
 6    1  0.1535419E-002  0.9444518E+02  0.7546771E-02  0.1406144E+00
          4   -1    0    0  501    0  0.00000000000E+00  0.00000000000E+00  0.17110383551E+02  0.17110383551E+02  0.00000000000E+00 0. -1.
         -4   -1    0    0    0  501 -0.00000000000E+00 -0.00000000000E+00 -0.18297520444E+03  0.18297520444E+03  0.00000000000E+00 0.  1.
         23    2    1    2    0    0 -0.13489866500E+02 -0.21721220393E+00 -0.12256319436E+03  0.15473082486E+03  0.93476563206E+02 0.  0.
         13    1    3    3    0    0 -0.23481305552E+02  0.77567365995E+01 -0.13479114708E+03  0.13704084064E+03  0.00000000000E+00 0.  1.
        -13    1    3    3    0    0  0.99914390518E+01 -0.79739488034E+01  0.12227952716E+02  0.17689984213E+02  0.00000000000E+00 0. -1.
         22    1    1    2    0    0  0.13489866500E+02  0.21721220393E+00 -0.43301626523E+02  0.45354763134E+02  0.00000000000E+00 0. -1.
<mgrwt>
<rscale>  0 0.58063181E+02</rscale>
<asrwt>0</asrwt>
<pdfrwt beam="1">  1        4 0.26323666E-02 0.94445177E+02</pdfrwt>
<pdfrwt beam="2">  1       -4 0.28150033E-01 0.94445177E+02</pdfrwt>
<totfact> 0.11666941E+04</totfact>
</mgrwt>
</event>
<event>
 6    1  0.1535419E-002  0.9431754E+02  0.7546771E-02  0.1422403E+00
          4   -1    0    0  501    0  0.00000000000E+00  0.00000000000E+00  0.38347566103E+02  0.38347566103E+02  0.00000000000E+00 0. -1.
         -4   -1    0    0    0  501 -0.00000000000E+00 -0.00000000000E+00 -0.73728324674E+02  0.73728324674E+02  0.00000000000E+00 0.  1.
         23    2    1    2    0    0  0.38858558215E+00  0.10519999967E+02 -0.25656817841E+02  0.97744930538E+02  0.93728212114E+02 0.  0.
         13    1    3    3    0    0 -0.22562357298E+02 -0.17371020453E+02 -0.47610968946E+02  0.55476271346E+02  0.00000000000E+00 0.  1.
        -13    1    3    3    0    0  0.22950942880E+02  0.27891020420E+02  0.21954151105E+02  0.42268659192E+02  0.00000000000E+00 0. -1.
         22    1    1    2    0    0 -0.38858558215E+00 -0.10519999967E+02 -0.97239407293E+01  0.14330960239E+02  0.00000000000E+00 0.  1.
<mgrwt>
<rscale>  0 0.54515791E+02</rscale>
<asrwt>0</asrwt>
<pdfrwt beam="1">  1        4 0.58996256E-02 0.94317544E+02</pdfrwt>
<pdfrwt beam="2">  1       -4 0.11342819E-01 0.94317544E+02</pdfrwt>
<totfact> 0.16289521E+04</totfact>
</mgrwt>
</event>
<event>
 6    1  0.1535419E-002  0.9438830E+02  0.7546771E-02  0.1368416E+00
         -2   -1    0    0    0  501 -0.00000000000E+00  0.00000000000E+00  0.29817826059E+01  0.29817826059E+01  0.00000000000E+00 0. -1.
          2   -1    0    0  501    0  0.00000000000E+00 -0.00000000000E+00 -0.18792496329E+04  0.18792496329E+04  0.00000000000E+00 0.  1.
         23    2    1    2    0    0 -0.56439268685E+01 -0.24197684986E+02 -0.17891884524E+04  0.17916764410E+04  0.91059152135E+02 0.  0.
         11    1    3    3    0    0  0.27008336395E+02 -0.49669177256E+00 -0.18315934365E+03  0.18514060090E+03  0.00000000000E+00 0. -1.
        -11    1    3    3    0    0 -0.32652263264E+02 -0.23700993213E+02 -0.16060291087E+04  0.16065358401E+04  0.00000000000E+00 0.  1.
         22    1    1    2    0    0  0.56439268685E+01  0.24197684986E+02 -0.87079397928E+02  0.90554974533E+02  0.00000000000E+00 0. -1.
<mgrwt>
<rscale>  0 0.67609520E+02</rscale>
<asrwt>0</asrwt>
<pdfrwt beam="1">  1        2 0.28911539E+00 0.94388299E+02</pdfrwt>
<pdfrwt beam="2">  1       -2 0.45873569E-03 0.94388299E+02</pdfrwt>
<totfact> 0.52385406E+04</totfact>
</mgrwt>
</event>
<event>
 6    1  0.1535419E-002  0.9147347E+02  0.7546771E-02  0.1426574E+00
          2   -1    0    0  501    0  0.00000000000E+00  0.00000000000E+00  0.24981546880E+03  0.24981546880E+03  0.00000000000E+00 0. -1.
         -2   -1    0    0    0  501 -0.00000000000E+00 -0.00000000000E+00 -0.17002772137E+02  0.17002772137E+02  0.00000000000E+00 0.  1.
         23    2    1    2    0    0  0.68950382811E+01 -0.83480310796E+01  0.23788182871E+03  0.25486302135E+03  0.90830413637E+02 0.  0.
         11    1    3    3    0    0 -0.10184896325E+02 -0.43879993762E+02  0.76884107096E+02  0.89108652160E+02  0.00000000000E+00 0.  1.
        -11    1    3    3    0    0  0.17079934606E+02  0.35531962682E+02  0.16099772162E+03  0.16575436919E+03  0.00000000000E+00 0. -1.
         22    1    1    2    0    0 -0.68950382811E+01  0.83480310796E+01 -0.50691320489E+01  0.11955219594E+02  0.00000000000E+00 0.  1.
<mgrwt>
<rscale>  0 0.53653956E+02</rscale>
<asrwt>0</asrwt>
<pdfrwt beam="1">  1        2 0.38433146E-01 0.91473467E+02</pdfrwt>
<pdfrwt beam="2">  1       -2 0.26158113E-02 0.91473467E+02</pdfrwt>
<totfact> 0.60248709E+04</totfact>
</mgrwt>
</event>
<event>
 6    1  0.1535419E-002  0.9335775E+02  0.7546771E-02  0.1378819E+00
         -3   -1    0    0    0  501 -0.00000000000E+00  0.00000000000E+00  0.15138578920E+03  0.15138578920E+03  0.00000000000E+00 0.  1.
          3   -1    0    0  501    0  0.00000000000E+00 -0.00000000000E+00 -0.31312055223E+02  0.31312055223E+02  0.00000000000E+00 0. -1.
         23    2    1    2    0    0  0.24989484837E+01 -0.21491407378E+02  0.43257243953E+02  0.10289246569E+03  0.90815995327E+02 0.  0.
         13    1    3    3    0    0 -0.15591099505E+02  0.34529554131E+01 -0.24049094716E+02  0.28868048800E+02  0.00000000000E+00 0. -1.
        -13    1    3    3    0    0  0.18090047989E+02 -0.24944362791E+02  0.67306338669E+02  0.74024416893E+02  0.00000000000E+00 0.  1.
         22    1    1    2    0    0 -0.24989484837E+01  0.21491407378E+02  0.76816490028E+02  0.79805378734E+02  0.00000000000E+00 0.  1.
<mgrwt>
<rscale>  0 0.64775096E+02</rscale>
<asrwt>0</asrwt>
<pdfrwt beam="1">  1        3 0.48172394E-02 0.93357755E+02</pdfrwt>
<pdfrwt beam="2">  1       -3 0.23290121E-01 0.93357755E+02</pdfrwt>
<totfact> 0.86140572E+03</totfact>
</mgrwt>
</event>
<event>
 6    1  0.1535419E-002  0.1261960E+03  0.7546771E-02  0.1264095E+00
          2   -1    0    0  501    0  0.00000000000E+00  0.00000000000E+00  0.85826705474E+02  0.85826705474E+02  0.00000000000E+00 0. -1.
         -2   -1    0    0    0  501 -0.00000000000E+00 -0.00000000000E+00 -0.20563665162E+03  0.20563665162E+03  0.00000000000E+00 0.  1.
         23    2    1    2    0    0 -0.29806442256E+02  0.61110400328E+02  0.27555101373E+02  0.12916929602E+03  0.10631330300E+03 0.  0.
         11    1    3    3    0    0 -0.28011705116E+02  0.52783636873E+02  0.66441923822E+02  0.89360490074E+02  0.00000000000E+00 0. -1.
        -11    1    3    3    0    0 -0.17947371398E+01  0.83267634543E+01 -0.38886822448E+02  0.39808805950E+02  0.00000000000E+00 0.  1.
         22    1    1    2    0    0  0.29806442256E+02 -0.61110400328E+02 -0.14736504752E+03  0.16229406107E+03  0.00000000000E+00 0.  1.
<mgrwt>
<rscale>  0 0.10811812E+03</rscale>
<asrwt>0</asrwt>
<pdfrwt beam="1">  1        2 0.13204109E-01 0.12619597E+03</pdfrwt>
<pdfrwt beam="2">  1       -2 0.31636408E-01 0.12619597E+03</pdfrwt>
<totfact> 0.40116229E+03</totfact>
</mgrwt>
</event>
<event>
 6    1  0.1535419E-002  0.1330671E+03  0.7546771E-02  0.1236866E+00
         -2   -1    0    0    0  501 -0.00000000000E+00  0.00000000000E+00  0.21432187699E+02  0.21432187699E+02  0.00000000000E+00 0.  1.
          2   -1    0    0  501    0  0.00000000000E+00 -0.00000000000E+00 -0.63498997170E+03  0.63498997170E+03  0.00000000000E+00 0. -1.
         23    2    1    2    0    0 -0.92394474959E+02  0.37934602078E+02 -0.33202780938E+03  0.35770004832E+03  0.87926590565E+02 0.  0.
         13    1    3    3    0    0 -0.39842124441E+02  0.36883842734E+01 -0.32139664934E+02  0.51322091935E+02  0.00000000000E+00 0.  1.
        -13    1    3    3    0    0 -0.52552350517E+02  0.34246217805E+02 -0.29988814445E+03  0.30637795639E+03  0.00000000000E+00 0. -1.
         22    1    1    2    0    0  0.92394474959E+02 -0.37934602078E+02 -0.28152997462E+03  0.29872211108E+03  0.00000000000E+00 0.  1.
<mgrwt>
<rscale>  0 0.12385724E+03</rscale>
<asrwt>0</asrwt>
<pdfrwt beam="1">  1        2 0.97690773E-01 0.13306712E+03</pdfrwt>
<pdfrwt beam="2">  1       -2 0.32972594E-02 0.13306712E+03</pdfrwt>
<totfact> 0.16416161E+04</totfact>
</mgrwt>
</event>
<event>
 6    1  0.1535419E-002  0.1021859E+03  0.7546771E-02  0.1318872E+00
          1   -1    0    0  501    0  0.00000000000E+00  0.00000000000E+00  0.94388397127E+03  0.94388397127E+03  0.00000000000E+00 0. -1.
         -1   -1    0    0    0  501 -0.00000000000E+00 -0.00000000000E+00 -0.81876115400E+01  0.81876115400E+01  0.00000000000E+00 0.  1.
         23    2    1    2    0    0 -0.25755536440E+02 -0.38105141875E+02  0.83665303695E+03  0.84287025827E+03  0.91250307061E+02 0.  0.
         13    1    3    3    0    0  0.10851819913E+02 -0.55180032809E+02  0.61506448786E+03  0.61763008528E+03  0.00000000000E+00 0. -1.
        -13    1    3    3    0    0 -0.36607356352E+02  0.17074890934E+02  0.22158854909E+03  0.22524017298E+03  0.00000000000E+00 0.  1.
         22    1    1    2    0    0  0.25755536440E+02  0.38105141875E+02  0.99043322778E+02  0.10920132454E+03  0.00000000000E+00 0.  1.
<mgrwt>
<rscale>  0 0.83698206E+02</rscale>
<asrwt>0</asrwt>
<pdfrwt beam="1">  1        1 0.14521283E+00 0.10218595E+03</pdfrwt>
<pdfrwt beam="2">  1       -1 0.12596333E-02 0.10218595E+03</pdfrwt>
<totfact> 0.22055385E+04</totfact>
</mgrwt>
</event>
<event>
 6    1  0.1535419E-002  0.9186273E+02  0.7546771E-02  0.1405313E+00
          2   -1    0    0  501    0  0.00000000000E+00  0.00000000000E+00  0.12631085551E+03  0.12631085551E+03  0.00000000000E+00 0.  1.
         -2   -1    0    0    0  501 -0.00000000000E+00 -0.00000000000E+00 -0.27537244461E+02  0.27537244461E+02  0.00000000000E+00 0. -1.
         23    2    1    2    0    0  0.12197454587E+02 -0.84778842682E+01  0.10337849929E+03  0.13829633429E+03  0.90653789459E+02 0.  0.
         11    1    3    3    0    0  0.32025975568E+02  0.31861194529E+02  0.38424975498E+02  0.59306640184E+02  0.00000000000E+00 0. -1.
        -11    1    3    3    0    0 -0.19828520981E+02 -0.40339078797E+02  0.64953523788E+02  0.78989694106E+02  0.00000000000E+00 0.  1.
         22    1    1    2    0    0 -0.12197454587E+02  0.84778842682E+01 -0.46048882388E+01  0.15551765680E+02  0.00000000000E+00 0. -1.
<mgrwt>
<rscale>  0 0.58252975E+02</rscale>
<asrwt>0</asrwt>
<pdfrwt beam="1">  1        2 0.19432439E-01 0.91862734E+02</pdfrwt>
<pdfrwt beam="2">  1       -2 0.42364992E-02 0.91862734E+02</pdfrwt>
<totfact> 0.62343238E+04</totfact>
</mgrwt>
</event>
<event>
 6    1  0.1535419E-002  0.9182712E+02  0.7546771E-02  0.1427828E+00
         -2   -1    0    0    0  501 -0.00000000000E+00  0.00000000000E+00  0.28347561392E+02  0.28347561392E+02  0.00000000000E+00 0. -1.
          2   -1    0    0  501    0  0.00000000000E+00 -0.00000000000E+00 -0.92364839819E+02  0.92364839819E+02  0.00000000000E+00 0.  1.
         23    2    1    2    0    0 -0.91787304668E+01  0.50997829679E+01 -0.56891881643E+02  0.10802271411E+03  0.91224797550E+02 0.  0.
         11    1    3    3    0    0 -0.75337701563E+01 -0.69653874434E+01 -0.80663714591E+02  0.81313646866E+02  0.00000000000E+00 0.  1.
        -11    1    3    3    0    0 -0.16449603105E+01  0.12065170411E+02  0.23771832948E+02  0.26709067247E+02  0.00000000000E+00 0. -1.
         22    1    1    2    0    0  0.91787304668E+01 -0.50997829679E+01 -0.71253967840E+01  0.12689687097E+02  0.00000000000E+00 0.  1.
<mgrwt>
<rscale>  0 0.53398486E+02</rscale>
<asrwt>0</asrwt>
<pdfrwt beam="1">  1        2 0.14209975E-01 0.91827123E+02</pdfrwt>
<pdfrwt beam="2">  1       -2 0.43611633E-02 0.91827123E+02</pdfrwt>
<totfact> 0.85409893E+04</totfact>
</mgrwt>
</event>
<event>
 6    1  0.1535419E-002  0.9919366E+02  0.7546771E-02  0.1332010E+00
         -2   -1    0    0    0  501 -0.00000000000E+00  0.00000000000E+00  0.84998311255E+01  0.84998311255E+01  0.00000000000E+00 0.  1.
          2   -1    0    0  501    0  0.00000000000E+00 -0.00000000000E+00 -0.61149908249E+03  0.61149908249E+03  0.00000000000E+00 0. -1.
         23    2    1    2    0    0 -0.85223753278E+01 -0.38917785256E+02 -0.49604218877E+03  0.50586286265E+03  0.90841388593E+02 0.  0.
         11    1    3    3    0    0 -0.99658750074E+01 -0.42761968002E+02 -0.49892013303E+03  0.50084848379E+03  0.00000000000E+00 0. -1.
        -11    1    3    3    0    0  0.14434996795E+01  0.38441827460E+01  0.28779442543E+01  0.50143788688E+01  0.00000000000E+00 0.  1.
         22    1    1    2    0    0  0.85223753278E+01  0.38917785256E+02 -0.10695706259E+03  0.11413605096E+03  0.00000000000E+00 0.  1.
<mgrwt>
<rscale>  0 0.78966475E+02</rscale>
<asrwt>0</asrwt>
<pdfrwt beam="1">  1        2 0.94076789E-01 0.99193663E+02</pdfrwt>
<pdfrwt beam="2">  1       -2 0.13076662E-02 0.99193663E+02</pdfrwt>
<totfact> 0.63475042E+04</totfact>
</mgrwt>
</event>
<event>
 6    1  0.1535419E-002  0.8976274E+02  0.7546771E-02  0.1417391E+00
         -4   -1    0    0    0  501 -0.00000000000E+00  0.00000000000E+00  0.14845193400E+03  0.14845193400E+03  0.00000000000E+00 0.  1.
          4   -1    0    0  501    0  0.00000000000E+00 -0.00000000000E+00 -0.18515424901E+02  0.18515424901E+02  0.00000000000E+00 0. -1.
         23    2    1    2    0    0  0.45113010697E+01 -0.12395790419E+02  0.10074016717E+03  0.13492935273E+03  0.88788183275E+02 0.  0.
         13    1    3    3    0    0  0.34253034135E+02 -0.34848603189E+02  0.75456317360E+02  0.89896336529E+02  0.00000000000E+00 0.  1.
        -13    1    3    3    0    0 -0.29741733065E+02  0.22452812770E+02  0.25283849812E+02  0.45033016203E+02  0.00000000000E+00 0. -1.
         22    1    1    2    0    0 -0.45113010697E+01  0.12395790419E+02  0.29196341924E+02  0.32038006167E+02  0.00000000000E+00 0. -1.
<mgrwt>
<rscale>  0 0.55576737E+02</rscale>
<asrwt>0</asrwt>
<pdfrwt beam="1">  1        4 0.28485270E-02 0.89762737E+02</pdfrwt>
<pdfrwt beam="2">  1       -4 0.22838758E-01 0.89762737E+02</pdfrwt>
<totfact> 0.14920497E+04</totfact>
</mgrwt>
</event>
<event>
 6    1  0.1535419E-002  0.9361079E+02  0.7546771E-02  0.1402048E+00
         -1   -1    0    0    0  501 -0.00000000000E+00  0.00000000000E+00  0.81124433755E+01  0.81124433755E+01  0.00000000000E+00 0.  1.
          1   -1    0    0  501    0  0.00000000000E+00 -0.00000000000E+00 -0.45002330105E+03  0.45002330105E+03  0.00000000000E+00 0. -1.
         23    2    1    2    0    0 -0.14734476294E+02  0.11397814760E+01 -0.42700490477E+03  0.43714547703E+03  0.92436873023E+02 0.  0.
         11    1    3    3    0    0 -0.21391000385E+02  0.90474948259E+01 -0.42614053735E+03  0.42677299543E+03  0.00000000000E+00 0. -1.
        -11    1    3    3    0    0  0.66565240916E+01 -0.79077133499E+01 -0.86436742387E+00  0.10372481596E+02  0.00000000000E+00 0.  1.
         22    1    1    2    0    0  0.14734476294E+02 -0.11397814760E+01 -0.14905952905E+02  0.20990267399E+02  0.00000000000E+00 0. -1.
<mgrwt>
<rscale>  0 0.59006787E+02</rscale>
<asrwt>0</asrwt>
<pdfrwt beam="1">  1        1 0.69234356E-01 0.93610787E+02</pdfrwt>
<pdfrwt beam="2">  1       -1 0.12480682E-02 0.93610787E+02</pdfrwt>
<totfact> 0.62298005E+04</totfact>
</mgrwt>
</event>
<event>
 6    1  0.1535419E-002  0.9138111E+02  0.7546771E-02  0.1426716E+00
         -1   -1    0    0    0  501 -0.00000000000E+00  0.00000000000E+00  0.12587502513E+02  0.12587502513E+02  0.00000000000E+00 0.  1.
          1   -1    0    0  501    0  0.00000000000E+00 -0.00000000000E+00 -0.21496983703E+03  0.21496983703E+03  0.00000000000E+00 0. -1.
         23    2    1    2    0    0  0.26143893523E+01  0.10516666676E+02 -0.16475306668E+03  0.18839872481E+03  0.90736272907E+02 0.  0.
         13    1    3    3    0    0 -0.57767621899E+01  0.18371381212E+02  0.36523879961E+01  0.19601494002E+02  0.00000000000E+00 0.  1.
        -13    1    3    3    0    0  0.83911515421E+01 -0.78547145360E+01 -0.16840545468E+03  0.16879723081E+03  0.00000000000E+00 0. -1.
         22    1    1    2    0    0 -0.26143893523E+01 -0.10516666676E+02 -0.37629267835E+02  0.39158614729E+02  0.00000000000E+00 0. -1.
<mgrwt>
<rscale>  0 0.53624980E+02</rscale>
<asrwt>0</asrwt>
<pdfrwt beam="1">  1        1 0.33072282E-01 0.91381106E+02</pdfrwt>
<pdfrwt beam="2">  1       -1 0.19365389E-02 0.91381106E+02</pdfrwt>
<totfact> 0.82525071E+04</totfact>
</mgrwt>
</event>
<event>
 6    1  0.1535419E-002  0.8981676E+02  0.7546771E-02  0.1399166E+00
          2   -1    0    0  501    0  0.00000000000E+00  0.00000000000E+00  0.85302108927E+03  0.85302108927E+03  0.00000000000E+00 0.  1.
         -2   -1    0    0    0  501 -0.00000000000E+00 -0.00000000000E+00 -0.77832462389E+01  0.77832462389E+01  0.00000000000E+00 0. -1.
         23    2    1    2    0    0 -0.12405259449E+02  0.12360626638E+02  0.83636277535E+03  0.84117164901E+03  0.88092993747E+02 0.  0.
         11    1    3    3    0    0  0.31326385603E+02  0.82379821487E+01  0.15262409011E+03  0.15602345870E+03  0.00000000000E+00 0. -1.
        -11    1    3    3    0    0 -0.43731645052E+02  0.41226444892E+01  0.68373868525E+03  0.68514819031E+03  0.00000000000E+00 0.  1.
         22    1    1    2    0    0  0.12405259449E+02 -0.12360626638E+02  0.88750676761E+01  0.19632686498E+02  0.00000000000E+00 0. -1.
<mgrwt>
<rscale>  0 0.59683316E+02</rscale>
<asrwt>0</asrwt>
<pdfrwt beam="1">  1        2 0.13123394E+00 0.89816764E+02</pdfrwt>
<pdfrwt beam="2">  1       -2 0.11974232E-02 0.89816764E+02</pdfrwt>
<totfact> 0.47946980E+04</totfact>
</mgrwt>
</event>
<event>
 6    1  0.1535419E-002  0.1008961E+03  0.7546771E-02  0.1410132E+00
          2   -1    0    0  501    0  0.00000000000E+00  0.00000000000E+00  0.14570680803E+02  0.14570680803E+02  0.00000000000E+00 0. -1.
         -2   -1    0    0    0  501 -0.00000000000E+00 -0.00000000000E+00 -0.21282944700E+03  0.21282944700E+03  0.00000000000E+00 0.  1.
         23    2    1    2    0    0  0.75959550586E+01  0.70982937206E+01 -0.17707668119E+03  0.20380425883E+03  0.10035905835E+03 0.  0.
         13    1    3    3    0    0  0.39175472590E+02 -0.17303437547E+02 -0.14893769587E+03  0.15497278424E+03  0.00000000000E+00 0.  1.
        -13    1    3    3    0    0 -0.31579517531E+02  0.24401731268E+02 -0.28138985311E+02  0.48831474591E+02  0.00000000000E+00 0. -1.
         22    1    1    2    0    0 -0.75959550586E+01 -0.70982937206E+01 -0.21182085012E+02  0.23595868970E+02  0.00000000000E+00 0. -1.
<mgrwt>
<rscale>  0 0.57164465E+02</rscale>
<asrwt>0</asrwt>
<pdfrwt beam="1">  1        2 0.22416434E-02 0.10089611E+03</pdfrwt>
<pdfrwt beam="2">  1       -2 0.32742989E-01 0.10089611E+03</pdfrwt>
<totfact> 0.35804663E+04</totfact>
</mgrwt>
</event>
<event>
 6    1  0.1535419E-002  0.9518744E+02  0.7546771E-02  0.1409005E+00
         -2   -1    0    0    0  501 -0.00000000000E+00  0.00000000000E+00  0.26784187492E+02  0.26784187492E+02  0.00000000000E+00 0.  1.
          2   -1    0    0  501    0  0.00000000000E+00 -0.00000000000E+00 -0.17971001417E+03  0.17971001417E+03  0.00000000000E+00 0. -1.
         23    2    1    2    0    0 -0.12597080374E+02 -0.31615490890E+00 -0.16406298962E+03  0.18967686577E+03  0.94349681803E+02 0.  0.
         13    1    3    3    0    0 -0.18018851515E+02 -0.34939775546E+02 -0.25754633267E+02  0.46997532487E+02  0.00000000000E+00 0.  1.
        -13    1    3    3    0    0  0.54217711403E+01  0.34623620637E+02 -0.13830835635E+03  0.14267933328E+03  0.00000000000E+00 0. -1.
         22    1    1    2    0    0  0.12597080374E+02  0.31615490890E+00  0.11137162948E+02  0.16817335889E+02  0.00000000000E+00 0.  1.
<mgrwt>
<rscale>  0 0.57416458E+02</rscale>
<asrwt>0</asrwt>
<pdfrwt beam="1">  1        2 0.27647695E-01 0.95187441E+02</pdfrwt>
<pdfrwt beam="2">  1       -2 0.41206441E-02 0.95187441E+02</pdfrwt>
<totfact> 0.44282316E+04</totfact>
</mgrwt>
</event>
<event>
 6    1  0.1535419E-002  0.9039571E+02  0.7546771E-02  0.1417867E+00
          2   -1    0    0  501    0  0.00000000000E+00  0.00000000000E+00  0.31400133840E+03  0.31400133840E+03  0.00000000000E+00 0. -1.
         -2   -1    0    0    0  501 -0.00000000000E+00 -0.00000000000E+00 -0.92573576139E+01  0.92573576139E+01  0.00000000000E+00 0.  1.
         23    2    1    2    0    0  0.30411468486E+01  0.12455637165E+02  0.28978527340E+03  0.30355706161E+03  0.89481805447E+02 0.  0.
         13    1    3    3    0    0 -0.86676891765E+01  0.29916601306E+02  0.31087378580E+02  0.44006328821E+02  0.00000000000E+00 0.  1.
        -13    1    3    3    0    0  0.11708836025E+02 -0.17460964141E+02  0.25869789482E+03  0.25955073279E+03  0.00000000000E+00 0. -1.
         22    1    1    2    0    0 -0.30411468486E+01 -0.12455637165E+02  0.14958707393E+02  0.19701634405E+02  0.00000000000E+00 0. -1.
<mgrwt>
<rscale>  0 0.55474805E+02</rscale>
<asrwt>0</asrwt>
<pdfrwt beam="1">  1        2 0.48307890E-01 0.90395713E+02</pdfrwt>
<pdfrwt beam="2">  1       -2 0.14242091E-02 0.90395713E+02</pdfrwt>
<totfact> 0.11331268E+05</totfact>
</mgrwt>
</event>
<event>
 6    1  0.1535419E-002  0.9779117E+02  0.7546771E-02  0.1351920E+00
          4   -1    0    0  501    0  0.00000000000E+00  0.00000000000E+00  0.16449879314E+03  0.16449879314E+03  0.00000000000E+00 0. -1.
         -4   -1    0    0    0  501 -0.00000000000E+00 -0.00000000000E+00 -0.32469598353E+02  0.32469598353E+02  0.00000000000E+00 0.  1.
         23    2    1    2    0    0  0.13405050194E+02  0.26254335899E+02  0.13569688830E+03  0.16726254190E+03  0.93242302119E+02 0.  0.
         13    1    3    3    0    0  0.24406042097E+02 -0.27977442011E+02  0.29150487586E+02  0.47203210471E+02  0.00000000000E+00 0.  1.
        -13    1    3    3    0    0 -0.11000991903E+02  0.54231777909E+02  0.10654640071E+03  0.12005933143E+03  0.00000000000E+00 0. -1.
         22    1    1    2    0    0 -0.13405050194E+02 -0.26254335899E+02 -0.36676935155E+01  0.29705849591E+02  0.00000000000E+00 0.  1.
<mgrwt>
<rscale>  0 0.72460494E+02</rscale>
<asrwt>0</asrwt>
<pdfrwt beam="1">  1        4 0.25307506E-01 0.97791167E+02</pdfrwt>
<pdfrwt beam="2">  1       -4 0.49953229E-02 0.97791167E+02</pdfrwt>
<totfact> 0.52485746E+03</totfact>
</mgrwt>
</event>
<event>
 6    1  0.1535419E-002  0.9452653E+02  0.7546771E-02  0.1401138E+00
         -2   -1    0    0    0  501 -0.00000000000E+00  0.00000000000E+00  0.20104014175E+02  0.20104014175E+02  0.00000000000E+00 0. -1.
          2   -1    0    0  501    0  0.00000000000E+00 -0.00000000000E+00 -0.29480889034E+03  0.29480889034E+03  0.00000000000E+00 0.  1.
         23    2    1    2    0    0  0.14477940668E+02  0.15515049662E+01 -0.28285116732E+03  0.29822818117E+03  0.93398325778E+02 0.  0.
         11    1    3    3    0    0  0.39761067424E+02  0.11227829907E+02 -0.55078381526E+02  0.68852267636E+02  0.00000000000E+00 0. -1.
        -11    1    3    3    0    0 -0.25283126755E+02 -0.96763249406E+01 -0.22777278579E+03  0.22937591353E+03  0.00000000000E+00 0.  1.
         22    1    1    2    0    0 -0.14477940668E+02 -0.15515049662E+01  0.81462911492E+01  0.16684723346E+02  0.00000000000E+00 0. -1.
<mgrwt>
<rscale>  0 0.59219109E+02</rscale>
<asrwt>0</asrwt>
<pdfrwt beam="1">  1        2 0.45355213E-01 0.94526532E+02</pdfrwt>
<pdfrwt beam="2">  1       -2 0.30929253E-02 0.94526532E+02</pdfrwt>
<totfact> 0.39878383E+04</totfact>
</mgrwt>
</event>
<event>
 6    1  0.1535419E-002  0.8784254E+02  0.7546771E-02  0.1380984E+00
          3   -1    0    0  501    0  0.00000000000E+00  0.00000000000E+00  0.31668052027E+03  0.31668052027E+03  0.00000000000E+00 0. -1.
         -3   -1    0    0    0  501 -0.00000000000E+00 -0.00000000000E+00 -0.10240664379E+02  0.10240664379E+02  0.00000000000E+00 0.  1.
         23    2    1    2    0    0 -0.38946992404E+01 -0.24767219351E+02  0.21907450918E+03  0.23602955884E+03  0.84188646719E+02 0.  0.
         11    1    3    3    0    0 -0.31260736469E+02 -0.32458475925E+02  0.63417660736E+02  0.77798367574E+02  0.00000000000E+00 0.  1.
        -11    1    3    3    0    0  0.27366037229E+02  0.76912565743E+01  0.15565684844E+03  0.15823119126E+03  0.00000000000E+00 0. -1.
         22    1    1    2    0    0  0.38946992404E+01  0.24767219351E+02  0.87365346708E+02  0.90891625808E+02  0.00000000000E+00 0.  1.
<mgrwt>
<rscale>  0 0.64205772E+02</rscale>
<asrwt>0</asrwt>
<pdfrwt beam="1">  1        3 0.48720073E-01 0.87842541E+02</pdfrwt>
<pdfrwt beam="2">  1       -3 0.15754871E-02 0.87842541E+02</pdfrwt>
<totfact> 0.11827442E+04</totfact>
</mgrwt>
</event>
<event>
 6    1  0.1535419E-002  0.9252365E+02  0.7546771E-02  0.1381683E+00
         -2   -1    0    0    0  501 -0.00000000000E+00  0.00000000000E+00  0.27188063468E+03  0.27188063468E+03  0.00000000000E+00 0. -1.
          2   -1    0    0  501    0  0.00000000000E+00 -0.00000000000E+00 -0.13083928240E+02  0.13083928240E+02  0.00000000000E+00 0.  1.
         23    2    1    2    0    0 -0.13954898572E+02  0.15976559652E+02  0.16872444828E+03  0.19242807637E+03  0.90059066599E+02 0.  0.
         13    1    3    3    0    0 -0.16025277888E+02  0.37291598234E+02  0.26215424786E+02  0.48318954117E+02  0.00000000000E+00 0.  1.
        -13    1    3    3    0    0  0.20703793152E+01 -0.21315038582E+02  0.14250902349E+03  0.14410912225E+03  0.00000000000E+00 0. -1.
         22    1    1    2    0    0  0.13954898572E+02 -0.15976559652E+02  0.90072258160E+02  0.92536486547E+02  0.00000000000E+00 0. -1.
<mgrwt>
<rscale>  0 0.64023568E+02</rscale>
<asrwt>0</asrwt>
<pdfrwt beam="1">  1        2 0.20129122E-02 0.92523646E+02</pdfrwt>
<pdfrwt beam="2">  1       -2 0.41827786E-01 0.92523646E+02</pdfrwt>
<totfact> 0.25990541E+04</totfact>
</mgrwt>
</event>
<event>
 6    1  0.1535419E-002  0.9878754E+02  0.7546771E-02  0.1344165E+00
          2   -1    0    0  501    0  0.00000000000E+00  0.00000000000E+00  0.24893487116E+03  0.24893487116E+03  0.00000000000E+00 0. -1.
         -2   -1    0    0    0  501 -0.00000000000E+00 -0.00000000000E+00 -0.17464211873E+02  0.17464211873E+02  0.00000000000E+00 0.  1.
         23    2    1    2    0    0  0.31645746703E+02  0.80534415273E+01  0.18286997551E+03  0.20784707480E+03  0.93234475140E+02 0.  0.
         11    1    3    3    0    0  0.37618707519E+02 -0.34741519667E+02  0.12897979902E+03  0.13877294008E+03  0.00000000000E+00 0. -1.
        -11    1    3    3    0    0 -0.59729608159E+01  0.42794961194E+02  0.53890176488E+02  0.69074134713E+02  0.00000000000E+00 0.  1.
         22    1    1    2    0    0 -0.31645746703E+02 -0.80534415273E+01  0.48600683782E+02  0.58552008239E+02  0.00000000000E+00 0.  1.
<mgrwt>
<rscale>  0 0.74905228E+02</rscale>
<asrwt>0</asrwt>
<pdfrwt beam="1">  1        2 0.38297670E-01 0.98787543E+02</pdfrwt>
<pdfrwt beam="2">  1       -2 0.26868020E-02 0.98787543E+02</pdfrwt>
<totfact> 0.58772724E+04</totfact>
</mgrwt>
</event>
<event>
 6    1  0.1535419E-002  0.9484886E+02  0.7546771E-02  0.1364352E+00
         -2   -1    0    0    0  501 -0.00000000000E+00  0.00000000000E+00  0.86354417210E+01  0.86354417210E+01  0.00000000000E+00 0.  1.
          2   -1    0    0  501    0  0.00000000000E+00 -0.00000000000E+00 -0.49870283884E+03  0.49870283884E+03  0.00000000000E+00 0. -1.
         23    2    1    2    0    0 -0.20361160097E+02  0.16489568814E+02 -0.44679687326E+03  0.45675349080E+03  0.91158228828E+02 0.  0.
         13    1    3    3    0    0  0.21574855611E+02  0.40608758882E+02 -0.24090479776E+03  0.24525429105E+03  0.00000000000E+00 0.  1.
        -13    1    3    3    0    0 -0.41936015708E+02 -0.24119190068E+02 -0.20589207550E+03  0.21149919976E+03  0.00000000000E+00 0. -1.
         22    1    1    2    0    0  0.20361160097E+02 -0.16489568814E+02 -0.43270523861E+02  0.50584789763E+02  0.00000000000E+00 0.  1.
<mgrwt>
<rscale>  0 0.68762676E+02</rscale>
<asrwt>0</asrwt>
<pdfrwt beam="1">  1        2 0.76723555E-01 0.94848856E+02</pdfrwt>
<pdfrwt beam="2">  1       -2 0.13285288E-02 0.94848856E+02</pdfrwt>
<totfact> 0.77265294E+04</totfact>
</mgrwt>
</event>
<event>
 6    1  0.1535419E-002  0.9189577E+02  0.7546771E-02  0.1404310E+00
          1   -1    0    0  501    0  0.00000000000E+00  0.00000000000E+00  0.63169005259E+02  0.63169005259E+02  0.00000000000E+00 0. -1.
         -1   -1    0    0    0  501 -0.00000000000E+00 -0.00000000000E+00 -0.47241891918E+02  0.47241891918E+02  0.00000000000E+00 0.  1.
         23    2    1    2    0    0 -0.78019810110E-01 -0.15074079070E+02  0.21433824265E+02  0.94362289384E+02  0.90650972903E+02 0.  0.
         13    1    3    3    0    0  0.43124091495E+02 -0.92244932434E+01  0.24873077564E+02  0.50630509877E+02  0.00000000000E+00 0. -1.
        -13    1    3    3    0    0 -0.43202111305E+02 -0.58495858271E+01 -0.34392532984E+01  0.43731779507E+02  0.00000000000E+00 0.  1.
         22    1    1    2    0    0  0.78019810110E-01  0.15074079070E+02 -0.55067109238E+01  0.16048607794E+02  0.00000000000E+00 0.  1.
<mgrwt>
<rscale>  0 0.58483156E+02</rscale>
<asrwt>0</asrwt>
<pdfrwt beam="1">  1        1 0.97183085E-02 0.91895772E+02</pdfrwt>
<pdfrwt beam="2">  1       -1 0.72679834E-02 0.91895772E+02</pdfrwt>
<totfact> 0.57036040E+04</totfact>
</mgrwt>
</event>
<event>
 6    1  0.1535419E-002  0.1062940E+03  0.7546771E-02  0.1300766E+00
          2   -1    0    0  501    0  0.00000000000E+00  0.00000000000E+00  0.70979913511E+03  0.70979913511E+03  0.00000000000E+00 0. -1.
         -2   -1    0    0    0  501 -0.00000000000E+00 -0.00000000000E+00 -0.97214863435E+01  0.97214863435E+01  0.00000000000E+00 0.  1.
         23    2    1    2    0    0 -0.40829307828E+02 -0.39438852925E+02  0.51822711367E+03  0.52901583775E+03  0.89866343831E+02 0.  0.
         11    1    3    3    0    0  0.21970573644E+02 -0.13619060948E+02  0.28318858664E+03  0.28436589200E+03  0.00000000000E+00 0.  1.
        -11    1    3    3    0    0 -0.62799881473E+02 -0.25819791977E+02  0.23503852702E+03  0.24464994575E+03  0.00000000000E+00 0. -1.
         22    1    1    2    0    0  0.40829307828E+02  0.39438852925E+02  0.18185053510E+03  0.19050478370E+03  0.00000000000E+00 0.  1.
<mgrwt>
<rscale>  0 0.90866739E+02</rscale>
<asrwt>0</asrwt>
<pdfrwt beam="1">  1        2 0.10919983E+00 0.10629400E+03</pdfrwt>
<pdfrwt beam="2">  1       -2 0.14956138E-02 0.10629400E+03</pdfrwt>
<totfact> 0.44476966E+04</totfact>
</mgrwt>
</event>
<event>
 6    1  0.1535419E-002  0.9120194E+02  0.7546771E-02  0.1397229E+00
          4   -1    0    0  501    0  0.00000000000E+00  0.00000000000E+00  0.12318317080E+04  0.12318317080E+04  0.00000000000E+00 0. -1.
         -4   -1    0    0    0  501 -0.00000000000E+00 -0.00000000000E+00 -0.62249227801E+01  0.62249227801E+01  0.00000000000E+00 0.  1.
         23    2    1    2    0    0 -0.42418845651E+01  0.16718842060E+02  0.12136432604E+04  0.12170652232E+04  0.89556020506E+02 0.  0.
         13    1    3    3    0    0  0.83176688248E+01 -0.24157073335E+02  0.91698375195E+03  0.91733960405E+03  0.00000000000E+00 0. -1.
        -13    1    3    3    0    0 -0.12559553390E+02  0.40875915395E+02  0.29665950844E+03  0.29972561917E+03  0.00000000000E+00 0.  1.
         22    1    1    2    0    0  0.42418845651E+01 -0.16718842060E+02  0.11963524793E+02  0.20991407527E+02  0.00000000000E+00 0.  1.
<mgrwt>
<rscale>  0 0.60143868E+02</rscale>
<asrwt>0</asrwt>
<pdfrwt beam="1">  1        4 0.18951238E+00 0.91201941E+02</pdfrwt>
<pdfrwt beam="2">  1       -4 0.95768141E-03 0.91201941E+02</pdfrwt>
<totfact> 0.81735532E+02</totfact>
</mgrwt>
</event>
<event>
 6    1  0.1535419E-002  0.9917983E+02  0.7546771E-02  0.1362957E+00
         -2   -1    0    0    0  501 -0.00000000000E+00  0.00000000000E+00  0.17799843436E+02  0.17799843436E+02  0.00000000000E+00 0.  1.
          2   -1    0    0  501    0  0.00000000000E+00 -0.00000000000E+00 -0.41058553784E+03  0.41058553784E+03  0.00000000000E+00 0. -1.
         23    2    1    2    0    0  0.19382278708E+02 -0.13211412381E+02 -0.39259394873E+03  0.40492795363E+03  0.96366098338E+02 0.  0.
         11    1    3    3    0    0  0.29669669786E+02 -0.15555350406E+02 -0.39294563181E+03  0.39437105344E+03  0.00000000000E+00 0. -1.
        -11    1    3    3    0    0 -0.10287391079E+02  0.23439380242E+01  0.35168308300E+00  0.10556900192E+02  0.00000000000E+00 0.  1.
         22    1    1    2    0    0 -0.19382278708E+02  0.13211412381E+02 -0.19174567006E+00  0.23457427639E+02  0.00000000000E+00 0.  1.
<mgrwt>
<rscale>  0 0.69164620E+02</rscale>
<asrwt>0</asrwt>
<pdfrwt beam="1">  1        2 0.63167000E-01 0.99179832E+02</pdfrwt>
<pdfrwt beam="2">  1       -2 0.27384377E-02 0.99179832E+02</pdfrwt>
<totfact> 0.33809016E+04</totfact>
</mgrwt>
</event>
<event>
 6    1  0.1535419E-002  0.1009102E+03  0.7546771E-02  0.1355606E+00
          2   -1    0    0  501    0  0.00000000000E+00  0.00000000000E+00  0.18787377495E+03  0.18787377495E+03  0.00000000000E+00 0. -1.
         -2   -1    0    0    0  501 -0.00000000000E+00 -0.00000000000E+00 -0.22782676725E+02  0.22782676725E+02  0.00000000000E+00 0.  1.
         23    2    1    2    0    0  0.21892630651E+02 -0.12485034388E+02  0.15147860142E+03  0.18201271886E+03  0.97712331751E+02 0.  0.
         13    1    3    3    0    0 -0.10274240008E+01 -0.12597565495E+01 -0.14244016487E+02  0.14336477682E+02  0.00000000000E+00 0.  1.
        -13    1    3    3    0    0  0.22920054652E+02 -0.11225277839E+02  0.16572261791E+03  0.16767624118E+03  0.00000000000E+00 0. -1.
         22    1    1    2    0    0 -0.21892630651E+02  0.12485034388E+02  0.13612496800E+02  0.28643732816E+02  0.00000000000E+00 0.  1.
<mgrwt>
<rscale>  0 0.71336516E+02</rscale>
<asrwt>0</asrwt>
<pdfrwt beam="1">  1        2 0.28903657E-01 0.10091017E+03</pdfrwt>
<pdfrwt beam="2">  1       -2 0.35050273E-02 0.10091017E+03</pdfrwt>
<totfact> 0.53956813E+04</totfact>
</mgrwt>
</event>
<event>
 6    1  0.1535419E-002  0.9982417E+02  0.7546771E-02  0.1333624E+00
         -2   -1    0    0    0  501 -0.00000000000E+00  0.00000000000E+00  0.29063149487E+02  0.29063149487E+02  0.00000000000E+00 0.  1.
          2   -1    0    0  501    0  0.00000000000E+00 -0.00000000000E+00 -0.27226318990E+03  0.27226318990E+03  0.00000000000E+00 0. -1.
         23    2    1    2    0    0 -0.35629455499E+02  0.13211864086E+02 -0.24366841663E+03  0.26332330230E+03  0.92308465596E+02 0.  0.
         13    1    3    3    0    0 -0.36721045528E+01  0.50524816492E+02 -0.12735274849E+03  0.13705825032E+03  0.00000000000E+00 0.  1.
        -13    1    3    3    0    0 -0.31957350947E+02 -0.37312952406E+02 -0.11631566813E+03  0.12626505197E+03  0.00000000000E+00 0. -1.
         22    1    1    2    0    0  0.35629455499E+02 -0.13211864086E+02  0.46837621150E+00  0.38003037090E+02  0.00000000000E+00 0.  1.
<mgrwt>
<rscale>  0 0.78410297E+02</rscale>
<asrwt>0</asrwt>
<pdfrwt beam="1">  1        2 0.41886645E-01 0.99824167E+02</pdfrwt>
<pdfrwt beam="2">  1       -2 0.44712538E-02 0.99824167E+02</pdfrwt>
<totfact> 0.25385365E+04</totfact>
</mgrwt>
</event>
<event>
 6    1  0.1535419E-002  0.9168741E+02  0.7546771E-02  0.1394950E+00
         -2   -1    0    0    0  501 -0.00000000000E+00  0.00000000000E+00  0.53265950632E+01  0.53265950632E+01  0.00000000000E+00 0.  1.
          2   -1    0    0  501    0  0.00000000000E+00 -0.00000000000E+00 -0.64591364265E+03  0.64591364265E+03  0.00000000000E+00 0. -1.
         23    2    1    2    0    0 -0.30919474853E+01  0.17329758453E+02 -0.60048688544E+03  0.60744636061E+03  0.89981669073E+02 0.  0.
         11    1    3    3    0    0  0.36656079301E+02  0.53775891260E+01 -0.13129003564E+03  0.13641722792E+03  0.00000000000E+00 0.  1.
        -11    1    3    3    0    0 -0.39748026786E+02  0.11952169327E+02 -0.46919684980E+03  0.47102913269E+03  0.00000000000E+00 0. -1.
         22    1    1    2    0    0  0.30919474853E+01 -0.17329758453E+02 -0.40100162149E+02  0.43793877103E+02  0.00000000000E+00 0.  1.
<mgrwt>
<rscale>  0 0.60692020E+02</rscale>
<asrwt>0</asrwt>
<pdfrwt beam="1">  1        2 0.99371271E-01 0.91687412E+02</pdfrwt>
<pdfrwt beam="2">  1       -2 0.81947665E-03 0.91687412E+02</pdfrwt>
<totfact> 0.11453462E+05</totfact>
</mgrwt>
</event>
<event>
 6    1  0.1535419E-002  0.9571159E+02  0.7546771E-02  0.1355224E+00
          2   -1    0    0  501    0  0.00000000000E+00  0.00000000000E+00  0.17679983603E+04  0.17679983603E+04  0.00000000000E+00 0. -1.
         -2   -1    0    0    0  501 -0.00000000000E+00 -0.00000000000E+00 -0.35687573548E+01  0.35687573548E+01  0.00000000000E+00 0.  1.
         23    2    1    2    0    0 -0.20751818373E+02  0.21286073114E+02  0.16659816594E+04  0.16687287373E+04  0.90977879413E+02 0.  0.
         13    1    3    3    0    0 -0.43952981159E+01 -0.54157940485E+01  0.14878115278E+04  0.14878278770E+04  0.00000000000E+00 0. -1.
        -13    1    3    3    0    0 -0.16356520257E+02  0.26701867163E+02  0.17817013160E+03  0.18090086030E+03  0.00000000000E+00 0.  1.
         22    1    1    2    0    0  0.20751818373E+02 -0.21286073114E+02  0.98447943546E+02  0.10283838030E+03  0.00000000000E+00 0.  1.
<mgrwt>
<rscale>  0 0.71451881E+02</rscale>
<asrwt>0</asrwt>
<pdfrwt beam="1">  1        2 0.27199905E+00 0.95711595E+02</pdfrwt>
<pdfrwt beam="2">  1       -2 0.54904101E-03 0.95711595E+02</pdfrwt>
<totfact> 0.46359024E+04</totfact>
</mgrwt>
</event>
<event>
 6    1  0.1535419E-002  0.9422801E+02  0.7546771E-02  0.1385543E+00
          2   -1    0    0  501    0  0.00000000000E+00  0.00000000000E+00  0.22414755960E+03  0.22414755960E+03  0.00000000000E+00 0. -1.
         -2   -1    0    0    0  501 -0.00000000000E+00 -0.00000000000E+00 -0.20942439258E+02  0.20942439258E+02  0.00000000000E+00 0.  1.
         23    2    1    2    0    0 -0.14726020740E+02 -0.11788786327E+02  0.20551364804E+03  0.22608577643E+03  0.92320569771E+02 0.  0.
         13    1    3    3    0    0 -0.51180098963E+02 -0.22129111847E+02  0.10986334156E+03  0.12320330329E+03  0.00000000000E+00 0.  1.
        -13    1    3    3    0    0  0.36454078223E+02  0.10340325520E+02  0.95650306478E+02  0.10288247314E+03  0.00000000000E+00 0. -1.
         22    1    1    2    0    0  0.14726020740E+02  0.11788786327E+02 -0.23085277004E+01  0.19004222427E+02  0.00000000000E+00 0.  1.
<mgrwt>
<rscale>  0 0.63029016E+02</rscale>
<asrwt>0</asrwt>
<pdfrwt beam="1">  1        2 0.34484238E-01 0.94228015E+02</pdfrwt>
<pdfrwt beam="2">  1       -2 0.32219139E-02 0.94228015E+02</pdfrwt>
<totfact> 0.50097803E+04</totfact>
</mgrwt>
</event>
<event>
 6    1  0.1535419E-002  0.9544823E+02  0.7546771E-02  0.1355269E+00
          2   -1    0    0  501    0  0.00000000000E+00  0.00000000000E+00  0.46516752413E+02  0.46516752413E+02  0.00000000000E+00 0.  1.
         -2   -1    0    0    0  501 -0.00000000000E+00 -0.00000000000E+00 -0.84961793431E+02  0.84961793431E+02  0.00000000000E+00 0. -1.
         23    2    1    2    0    0  0.16579363117E+01  0.29905930356E+02 -0.33285467401E+02  0.10108554298E+03  0.90626989555E+02 0.  0.
         11    1    3    3    0    0  0.14346524582E+02  0.18782136912E+02 -0.62793147469E+02  0.67093746382E+02  0.00000000000E+00 0. -1.
        -11    1    3    3    0    0 -0.12688588270E+02  0.11123793445E+02  0.29507680067E+02  0.33991796596E+02  0.00000000000E+00 0.  1.
         22    1    1    2    0    0 -0.16579363117E+01 -0.29905930356E+02 -0.51595736170E+01  0.30393002865E+02  0.00000000000E+00 0.  1.
<mgrwt>
<rscale>  0 0.71438418E+02</rscale>
<asrwt>0</asrwt>
<pdfrwt beam="1">  1        2 0.71564235E-02 0.95448230E+02</pdfrwt>
<pdfrwt beam="2">  1       -2 0.13071045E-01 0.95448230E+02</pdfrwt>
<totfact> 0.36847922E+04</totfact>
</mgrwt>
</event>
<event>
 6    1  0.1535419E-002  0.9411230E+02  0.7546771E-02  0.1364524E+00
         -2   -1    0    0    0  501 -0.00000000000E+00  0.00000000000E+00  0.33021063400E+01  0.33021063400E+01  0.00000000000E+00 0.  1.
          2   -1    0    0  501    0  0.00000000000E+00 -0.00000000000E+00 -0.13547174040E+04  0.13547174040E+04  0.00000000000E+00 0. -1.
         23    2    1    2    0    0  0.22360266562E+02  0.14671285129E+02 -0.12346044541E+04  0.12381862875E+04  0.90232456968E+02 0.  0.
         13    1    3    3    0    0  0.56878123667E+02  0.13060167346E+02 -0.86672994284E+03  0.86869239823E+03  0.00000000000E+00 0. -1.
        -13    1    3    3    0    0 -0.34517857105E+02  0.16111177825E+01 -0.36787451123E+03  0.36949388922E+03  0.00000000000E+00 0.  1.
         22    1    1    2    0    0 -0.22360266562E+02 -0.14671285129E+02 -0.11681084358E+03  0.11983322288E+03  0.00000000000E+00 0.  1.
<mgrwt>
<rscale>  0 0.68713228E+02</rscale>
<asrwt>0</asrwt>
<pdfrwt beam="1">  1        2 0.20841792E+00 0.94112297E+02</pdfrwt>
<pdfrwt beam="2">  1       -2 0.50801672E-03 0.94112297E+02</pdfrwt>
<totfact> 0.83870363E+04</totfact>
</mgrwt>
</event>
<event>
 6    1  0.1535419E-002  0.9238918E+02  0.7546771E-02  0.1402643E+00
         -2   -1    0    0    0  501 -0.00000000000E+00  0.00000000000E+00  0.36927684571E+02  0.36927684571E+02  0.00000000000E+00 0. -1.
          2   -1    0    0  501    0  0.00000000000E+00 -0.00000000000E+00 -0.10897400749E+03  0.10897400749E+03  0.00000000000E+00 0.  1.
         23    2    1    2    0    0  0.13945706889E+02 -0.61183217610E+01 -0.85276007348E+02  0.12572890961E+03  0.91125433772E+02 0.  0.
         13    1    3    3    0    0 -0.59902197760E+01 -0.46444838614E+02 -0.36485988360E+02  0.59365251734E+02  0.00000000000E+00 0. -1.
        -13    1    3    3    0    0  0.19935926665E+02  0.40326516853E+02 -0.48790018988E+02  0.66363657873E+02  0.00000000000E+00 0.  1.
         22    1    1    2    0    0 -0.13945706889E+02  0.61183217610E+01  0.13229684429E+02  0.20172782454E+02  0.00000000000E+00 0. -1.
<mgrwt>
<rscale>  0 0.58868413E+02</rscale>
<asrwt>0</asrwt>
<pdfrwt beam="1">  1        2 0.16765232E-01 0.92389184E+02</pdfrwt>
<pdfrwt beam="2">  1       -2 0.56811823E-02 0.92389184E+02</pdfrwt>
<totfact> 0.47690847E+04</totfact>
</mgrwt>
</event>
<event>
 6    1  0.1535419E-002  0.1003481E+03  0.7546771E-02  0.1316735E+00
         -2   -1    0    0    0  501 -0.00000000000E+00  0.00000000000E+00  0.21740811508E+02  0.21740811508E+02  0.00000000000E+00 0.  1.
          2   -1    0    0  501    0  0.00000000000E+00 -0.00000000000E+00 -0.30183354661E+03  0.30183354661E+03  0.00000000000E+00 0. -1.
         23    2    1    2    0    0 -0.50352306305E+02  0.33573623233E+01 -0.23642623688E+03  0.25684063577E+03  0.86735921412E+02 0.  0.
         11    1    3    3    0    0 -0.26399069581E+02 -0.19017511873E+02 -0.21552235533E+03  0.21796436011E+03  0.00000000000E+00 0. -1.
        -11    1    3    3    0    0 -0.23953236725E+02  0.22374874196E+02 -0.20903881554E+02  0.38876275656E+02  0.00000000000E+00 0.  1.
         22    1    1    2    0    0  0.50352306305E+02 -0.33573623233E+01 -0.43666498224E+02  0.66733722353E+02  0.00000000000E+00 0.  1.
<mgrwt>
<rscale>  0 0.84504068E+02</rscale>
<asrwt>0</asrwt>
<pdfrwt beam="1">  1        2 0.46435933E-01 0.10034813E+03</pdfrwt>
<pdfrwt beam="2">  1       -2 0.33447401E-02 0.10034813E+03</pdfrwt>
<totfact> 0.34952198E+04</totfact>
</mgrwt>
</event>
<event>
 6    1  0.1535419E-002  0.1024452E+03  0.7546771E-02  0.1320375E+00
         -2   -1    0    0    0  501 -0.00000000000E+00  0.00000000000E+00  0.84322944725E+01  0.84322944725E+01  0.00000000000E+00 0.  1.
          2   -1    0    0  501    0  0.00000000000E+00 -0.00000000000E+00 -0.17132761578E+04  0.17132761578E+04  0.00000000000E+00 0. -1.
         23    2    1    2    0    0  0.28513620482E+02 -0.34079678669E+02 -0.16394426273E+04  0.16426402999E+04  0.92306963204E+02 0.  0.
         13    1    3    3    0    0 -0.79179000515E+01 -0.55436689947E+02 -0.69428737530E+03  0.69654208720E+03  0.00000000000E+00 0.  1.
        -13    1    3    3    0    0  0.36431520533E+02  0.21357011278E+02 -0.94515525202E+03  0.94609821268E+03  0.00000000000E+00 0. -1.
         22    1    1    2    0    0 -0.28513620482E+02  0.34079678669E+02 -0.65401235982E+02  0.79068152370E+02  0.00000000000E+00 0.  1.
<mgrwt>
<rscale>  0 0.83138010E+02</rscale>
<asrwt>0</asrwt>
<pdfrwt beam="1">  1        2 0.26358077E+00 0.10244524E+03</pdfrwt>
<pdfrwt beam="2">  1       -2 0.12972769E-02 0.10244524E+03</pdfrwt>
<totfact> 0.14699912E+04</totfact>
</mgrwt>
</event>
<event>
 6    1  0.1535419E-002  0.9047139E+02  0.7546771E-02  0.1423916E+00
          4   -1    0    0  501    0  0.00000000000E+00  0.00000000000E+00  0.11238825444E+03  0.11238825444E+03  0.00000000000E+00 0. -1.
         -4   -1    0    0    0  501 -0.00000000000E+00 -0.00000000000E+00 -0.25568691199E+02  0.25568691199E+02  0.00000000000E+00 0.  1.
         23    2    1    2    0    0 -0.43342400934E+01  0.10818514374E+02  0.88040573936E+02  0.12623872233E+03  0.89717592849E+02 0.  0.
         13    1    3    3    0    0  0.40588207552E+02 -0.73367514602E+01  0.32336722464E+02  0.52410820772E+02  0.00000000000E+00 0.  1.
        -13    1    3    3    0    0 -0.44922447645E+02  0.18155265834E+02  0.55703851472E+02  0.73827901560E+02  0.00000000000E+00 0. -1.
         22    1    1    2    0    0  0.43342400934E+01 -0.10818514374E+02 -0.12210106916E+01  0.11718223311E+02  0.00000000000E+00 0.  1.
<mgrwt>
<rscale>  0 0.54200871E+02</rscale>
<asrwt>0</asrwt>
<pdfrwt beam="1">  1        4 0.17290500E-01 0.90471390E+02</pdfrwt>
<pdfrwt beam="2">  1       -4 0.39336449E-02 0.90471390E+02</pdfrwt>
<totfact> 0.14840890E+04</totfact>
</mgrwt>
</event>
<event>
 6    1  0.1535419E-002  0.1262614E+03  0.7546771E-02  0.1352004E+00
         -2   -1    0    0    0  501 -0.00000000000E+00  0.00000000000E+00  0.12378420787E+02  0.12378420787E+02  0.00000000000E+00 0.  1.
          2   -1    0    0  501    0  0.00000000000E+00 -0.00000000000E+00 -0.41647807549E+03  0.41647807549E+03  0.00000000000E+00 0. -1.
         23    2    1    2    0    0 -0.11362759479E+02 -0.76114537205E+01 -0.38629173414E+03  0.40640279802E+03  0.12551846016E+03 0.  0.
         13    1    3    3    0    0  0.52906072709E+02  0.16919359409E+02 -0.13804506231E+03  0.14880106344E+03  0.00000000000E+00 0.  1.
        -13    1    3    3    0    0 -0.64268832188E+02 -0.24530813130E+02 -0.24824667183E+03  0.25760173458E+03  0.00000000000E+00 0. -1.
         22    1    1    2    0    0  0.11362759479E+02  0.76114537205E+01 -0.17807920559E+02  0.22453698256E+02  0.00000000000E+00 0. -1.
<mgrwt>
<rscale>  0 0.72434680E+02</rscale>
<asrwt>0</asrwt>
<pdfrwt beam="1">  1        2 0.64073559E-01 0.12626136E+03</pdfrwt>
<pdfrwt beam="2">  1       -2 0.19043722E-02 0.12626136E+03</pdfrwt>
<totfact> 0.57987604E+04</totfact>
</mgrwt>
</event>
<event>
 6    1  0.1535419E-002  0.1007224E+03  0.7546771E-02  0.1341897E+00
          2   -1    0    0  501    0  0.00000000000E+00  0.00000000000E+00  0.58526924968E+02  0.58526924968E+02  0.00000000000E+00 0. -1.
         -2   -1    0    0    0  501 -0.00000000000E+00 -0.00000000000E+00 -0.78874867445E+02  0.78874867445E+02  0.00000000000E+00 0.  1.
         23    2    1    2    0    0  0.18517626428E+02  0.26143411636E+02 -0.27842316406E+02  0.10449972407E+03  0.95491451387E+02 0.  0.
         11    1    3    3    0    0 -0.14439011288E+02  0.54978485305E+02 -0.13545827636E+02  0.58434650164E+02  0.00000000000E+00 0.  1.
        -11    1    3    3    0    0  0.32956637716E+02 -0.28835073670E+02 -0.14296488770E+02  0.46065073909E+02  0.00000000000E+00 0. -1.
         22    1    1    2    0    0 -0.18517626428E+02 -0.26143411636E+02  0.74943739284E+01  0.32902068340E+02  0.00000000000E+00 0. -1.
<mgrwt>
<rscale>  0 0.75641134E+02</rscale>
<asrwt>0</asrwt>
<pdfrwt beam="1">  1        2 0.90041423E-02 0.10072238E+03</pdfrwt>
<pdfrwt beam="2">  1       -2 0.12134595E-01 0.10072238E+03</pdfrwt>
<totfact> 0.31392668E+04</totfact>
</mgrwt>
</event>
<event>
 6    1  0.1535419E-002  0.9836567E+02  0.7546771E-02  0.1334823E+00
          2   -1    0    0  501    0  0.00000000000E+00  0.00000000000E+00  0.16035006351E+04  0.16035006351E+04  0.00000000000E+00 0.  1.
         -2   -1    0    0    0  501 -0.00000000000E+00 -0.00000000000E+00 -0.48280348093E+01  0.48280348093E+01  0.00000000000E+00 0. -1.
         23    2    1    2    0    0  0.16525235545E+02 -0.35206906854E+02  0.14836790604E+04  0.14869362322E+04  0.90350400469E+02 0.  0.
         11    1    3    3    0    0 -0.23903484872E+01 -0.11139401256E+02  0.20629120623E+02  0.23566090976E+02  0.00000000000E+00 0. -1.
        -11    1    3    3    0    0  0.18915584033E+02 -0.24067505598E+02  0.14630499397E+04  0.14633701413E+04  0.00000000000E+00 0.  1.
         22    1    1    2    0    0 -0.16525235545E+02  0.35206906854E+02  0.11499353993E+03  0.12139243768E+03  0.00000000000E+00 0. -1.
<mgrwt>
<rscale>  0 0.78000703E+02</rscale>
<asrwt>0</asrwt>
<pdfrwt beam="1">  1        2 0.24669198E+00 0.98365668E+02</pdfrwt>
<pdfrwt beam="2">  1       -2 0.74277587E-03 0.98365668E+02</pdfrwt>
<totfact> 0.36757479E+04</totfact>
</mgrwt>
</event>
<event>
 6    1  0.1535419E-002  0.9838284E+02  0.7546771E-02  0.1332997E+00
          1   -1    0    0  501    0  0.00000000000E+00  0.00000000000E+00  0.81083481381E+03  0.81083481381E+03  0.00000000000E+00 0. -1.
         -1   -1    0    0    0  501 -0.00000000000E+00 -0.00000000000E+00 -0.96567509193E+01  0.96567509193E+01  0.00000000000E+00 0.  1.
         23    2    1    2    0    0 -0.17870808790E+02 -0.35934987310E+02  0.74490147751E+03  0.75137034381E+03  0.89824791873E+02 0.  0.
         11    1    3    3    0    0 -0.29956856018E+02 -0.61480724103E+02  0.45762749096E+03  0.46270964237E+03  0.00000000000E+00 0. -1.
        -11    1    3    3    0    0  0.12086047228E+02  0.25545736793E+02  0.28727398655E+03  0.28866070144E+03  0.00000000000E+00 0.  1.
         22    1    1    2    0    0  0.17870808790E+02  0.35934987310E+02  0.56276585380E+02  0.69121220922E+02  0.00000000000E+00 0.  1.
<mgrwt>
<rscale>  0 0.78625961E+02</rscale>
<asrwt>0</asrwt>
<pdfrwt beam="1">  1        1 0.12474376E+00 0.98382836E+02</pdfrwt>
<pdfrwt beam="2">  1       -1 0.14856546E-02 0.98382836E+02</pdfrwt>
<totfact> 0.22009119E+04</totfact>
</mgrwt>
</event>
<event>
 6    1  0.1535419E-002  0.9384960E+02  0.7546771E-02  0.1376758E+00
          4   -1    0    0  501    0  0.00000000000E+00  0.00000000000E+00  0.48759849010E+03  0.48759849010E+03  0.00000000000E+00 0. -1.
         -4   -1    0    0    0  501 -0.00000000000E+00 -0.00000000000E+00 -0.25710175014E+02  0.25710175014E+02  0.00000000000E+00 0.  1.
         23    2    1    2    0    0 -0.19501084930E+02  0.10245366414E+02  0.47729032354E+03  0.48642964521E+03  0.91227665501E+02 0.  0.
         13    1    3    3    0    0 -0.56163379104E+02  0.10754403827E+02  0.29092473441E+03  0.29649145594E+03  0.00000000000E+00 0. -1.
        -13    1    3    3    0    0  0.36662294174E+02 -0.50903741304E+00  0.18636558912E+03  0.18993818927E+03  0.00000000000E+00 0.  1.
         22    1    1    2    0    0  0.19501084930E+02 -0.10245366414E+02 -0.15402008453E+02  0.26879019900E+02  0.00000000000E+00 0.  1.
<mgrwt>
<rscale>  0 0.65323749E+02</rscale>
<asrwt>0</asrwt>
<pdfrwt beam="1">  1        4 0.75015145E-01 0.93849597E+02</pdfrwt>
<pdfrwt beam="2">  1       -4 0.39554119E-02 0.93849597E+02</pdfrwt>
<totfact> 0.86898321E+02</totfact>
</mgrwt>
</event>
<event>
 6    1  0.1535419E-002  0.9256907E+02  0.7546771E-02  0.1427695E+00
          1   -1    0    0  501    0  0.00000000000E+00  0.00000000000E+00  0.19541091769E+04  0.19541091769E+04  0.00000000000E+00 0. -1.
         -1   -1    0    0    0  501 -0.00000000000E+00 -0.00000000000E+00 -0.35154264798E+01  0.35154264798E+01  0.00000000000E+00 0.  1.
         23    2    1    2    0    0 -0.10171217590E+02 -0.14253589702E+01  0.19420777665E+04  0.19442826658E+04  0.91997544654E+02 0.  0.
         11    1    3    3    0    0 -0.84708046238E+00  0.30909619041E+02  0.16473019428E+04  0.16475921257E+04  0.00000000000E+00 0. -1.
        -11    1    3    3    0    0 -0.93241371273E+01 -0.32334978011E+02  0.29477582369E+03  0.29669054007E+03  0.00000000000E+00 0.  1.
         22    1    1    2    0    0  0.10171217590E+02  0.14253589702E+01  0.85159839372E+01  0.13341937561E+02  0.00000000000E+00 0.  1.
<mgrwt>
<rscale>  0 0.53425481E+02</rscale>
<asrwt>0</asrwt>
<pdfrwt beam="1">  1        1 0.30063131E+00 0.92569074E+02</pdfrwt>
<pdfrwt beam="2">  1       -1 0.54083641E-03 0.92569074E+02</pdfrwt>
<totfact> 0.15653865E+04</totfact>
</mgrwt>
</event>
<event>
 6    1  0.1535419E-002  0.8104848E+02  0.7546771E-02  0.1433116E+00
          2   -1    0    0  501    0  0.00000000000E+00  0.00000000000E+00  0.13708047688E+04  0.13708047688E+04  0.00000000000E+00 0. -1.
         -2   -1    0    0    0  501 -0.00000000000E+00 -0.00000000000E+00 -0.76224349883E+01  0.76224349883E+01  0.00000000000E+00 0.  1.
         23    2    1    2    0    0 -0.10541393877E+02  0.93577042809E+01  0.13618600717E+04  0.13642696620E+04  0.79813333183E+02 0.  0.
         13    1    3    3    0    0  0.26785000296E+02 -0.43509419423E+01  0.21299483147E+03  0.21471647624E+03  0.00000000000E+00 0.  1.
        -13    1    3    3    0    0 -0.37326394173E+02  0.13708646223E+02  0.11488652402E+04  0.11495531857E+04  0.00000000000E+00 0. -1.
         22    1    1    2    0    0  0.10541393877E+02 -0.93577042809E+01  0.13222621874E+01  0.14157541862E+02  0.00000000000E+00 0.  1.
<mgrwt>
<rscale>  0 0.52339551E+02</rscale>
<asrwt>0</asrwt>
<pdfrwt beam="1">  1        2 0.21089285E+00 0.81048478E+02</pdfrwt>
<pdfrwt beam="2">  1       -2 0.11726834E-02 0.81048478E+02</pdfrwt>
<totfact> 0.24952552E+04</totfact>
</mgrwt>
</event>
<event>
 6    1  0.1535419E-002  0.9942588E+02  0.7546771E-02  0.1401251E+00
         -4   -1    0    0    0  501 -0.00000000000E+00  0.00000000000E+00  0.15786100773E+03  0.15786100773E+03  0.00000000000E+00 0.  1.
          4   -1    0    0  501    0  0.00000000000E+00 -0.00000000000E+00 -0.26349115601E+02  0.26349115601E+02  0.00000000000E+00 0. -1.
         23    2    1    2    0    0 -0.55422008442E+01 -0.11193542739E+02  0.70378906421E+02  0.12181418331E+03  0.98638194415E+02 0.  0.
         13    1    3    3    0    0  0.40163240140E+02 -0.16856157507E+02  0.80155312677E+01  0.44288425643E+02  0.00000000000E+00 0. -1.
        -13    1    3    3    0    0 -0.45705440984E+02  0.56626147674E+01  0.62363375153E+02  0.77525757668E+02  0.00000000000E+00 0.  1.
         22    1    1    2    0    0  0.55422008442E+01  0.11193542739E+02  0.61132985705E+02  0.62395940016E+02  0.00000000000E+00 0.  1.
<mgrwt>
<rscale>  0 0.59192830E+02</rscale>
<asrwt>0</asrwt>
<pdfrwt beam="1">  1        4 0.40537102E-02 0.99425876E+02</pdfrwt>
<pdfrwt beam="2">  1       -4 0.24286308E-01 0.99425876E+02</pdfrwt>
<totfact> 0.79214704E+03</totfact>
</mgrwt>
</event>
<event>
 6    1  0.1535419E-002  0.1246543E+03  0.7546771E-02  0.1305046E+00
          2   -1    0    0  501    0  0.00000000000E+00  0.00000000000E+00  0.28079003841E+02  0.28079003841E+02  0.00000000000E+00 0. -1.
         -2   -1    0    0    0  501 -0.00000000000E+00 -0.00000000000E+00 -0.22173064429E+03  0.22173064429E+03  0.00000000000E+00 0.  1.
         23    2    1    2    0    0 -0.11883498011E+02 -0.30290317985E+02 -0.14416114315E+03  0.19058102151E+03  0.12033274565E+03 0.  0.
         13    1    3    3    0    0 -0.61766741554E+02 -0.26665097489E+02 -0.11342602018E+03  0.13187729084E+03  0.00000000000E+00 0.  1.
        -13    1    3    3    0    0  0.49883243543E+02 -0.36252204958E+01 -0.30735122967E+02  0.58703730663E+02  0.00000000000E+00 0. -1.
         22    1    1    2    0    0  0.11883498011E+02  0.30290317985E+02 -0.49490497299E+02  0.59228626622E+02  0.00000000000E+00 0.  1.
<mgrwt>
<rscale>  0 0.89100080E+02</rscale>
<asrwt>0</asrwt>
<pdfrwt beam="1">  1        2 0.43198468E-02 0.12465428E+03</pdfrwt>
<pdfrwt beam="2">  1       -2 0.34112406E-01 0.12465428E+03</pdfrwt>
<totfact> 0.14215950E+04</totfact>
</mgrwt>
</event>
<event>
 6    1  0.1535419E-002  0.9408782E+02  0.7546771E-02  0.1386836E+00
          4   -1    0    0  501    0  0.00000000000E+00  0.00000000000E+00  0.51137488409E+02  0.51137488409E+02  0.00000000000E+00 0. -1.
         -4   -1    0    0    0  501 -0.00000000000E+00 -0.00000000000E+00 -0.62539137152E+02  0.62539137152E+02  0.00000000000E+00 0.  1.
         23    2    1    2    0    0 -0.15405555560E+02 -0.10343549973E+02 -0.56819460951E+01  0.94259232158E+02  0.92239894663E+02 0.  0.
         11    1    3    3    0    0 -0.29621685515E+01  0.39357609323E+02  0.99288287284E+01  0.40698617840E+02  0.00000000000E+00 0.  1.
        -11    1    3    3    0    0 -0.12443387009E+02 -0.49701159296E+02 -0.15610774824E+02  0.53560614319E+02  0.00000000000E+00 0. -1.
         22    1    1    2    0    0  0.15405555560E+02  0.10343549973E+02 -0.57197026474E+01  0.19417393402E+02  0.00000000000E+00 0. -1.
<mgrwt>
<rscale>  0 0.62700409E+02</rscale>
<asrwt>0</asrwt>
<pdfrwt beam="1">  1        4 0.78673059E-02 0.94087822E+02</pdfrwt>
<pdfrwt beam="2">  1       -4 0.96214057E-02 0.94087822E+02</pdfrwt>
<totfact> 0.13436264E+04</totfact>
</mgrwt>
</event>
<event>
 6    1  0.1535419E-002  0.9056631E+02  0.7546771E-02  0.1415928E+00
          4   -1    0    0  501    0  0.00000000000E+00  0.00000000000E+00  0.50587450552E+02  0.50587450552E+02  0.00000000000E+00 0. -1.
         -4   -1    0    0    0  501 -0.00000000000E+00 -0.00000000000E+00 -0.61998675461E+02  0.61998675461E+02  0.00000000000E+00 0.  1.
         23    2    1    2    0    0  0.10150318461E+02  0.83396661116E+01  0.60116341649E+01  0.90765607825E+02  0.89608464013E+02 0.  0.
         13    1    3    3    0    0 -0.12530285607E+02  0.39004775105E+02 -0.18995207865E+02  0.45157485097E+02  0.00000000000E+00 0.  1.
        -13    1    3    3    0    0  0.22680604068E+02 -0.30665108994E+02  0.25006842030E+02  0.45608122728E+02  0.00000000000E+00 0. -1.
         22    1    1    2    0    0 -0.10150318461E+02 -0.83396661116E+01 -0.17422859074E+02  0.21820518189E+02  0.00000000000E+00 0.  1.
<mgrwt>
<rscale>  0 0.55891850E+02</rscale>
<asrwt>0</asrwt>
<pdfrwt beam="1">  1        4 0.77826847E-02 0.90566306E+02</pdfrwt>
<pdfrwt beam="2">  1       -4 0.95382578E-02 0.90566306E+02</pdfrwt>
<totfact> 0.13717000E+04</totfact>
</mgrwt>
</event>
<event>
 6    1  0.1535419E-002  0.9167184E+02  0.7546771E-02  0.1424438E+00
         -2   -1    0    0    0  501 -0.00000000000E+00  0.00000000000E+00  0.37941958871E+01  0.37941958871E+01  0.00000000000E+00 0.  1.
          2   -1    0    0  501    0  0.00000000000E+00 -0.00000000000E+00 -0.79687123696E+03  0.79687123696E+03  0.00000000000E+00 0. -1.
         23    2    1    2    0    0  0.69973599384E+01 -0.86341549219E+01 -0.76493366183E+03  0.77040718650E+03  0.90995682968E+02 0.  0.
         13    1    3    3    0    0  0.39664654801E+02 -0.84707108104E+01 -0.63964695946E+03  0.64093156462E+03  0.00000000000E+00 0. -1.
        -13    1    3    3    0    0 -0.32667294863E+02 -0.16344411155E+00 -0.12528670237E+03  0.12947562187E+03  0.00000000000E+00 0.  1.
         22    1    1    2    0    0 -0.69973599384E+01  0.86341549219E+01 -0.28143379236E+02  0.30258246350E+02  0.00000000000E+00 0.  1.
<mgrwt>
<rscale>  0 0.54092924E+02</rscale>
<asrwt>0</asrwt>
<pdfrwt beam="1">  1        2 0.12259567E+00 0.91671839E+02</pdfrwt>
<pdfrwt beam="2">  1       -2 0.58372197E-03 0.91671839E+02</pdfrwt>
<totfact> 0.14418425E+05</totfact>
</mgrwt>
</event>
<event>
 6    1  0.1535419E-002  0.9323605E+02  0.7546771E-02  0.1417386E+00
          2   -1    0    0  501    0  0.00000000000E+00  0.00000000000E+00  0.40088823670E+02  0.40088823670E+02  0.00000000000E+00 0. -1.
         -2   -1    0    0    0  501 -0.00000000000E+00 -0.00000000000E+00 -0.87180431718E+02  0.87180431718E+02  0.00000000000E+00 0.  1.
         23    2    1    2    0    0  0.11437079399E+02 -0.27881899815E+01 -0.16756206994E+02  0.94729781734E+02  0.92489892886E+02 0.  0.
         13    1    3    3    0    0  0.26379612075E+02 -0.25620286848E+02  0.25272155836E+02  0.44620229628E+02  0.00000000000E+00 0. -1.
        -13    1    3    3    0    0 -0.14942532676E+02  0.22832096867E+02 -0.42028362830E+02  0.50109552106E+02  0.00000000000E+00 0.  1.
         22    1    1    2    0    0 -0.11437079399E+02  0.27881899815E+01 -0.30335401055E+02  0.32539473654E+02  0.00000000000E+00 0.  1.
<mgrwt>
<rscale>  0 0.55577727E+02</rscale>
<asrwt>0</asrwt>
<pdfrwt beam="1">  1        2 0.61675113E-02 0.93236050E+02</pdfrwt>
<pdfrwt beam="2">  1       -2 0.13412374E-01 0.93236050E+02</pdfrwt>
<totfact> 0.42532161E+04</totfact>
</mgrwt>
</event>
<event>
 6    1  0.1535419E-002  0.8670126E+02  0.7546771E-02  0.1410144E+00
         -2   -1    0    0    0  501 -0.00000000000E+00  0.00000000000E+00  0.45409435336E+01  0.45409435336E+01  0.00000000000E+00 0.  1.
          2   -1    0    0  501    0  0.00000000000E+00 -0.00000000000E+00 -0.63148182936E+03  0.63148182936E+03  0.00000000000E+00 0. -1.
         23    2    1    2    0    0 -0.96522308878E+01 -0.13235441802E+02 -0.57664316843E+03  0.58312473081E+03  0.85139682327E+02 0.  0.
         13    1    3    3    0    0  0.17548017445E+02 -0.79956916807E+01 -0.51703686879E+03  0.51739635454E+03  0.00000000000E+00 0. -1.
        -13    1    3    3    0    0 -0.27200248333E+02 -0.52397501213E+01 -0.59606299636E+02  0.65728376269E+02  0.00000000000E+00 0.  1.
         22    1    1    2    0    0  0.96522308878E+01  0.13235441802E+02 -0.50297717404E+02  0.52898042089E+02  0.00000000000E+00 0.  1.
<mgrwt>
<rscale>  0 0.57161712E+02</rscale>
<asrwt>0</asrwt>
<pdfrwt beam="1">  1        2 0.97150994E-01 0.86701257E+02</pdfrwt>
<pdfrwt beam="2">  1       -2 0.69860710E-03 0.86701257E+02</pdfrwt>
<totfact> 0.14590980E+05</totfact>
</mgrwt>
</event>
<event>
 6    1  0.1535419E-002  0.9367270E+02  0.7546771E-02  0.1393843E+00
          4   -1    0    0  501    0  0.00000000000E+00  0.00000000000E+00  0.27748156844E+02  0.27748156844E+02  0.00000000000E+00 0. -1.
         -4   -1    0    0    0  501 -0.00000000000E+00 -0.00000000000E+00 -0.15739978295E+03  0.15739978295E+03  0.00000000000E+00 0.  1.
         23    2    1    2    0    0  0.57235752702E+01  0.15797339989E+02 -0.54993734233E+02  0.10862267545E+03  0.92153456537E+02 0.  0.
         13    1    3    3    0    0 -0.35642883557E+02  0.22767275257E+02 -0.38399328916E+01  0.42467741351E+02  0.00000000000E+00 0. -1.
        -13    1    3    3    0    0  0.41366458827E+02 -0.69699352686E+01 -0.51153801342E+02  0.66154934096E+02  0.00000000000E+00 0.  1.
         22    1    1    2    0    0 -0.57235752702E+01 -0.15797339989E+02 -0.74657891871E+02  0.76525264346E+02  0.00000000000E+00 0.  1.
<mgrwt>
<rscale>  0 0.60960929E+02</rscale>
<asrwt>0</asrwt>
<pdfrwt beam="1">  1        4 0.42689471E-02 0.93672700E+02</pdfrwt>
<pdfrwt beam="2">  1       -4 0.24215352E-01 0.93672700E+02</pdfrwt>
<totfact> 0.72155500E+03</totfact>
</mgrwt>
</event>
<event>
 6    1  0.1535419E-002  0.9324644E+02  0.7546771E-02  0.1367107E+00
          3   -1    0    0  501    0  0.00000000000E+00  0.00000000000E+00  0.18335509118E+02  0.18335509118E+02  0.00000000000E+00 0. -1.
         -3   -1    0    0    0  501 -0.00000000000E+00 -0.00000000000E+00 -0.20384177315E+03  0.20384177315E+03  0.00000000000E+00 0.  1.
         23    2    1    2    0    0 -0.49248016392E+01 -0.25873023808E+02 -0.12300882133E+03  0.15435695068E+03  0.89449600706E+02 0.  0.
         13    1    3    3    0    0  0.49486028203E+00 -0.21218758154E+02  0.83471083155E+01  0.22806902498E+02  0.00000000000E+00 0. -1.
        -13    1    3    3    0    0 -0.54196619212E+01 -0.46542656537E+01 -0.13135592964E+03  0.13155004818E+03  0.00000000000E+00 0.  1.
         22    1    1    2    0    0  0.49248016392E+01  0.25873023808E+02 -0.62497442700E+02  0.67820331584E+02  0.00000000000E+00 0.  1.
<mgrwt>
<rscale>  0 0.67977951E+02</rscale>
<asrwt>0</asrwt>
<pdfrwt beam="1">  1        3 0.28208476E-02 0.93246437E+02</pdfrwt>
<pdfrwt beam="2">  1       -3 0.31360273E-01 0.93246437E+02</pdfrwt>
<totfact> 0.11499950E+04</totfact>
</mgrwt>
</event>
<event>
 6    1  0.1535419E-002  0.9567439E+02  0.7546771E-02  0.1359433E+00
          2   -1    0    0  501    0  0.00000000000E+00  0.00000000000E+00  0.33421619960E+02  0.33421619960E+02  0.00000000000E+00 0.  1.
         -2   -1    0    0    0  501 -0.00000000000E+00 -0.00000000000E+00 -0.11585318232E+03  0.11585318232E+03  0.00000000000E+00 0. -1.
         23    2    1    2    0    0  0.21418613137E+01 -0.27638922618E+02 -0.55406510428E+02  0.11055980460E+03  0.91570144601E+02 0.  0.
         11    1    3    3    0    0  0.19884128917E+02 -0.16137220893E+02  0.19842741574E+02  0.32396340443E+02  0.00000000000E+00 0.  1.
        -11    1    3    3    0    0 -0.17742267603E+02 -0.11501701725E+02 -0.75249252002E+02  0.78163464158E+02  0.00000000000E+00 0. -1.
         22    1    1    2    0    0 -0.21418613137E+01  0.27638922618E+02 -0.27025051937E+02  0.38714997683E+02  0.00000000000E+00 0.  1.
<mgrwt>
<rscale>  0 0.70194340E+02</rscale>
<asrwt>0</asrwt>
<pdfrwt beam="1">  1        2 0.51417877E-02 0.95674390E+02</pdfrwt>
<pdfrwt beam="2">  1       -2 0.17823566E-01 0.95674390E+02</pdfrwt>
<totfact> 0.33931298E+04</totfact>
</mgrwt>
</event>
<event>
 6    1  0.1535419E-002  0.9700404E+02  0.7546771E-02  0.1377014E+00
         -1   -1    0    0    0  501 -0.00000000000E+00  0.00000000000E+00  0.83522657241E+01  0.83522657241E+01  0.00000000000E+00 0.  1.
          1   -1    0    0  501    0  0.00000000000E+00 -0.00000000000E+00 -0.54147266444E+03  0.54147266444E+03  0.00000000000E+00 0. -1.
         23    2    1    2    0    0  0.13714270911E+02 -0.14371582800E+02 -0.51086579520E+03  0.51999388935E+03  0.94948199722E+02 0.  0.
         13    1    3    3    0    0 -0.37593138803E+02 -0.14003257728E+02 -0.31397649446E+03  0.31652894715E+03  0.00000000000E+00 0. -1.
        -13    1    3    3    0    0  0.51307409714E+02 -0.36832507230E+00 -0.19688930075E+03  0.20346494220E+03  0.00000000000E+00 0.  1.
         22    1    1    2    0    0 -0.13714270911E+02  0.14371582800E+02 -0.22254603517E+02  0.29831040822E+02  0.00000000000E+00 0.  1.
<mgrwt>
<rscale>  0 0.65255220E+02</rscale>
<asrwt>0</asrwt>
<pdfrwt beam="1">  1        1 0.83303533E-01 0.97004042E+02</pdfrwt>
<pdfrwt beam="2">  1       -1 0.12849633E-02 0.97004042E+02</pdfrwt>
<totfact> 0.47347654E+04</totfact>
</mgrwt>
</event>
<event>
 6    1  0.1535419E-002  0.1058043E+03  0.7546771E-02  0.1305277E+00
         -2   -1    0    0    0  501 -0.00000000000E+00  0.00000000000E+00  0.16308290506E+02  0.16308290506E+02  0.00000000000E+00 0.  1.
          2   -1    0    0  501    0  0.00000000000E+00 -0.00000000000E+00 -0.98138575727E+03  0.98138575727E+03  0.00000000000E+00 0. -1.
         23    2    1    2    0    0  0.16707278739E+02  0.50283663566E+02 -0.92557574527E+03  0.93160345854E+03  0.91580367705E+02 0.  0.
         13    1    3    3    0    0  0.49991599462E+02  0.12168599781E+02 -0.58928739327E+03  0.59152926108E+03  0.00000000000E+00 0. -1.
        -13    1    3    3    0    0 -0.33284320723E+02  0.38115063784E+02 -0.33628835199E+03  0.34007419746E+03  0.00000000000E+00 0.  1.
         22    1    1    2    0    0 -0.16707278739E+02 -0.50283663566E+02 -0.39501721496E+02  0.66090589236E+02  0.00000000000E+00 0.  1.
<mgrwt>
<rscale>  0 0.89005925E+02</rscale>
<asrwt>0</asrwt>
<pdfrwt beam="1">  1        2 0.15098246E+00 0.10580427E+03</pdfrwt>
<pdfrwt beam="2">  1       -2 0.25089671E-02 0.10580427E+03</pdfrwt>
<totfact> 0.14043644E+04</totfact>
</mgrwt>
</event>
<event>
 6    1  0.1535419E-002  0.9267096E+02  0.7546771E-02  0.1406033E+00
          1   -1    0    0  501    0  0.00000000000E+00  0.00000000000E+00  0.19673525032E+03  0.19673525032E+03  0.00000000000E+00 0. -1.
         -1   -1    0    0    0  501 -0.00000000000E+00 -0.00000000000E+00 -0.38013907077E+02  0.38013907077E+02  0.00000000000E+00 0.  1.
         23    2    1    2    0    0  0.60151519700E+01  0.12980392743E+02  0.18382057044E+03  0.20585895395E+03  0.91560003026E+02 0.  0.
         13    1    3    3    0    0 -0.29673669412E+02 -0.26262039178E+02  0.78131160252E+02  0.87605362624E+02  0.00000000000E+00 0.  1.
        -13    1    3    3    0    0  0.35688821382E+02  0.39242431921E+02  0.10568941019E+03  0.11825359132E+03  0.00000000000E+00 0. -1.
         22    1    1    2    0    0 -0.60151519700E+01 -0.12980392743E+02 -0.25099227202E+02  0.28890203445E+02  0.00000000000E+00 0.  1.
<mgrwt>
<rscale>  0 0.58088508E+02</rscale>
<asrwt>0</asrwt>
<pdfrwt beam="1">  1        1 0.30266961E-01 0.92670960E+02</pdfrwt>
<pdfrwt beam="2">  1       -1 0.58482935E-02 0.92670960E+02</pdfrwt>
<totfact> 0.18626366E+04</totfact>
</mgrwt>
</event>
<event>
 6    1  0.1535419E-002  0.9008399E+02  0.7546771E-02  0.1421168E+00
          2   -1    0    0  501    0  0.00000000000E+00  0.00000000000E+00  0.29780110202E+03  0.29780110202E+03  0.00000000000E+00 0.  1.
         -2   -1    0    0    0  501 -0.00000000000E+00 -0.00000000000E+00 -0.92281860321E+01  0.92281860321E+01  0.00000000000E+00 0. -1.
         23    2    1    2    0    0  0.89038088745E+01 -0.85051189041E+01  0.27093439210E+03  0.28551807272E+03  0.89238501605E+02 0.  0.
         13    1    3    3    0    0  0.32230247109E+02 -0.79193899807E+01  0.34272258523E+02  0.47708419285E+02  0.00000000000E+00 0. -1.
        -13    1    3    3    0    0 -0.23326438235E+02 -0.58572892336E+00  0.23666213358E+03  0.23780965344E+03  0.00000000000E+00 0.  1.
         22    1    1    2    0    0 -0.89038088745E+01  0.85051189041E+01  0.17638523893E+02  0.21511215335E+02  0.00000000000E+00 0.  1.
<mgrwt>
<rscale>  0 0.54774501E+02</rscale>
<asrwt>0</asrwt>
<pdfrwt beam="1">  1        2 0.45815547E-01 0.90083989E+02</pdfrwt>
<pdfrwt beam="2">  1       -2 0.14197212E-02 0.90083989E+02</pdfrwt>
<totfact> 0.12023301E+05</totfact>
</mgrwt>
</event>
<event>
 6    1  0.1535419E-002  0.9262888E+02  0.7546771E-02  0.1421068E+00
          2   -1    0    0  501    0  0.00000000000E+00  0.00000000000E+00  0.14456391909E+04  0.14456391909E+04  0.00000000000E+00 0. -1.
         -2   -1    0    0    0  501 -0.00000000000E+00 -0.00000000000E+00 -0.21420115153E+01  0.21420115153E+01  0.00000000000E+00 0.  1.
         23    2    1    2    0    0 -0.11110323216E+02  0.22875142136E+01  0.13905911300E+04  0.13936727736E+04  0.91931698246E+02 0.  0.
         13    1    3    3    0    0 -0.42646641071E+02  0.14466044157E+02  0.40391674462E+03  0.40641941269E+03  0.00000000000E+00 0.  1.
        -13    1    3    3    0    0  0.31536317855E+02 -0.12178529943E+02  0.98667438535E+03  0.98725336092E+03  0.00000000000E+00 0. -1.
         22    1    1    2    0    0  0.11110323216E+02 -0.22875142136E+01  0.52906049391E+02  0.54108428784E+02  0.00000000000E+00 0. -1.
<mgrwt>
<rscale>  0 0.54795553E+02</rscale>
<asrwt>0</asrwt>
<pdfrwt beam="1">  1        2 0.22240525E+00 0.92628879E+02</pdfrwt>
<pdfrwt beam="2">  1       -2 0.32954139E-03 0.92628879E+02</pdfrwt>
<totfact> 0.13756104E+05</totfact>
</mgrwt>
</event>
<event>
 6    1  0.1535419E-002  0.9669922E+02  0.7546771E-02  0.1369898E+00
          2   -1    0    0  501    0  0.00000000000E+00  0.00000000000E+00  0.37216839398E+02  0.37216839398E+02  0.00000000000E+00 0.  1.
         -2   -1    0    0    0  501 -0.00000000000E+00 -0.00000000000E+00 -0.95767822117E+02  0.95767822117E+02  0.00000000000E+00 0. -1.
         23    2    1    2    0    0 -0.41014774786E+01  0.22171143614E+02 -0.44779184778E+02  0.10656413644E+03  0.94033813383E+02 0.  0.
         11    1    3    3    0    0 -0.17022423408E+01  0.29296219963E+02 -0.72303343347E+02  0.78031657629E+02  0.00000000000E+00 0. -1.
        -11    1    3    3    0    0 -0.23992351379E+01 -0.71250763493E+01  0.27524158569E+02  0.28532478812E+02  0.00000000000E+00 0.  1.
         22    1    1    2    0    0  0.41014774786E+01 -0.22171143614E+02 -0.13771797941E+02  0.26420525074E+02  0.00000000000E+00 0.  1.
<mgrwt>
<rscale>  0 0.67195622E+02</rscale>
<asrwt>0</asrwt>
<pdfrwt beam="1">  1        2 0.57256677E-02 0.96699223E+02</pdfrwt>
<pdfrwt beam="2">  1       -2 0.14733511E-01 0.96699223E+02</pdfrwt>
<totfact> 0.40400157E+04</totfact>
</mgrwt>
</event>
<event>
 6    1  0.1535419E-002  0.9256467E+02  0.7546771E-02  0.1372263E+00
         -4   -1    0    0    0  501 -0.00000000000E+00  0.00000000000E+00  0.92856804689E+02  0.92856804689E+02  0.00000000000E+00 0.  1.
          4   -1    0    0  501    0  0.00000000000E+00 -0.00000000000E+00 -0.40950528753E+02  0.40950528753E+02  0.00000000000E+00 0. -1.
         23    2    1    2    0    0  0.53135417388E+01 -0.24142317103E+02  0.22253673574E+02  0.95202126180E+02  0.89202767002E+02 0.  0.
         13    1    3    3    0    0  0.28434123510E+02  0.24253255326E+02  0.64573489596E+00  0.37378292460E+02  0.00000000000E+00 0. -1.
        -13    1    3    3    0    0 -0.23120581771E+02 -0.48395572429E+02  0.21607938678E+02  0.57823833720E+02  0.00000000000E+00 0.  1.
         22    1    1    2    0    0 -0.53135417388E+01  0.24142317103E+02  0.29652602361E+02  0.38605207261E+02  0.00000000000E+00 0. -1.
<mgrwt>
<rscale>  0 0.66542127E+02</rscale>
<asrwt>0</asrwt>
<pdfrwt beam="1">  1        4 0.63000814E-02 0.92564674E+02</pdfrwt>
<pdfrwt beam="2">  1       -4 0.14285662E-01 0.92564674E+02</pdfrwt>
<totfact> 0.98309892E+03</totfact>
</mgrwt>
</event>
<event>
 6    1  0.1535419E-002  0.9549284E+02  0.7546771E-02  0.1358759E+00
          4   -1    0    0  501    0  0.00000000000E+00  0.00000000000E+00  0.49471846656E+02  0.49471846656E+02  0.00000000000E+00 0.  1.
         -4   -1    0    0    0  501 -0.00000000000E+00 -0.00000000000E+00 -0.90835292393E+02  0.90835292393E+02  0.00000000000E+00 0. -1.
         23    2    1    2    0    0  0.26416797378E+02 -0.98638872585E+01 -0.68489173371E+01  0.95738134951E+02  0.91234529426E+02 0.  0.
         13    1    3    3    0    0  0.17609804698E+02  0.13653510928E+02 -0.44912835304E+02  0.50136676767E+02  0.00000000000E+00 0. -1.
        -13    1    3    3    0    0  0.88069926802E+01 -0.23517398186E+02  0.38063917967E+02  0.45601458184E+02  0.00000000000E+00 0.  1.
         22    1    1    2    0    0 -0.26416797378E+02  0.98638872585E+01 -0.34514528400E+02  0.44569004098E+02  0.00000000000E+00 0.  1.
<mgrwt>
<rscale>  0 0.70393701E+02</rscale>
<asrwt>0</asrwt>
<pdfrwt beam="1">  1        4 0.76110535E-02 0.95492842E+02</pdfrwt>
<pdfrwt beam="2">  1       -4 0.13974660E-01 0.95492842E+02</pdfrwt>
<totfact> 0.75747336E+03</totfact>
</mgrwt>
</event>
<event>
 6    1  0.1535419E-002  0.9123062E+02  0.7546771E-02  0.1423810E+00
         -2   -1    0    0    0  501 -0.00000000000E+00  0.00000000000E+00  0.39330524160E+03  0.39330524160E+03  0.00000000000E+00 0.  1.
          2   -1    0    0  501    0  0.00000000000E+00 -0.00000000000E+00 -0.67569233620E+01  0.67569233620E+01  0.00000000000E+00 0. -1.
         23    2    1    2    0    0 -0.92125033385E+01  0.66883666433E+01  0.32995257707E+03  0.34233277570E+03  0.90517521717E+02 0.  0.
         13    1    3    3    0    0  0.12674225211E+02  0.54173257557E+01  0.31609798438E+03  0.31639835513E+03  0.00000000000E+00 0.  1.
        -13    1    3    3    0    0 -0.21886728550E+02  0.12710408876E+01  0.13854592693E+02  0.25934420569E+02  0.00000000000E+00 0. -1.
         22    1    1    2    0    0  0.92125033385E+01 -0.66883666433E+01  0.56595741172E+02  0.57729389265E+02  0.00000000000E+00 0. -1.
<mgrwt>
<rscale>  0 0.54222928E+02</rscale>
<asrwt>0</asrwt>
<pdfrwt beam="1">  1        2 0.10395270E-02 0.91230621E+02</pdfrwt>
<pdfrwt beam="2">  1       -2 0.60508481E-01 0.91230621E+02</pdfrwt>
<totfact> 0.30830649E+04</totfact>
</mgrwt>
</event>
<event>
 6    1  0.1535419E-002  0.9860716E+02  0.7546771E-02  0.1314130E+00
         -2   -1    0    0    0  501 -0.00000000000E+00  0.00000000000E+00  0.16857705275E+03  0.16857705275E+03  0.00000000000E+00 0.  1.
          2   -1    0    0  501    0  0.00000000000E+00 -0.00000000000E+00 -0.35373315156E+02  0.35373315156E+02  0.00000000000E+00 0. -1.
         23    2    1    2    0    0 -0.48886970202E+02 -0.26769163357E+02  0.88589067664E+02  0.13255714179E+03  0.81344016173E+02 0.  0.
         11    1    3    3    0    0 -0.58406662206E+02 -0.17448290572E+02  0.22246176292E+02  0.64889701753E+02  0.00000000000E+00 0. -1.
        -11    1    3    3    0    0  0.95196920046E+01 -0.93208727852E+01  0.66342891373E+02  0.67667440036E+02  0.00000000000E+00 0.  1.
         22    1    1    2    0    0  0.48886970202E+02  0.26769163357E+02  0.44614669925E+02  0.71393226113E+02  0.00000000000E+00 0. -1.
<mgrwt>
<rscale>  0 0.85499917E+02</rscale>
<asrwt>0</asrwt>
<pdfrwt beam="1">  1        2 0.54420486E-02 0.98607165E+02</pdfrwt>
<pdfrwt beam="2">  1       -2 0.25934931E-01 0.98607165E+02</pdfrwt>
<totfact> 0.16755539E+04</totfact>
</mgrwt>
</event>
<event>
 6    1  0.1535419E-002  0.9207554E+02  0.7546771E-02  0.1387265E+00
          2   -1    0    0  501    0  0.00000000000E+00  0.00000000000E+00  0.27366958350E+02  0.27366958350E+02  0.00000000000E+00 0. -1.
         -2   -1    0    0    0  501 -0.00000000000E+00 -0.00000000000E+00 -0.11730541430E+03  0.11730541430E+03  0.00000000000E+00 0.  1.
         23    2    1    2    0    0  0.18512486478E+02  0.66264639927E+01 -0.64043717727E+02  0.11215838107E+03  0.89951556318E+02 0.  0.
         11    1    3    3    0    0  0.25125938403E+02 -0.33781263393E+02 -0.56601293307E+02  0.70542135927E+02  0.00000000000E+00 0.  1.
        -11    1    3    3    0    0 -0.66134519251E+01  0.40407727386E+02 -0.74424244197E+01  0.41616245147E+02  0.00000000000E+00 0. -1.
         22    1    1    2    0    0 -0.18512486478E+02 -0.66264639927E+01 -0.25894738225E+02  0.32513991578E+02  0.00000000000E+00 0.  1.
<mgrwt>
<rscale>  0 0.62592031E+02</rscale>
<asrwt>0</asrwt>
<pdfrwt beam="1">  1        2 0.42103013E-02 0.92075538E+02</pdfrwt>
<pdfrwt beam="2">  1       -2 0.18046987E-01 0.92075538E+02</pdfrwt>
<totfact> 0.42855336E+04</totfact>
</mgrwt>
</event>
<event>
 6    1  0.1535419E-002  0.9614784E+02  0.7546771E-02  0.1345589E+00
          2   -1    0    0  501    0  0.00000000000E+00  0.00000000000E+00  0.23888609764E+03  0.23888609764E+03  0.00000000000E+00 0. -1.
         -2   -1    0    0    0  501 -0.00000000000E+00 -0.00000000000E+00 -0.17971077065E+02  0.17971077065E+02  0.00000000000E+00 0.  1.
         23    2    1    2    0    0 -0.19369411280E+02  0.28623906466E+02  0.17031609430E+03  0.19558113164E+03  0.89721262573E+02 0.  0.
         13    1    3    3    0    0 -0.47329965584E+02  0.36656007251E+02  0.75218162867E+02  0.96133035606E+02  0.00000000000E+00 0.  1.
        -13    1    3    3    0    0  0.27960554305E+02 -0.80321007847E+01  0.95097931438E+02  0.99448096029E+02  0.00000000000E+00 0. -1.
         22    1    1    2    0    0  0.19369411280E+02 -0.28623906466E+02  0.50598926271E+02  0.61276043071E+02  0.00000000000E+00 0. -1.
<mgrwt>
<rscale>  0 0.74447996E+02</rscale>
<asrwt>0</asrwt>
<pdfrwt beam="1">  1        2 0.36751705E-01 0.96147840E+02</pdfrwt>
<pdfrwt beam="2">  1       -2 0.27647813E-02 0.96147840E+02</pdfrwt>
<totfact> 0.58675245E+04</totfact>
</mgrwt>
</event>
<event>
 6    1  0.1535419E-002  0.9346841E+02  0.7546771E-02  0.1385389E+00
         -1   -1    0    0    0  501 -0.00000000000E+00  0.00000000000E+00  0.10976084198E+02  0.10976084198E+02  0.00000000000E+00 0.  1.
          1   -1    0    0  501    0  0.00000000000E+00 -0.00000000000E+00 -0.30366816892E+03  0.30366816892E+03  0.00000000000E+00 0. -1.
         23    2    1    2    0    0  0.42223440637E+01  0.18909442538E+02 -0.26369104944E+03  0.27976653453E+03  0.91438225492E+02 0.  0.
         11    1    3    3    0    0  0.70713024781E+01  0.54785350296E+02 -0.12856367804E+03  0.13992875772E+03  0.00000000000E+00 0.  1.
        -11    1    3    3    0    0 -0.28489584143E+01 -0.35875907758E+02 -0.13512737141E+03  0.13983777682E+03  0.00000000000E+00 0. -1.
         22    1    1    2    0    0 -0.42223440637E+01 -0.18909442538E+02 -0.29001035272E+02  0.34877718580E+02  0.00000000000E+00 0. -1.
<mgrwt>
<rscale>  0 0.63068099E+02</rscale>
<asrwt>0</asrwt>
<pdfrwt beam="1">  1        1 0.46718171E-01 0.93468413E+02</pdfrwt>
<pdfrwt beam="2">  1       -1 0.16886287E-02 0.93468413E+02</pdfrwt>
<totfact> 0.65992021E+04</totfact>
</mgrwt>
</event>
<event>
 6    1  0.1535419E-002  0.9294612E+02  0.7546771E-02  0.1405508E+00
          2   -1    0    0  501    0  0.00000000000E+00  0.00000000000E+00  0.69531464305E+03  0.69531464305E+03  0.00000000000E+00 0.  1.
         -2   -1    0    0    0  501 -0.00000000000E+00 -0.00000000000E+00 -0.41694841119E+01  0.41694841119E+01  0.00000000000E+00 0. -1.
         23    2    1    2    0    0  0.60078844742E+01  0.12973591707E+02  0.61857869020E+03  0.62552264297E+03  0.91839926778E+02 0.  0.
         11    1    3    3    0    0 -0.20611405911E+02  0.33310448997E+02  0.51867856124E+03  0.52015561706E+03  0.00000000000E+00 0.  1.
        -11    1    3    3    0    0  0.26619290385E+02 -0.20336857290E+02  0.99900128953E+02  0.10536702591E+03  0.00000000000E+00 0. -1.
         22    1    1    2    0    0 -0.60078844742E+01 -0.12973591707E+02  0.72566468744E+02  0.73961484190E+02  0.00000000000E+00 0. -1.
<mgrwt>
<rscale>  0 0.58208429E+02</rscale>
<asrwt>0</asrwt>
<pdfrwt beam="1">  1        2 0.10697139E+00 0.92946118E+02</pdfrwt>
<pdfrwt beam="2">  1       -2 0.64145965E-03 0.92946118E+02</pdfrwt>
<totfact> 0.14885727E+05</totfact>
</mgrwt>
</event>
<event>
 6    1  0.1535419E-002  0.9758810E+02  0.7546771E-02  0.1352124E+00
          2   -1    0    0  501    0  0.00000000000E+00  0.00000000000E+00  0.28666475066E+03  0.28666475066E+03  0.00000000000E+00 0. -1.
         -2   -1    0    0    0  501 -0.00000000000E+00 -0.00000000000E+00 -0.14149749559E+02  0.14149749559E+02  0.00000000000E+00 0.  1.
         23    2    1    2    0    0  0.26341243668E+02  0.13414337011E+02  0.21651638584E+03  0.23749269934E+03  0.93003394278E+02 0.  0.
         13    1    3    3    0    0  0.60443530589E+02 -0.91599889666E+00  0.14056265603E+03  0.15301019480E+03  0.00000000000E+00 0. -1.
        -13    1    3    3    0    0 -0.34102286921E+02  0.14330335907E+02  0.75953729812E+02  0.84482504537E+02  0.00000000000E+00 0.  1.
         22    1    1    2    0    0 -0.26341243668E+02 -0.13414337011E+02  0.55998615259E+02  0.63321800877E+02  0.00000000000E+00 0.  1.
<mgrwt>
<rscale>  0 0.72397654E+02</rscale>
<asrwt>0</asrwt>
<pdfrwt beam="1">  1        2 0.44102265E-01 0.97588098E+02</pdfrwt>
<pdfrwt beam="2">  1       -2 0.21768848E-02 0.97588098E+02</pdfrwt>
<totfact> 0.68604836E+04</totfact>
</mgrwt>
</event>
<event>
 6    1  0.1535419E-002  0.9419333E+02  0.7546771E-02  0.1402017E+00
          2   -1    0    0  501    0  0.00000000000E+00  0.00000000000E+00  0.10837598309E+04  0.10837598309E+04  0.00000000000E+00 0. -1.
         -2   -1    0    0    0  501 -0.00000000000E+00 -0.00000000000E+00 -0.40322811334E+01  0.40322811334E+01  0.00000000000E+00 0.  1.
         23    2    1    2    0    0  0.14480990534E+02 -0.96420268302E+00  0.10544169308E+04  0.10586158168E+04  0.93068548718E+02 0.  0.
         11    1    3    3    0    0  0.14344149124E+02 -0.13365760757E+02  0.44557996339E+02  0.48680727320E+02  0.00000000000E+00 0.  1.
        -11    1    3    3    0    0  0.13684141034E+00  0.12401558074E+02  0.10098589345E+04  0.10099350894E+04  0.00000000000E+00 0. -1.
         22    1    1    2    0    0 -0.14480990534E+02  0.96420268302E+00  0.25310618991E+02  0.29176295299E+02  0.00000000000E+00 0.  1.
<mgrwt>
<rscale>  0 0.59013969E+02</rscale>
<asrwt>0</asrwt>
<pdfrwt beam="1">  1        2 0.16673205E+00 0.94193331E+02</pdfrwt>
<pdfrwt beam="2">  1       -2 0.62035181E-03 0.94193331E+02</pdfrwt>
<totfact> 0.88859980E+04</totfact>
</mgrwt>
</event>
<event>
 6    1  0.1535419E-002  0.1000084E+03  0.7546771E-02  0.1336721E+00
         -2   -1    0    0    0  501 -0.00000000000E+00  0.00000000000E+00  0.27046626561E+01  0.27046626561E+01  0.00000000000E+00 0.  1.
          2   -1    0    0  501    0  0.00000000000E+00 -0.00000000000E+00 -0.24706493066E+04  0.24706493066E+04  0.00000000000E+00 0. -1.
         23    2    1    2    0    0 -0.18755414368E+01  0.35752769634E+02 -0.22697140007E+04  0.22719162217E+04  0.93380381066E+02 0.  0.
         13    1    3    3    0    0  0.33200937825E+02  0.21810409607E+02 -0.43399446548E+03  0.43580866479E+03  0.00000000000E+00 0.  1.
        -13    1    3    3    0    0 -0.35076479262E+02  0.13942360027E+02 -0.18357195352E+04  0.18361075569E+04  0.00000000000E+00 0. -1.
         22    1    1    2    0    0  0.18755414368E+01 -0.35752769634E+02 -0.19823064326E+03  0.20143774750E+03  0.00000000000E+00 0.  1.
<mgrwt>
<rscale>  0 0.77357757E+02</rscale>
<asrwt>0</asrwt>
<pdfrwt beam="1">  1        2 0.38009908E+00 0.10000837E+03</pdfrwt>
<pdfrwt beam="2">  1       -2 0.41610283E-03 0.10000837E+03</pdfrwt>
<totfact> 0.30086509E+04</totfact>
</mgrwt>
</event>
<event>
 6    1  0.1535419E-002  0.8819736E+02  0.7546771E-02  0.1413178E+00
         -1   -1    0    0    0  501 -0.00000000000E+00  0.00000000000E+00  0.25869664144E+02  0.25869664144E+02  0.00000000000E+00 0.  1.
          1   -1    0    0  501    0  0.00000000000E+00 -0.00000000000E+00 -0.17105725183E+03  0.17105725183E+03  0.00000000000E+00 0. -1.
         23    2    1    2    0    0 -0.12920110534E+02  0.73078681586E+01 -0.15555671281E+03  0.17882020592E+03  0.86939294621E+02 0.  0.
         13    1    3    3    0    0  0.11635535741E+02  0.29389394501E+02 -0.13769284520E+03  0.14127434948E+03  0.00000000000E+00 0. -1.
        -13    1    3    3    0    0 -0.24555646275E+02 -0.22081526342E+02 -0.17863867614E+02  0.37545856438E+02  0.00000000000E+00 0.  1.
         22    1    1    2    0    0  0.12920110534E+02 -0.73078681586E+01  0.10369125127E+02  0.18106710058E+02  0.00000000000E+00 0.  1.
<mgrwt>
<rscale>  0 0.56490698E+02</rscale>
<asrwt>0</asrwt>
<pdfrwt beam="1">  1        1 0.26316499E-01 0.88197365E+02</pdfrwt>
<pdfrwt beam="2">  1       -1 0.39799485E-02 0.88197365E+02</pdfrwt>
<totfact> 0.38604085E+04</totfact>
</mgrwt>
</event>
<event>
 6    1  0.1535419E-002  0.9265955E+02  0.7546771E-02  0.1399472E+00
          2   -1    0    0  501    0  0.00000000000E+00  0.00000000000E+00  0.56747735583E+03  0.56747735583E+03  0.00000000000E+00 0. -1.
         -2   -1    0    0    0  501 -0.00000000000E+00 -0.00000000000E+00 -0.55980100184E+01  0.55980100184E+01  0.00000000000E+00 0.  1.
         23    2    1    2    0    0  0.70717261004E+01 -0.14209424850E+02  0.52188116261E+03  0.53004314856E+03  0.91290056373E+02 0.  0.
         13    1    3    3    0    0 -0.89828711389E+01  0.44104563068E+01  0.48841156295E+03  0.48851407239E+03  0.00000000000E+00 0. -1.
        -13    1    3    3    0    0  0.16054597239E+02 -0.18619881156E+02  0.33469599652E+02  0.41529076171E+02  0.00000000000E+00 0.  1.
         22    1    1    2    0    0 -0.70717261004E+01  0.14209424850E+02  0.39998183203E+02  0.43032217281E+02  0.00000000000E+00 0.  1.
<mgrwt>
<rscale>  0 0.59610783E+02</rscale>
<asrwt>0</asrwt>
<pdfrwt beam="1">  1        2 0.87304164E-01 0.92659546E+02</pdfrwt>
<pdfrwt beam="2">  1       -2 0.86123275E-03 0.92659546E+02</pdfrwt>
<totfact> 0.12366054E+05</totfact>
</mgrwt>
</event>
<event>
 6    1  0.1535419E-002  0.9476307E+02  0.7546771E-02  0.1356677E+00
          4   -1    0    0  501    0  0.00000000000E+00  0.00000000000E+00  0.52519641473E+02  0.52519641473E+02  0.00000000000E+00 0. -1.
         -4   -1    0    0    0  501 -0.00000000000E+00 -0.00000000000E+00 -0.94874581650E+02  0.94874581650E+02  0.00000000000E+00 0.  1.
         23    2    1    2    0    0  0.21038210332E+01  0.29812042152E+02  0.96181132955E+00  0.94767947545E+02  0.89926941906E+02 0.  0.
         13    1    3    3    0    0 -0.77174119250E+01 -0.31443183545E+02 -0.35283284887E+01  0.32568103110E+02  0.00000000000E+00 0.  1.
        -13    1    3    3    0    0  0.98212329582E+01  0.61255225698E+02  0.44901398182E+01  0.62199844434E+02  0.00000000000E+00 0. -1.
         22    1    1    2    0    0 -0.21038210332E+01 -0.29812042152E+02 -0.43316751506E+02  0.52626275579E+02  0.00000000000E+00 0.  1.
<mgrwt>
<rscale>  0 0.71014485E+02</rscale>
<asrwt>0</asrwt>
<pdfrwt beam="1">  1        4 0.80799449E-02 0.94763067E+02</pdfrwt>
<pdfrwt beam="2">  1       -4 0.14596089E-01 0.94763067E+02</pdfrwt>
<totfact> 0.63565780E+03</totfact>
</mgrwt>
</event>
<event>
 6    1  0.1535419E-002  0.9249234E+02  0.7546771E-02  0.1423648E+00
          1   -1    0    0  501    0  0.00000000000E+00  0.00000000000E+00  0.33815611749E+03  0.33815611749E+03  0.00000000000E+00 0. -1.
         -1   -1    0    0    0  501 -0.00000000000E+00 -0.00000000000E+00 -0.79111846058E+01  0.79111846058E+01  0.00000000000E+00 0.  1.
         23    2    1    2    0    0  0.19068219810E+01 -0.10784561086E+02  0.29486088374E+03  0.30902713927E+03  0.91841653519E+02 0.  0.
         11    1    3    3    0    0  0.14755995755E+02 -0.44078233169E+02  0.92268297803E+02  0.10331538525E+03  0.00000000000E+00 0.  1.
        -11    1    3    3    0    0 -0.12849173774E+02  0.33293672083E+02  0.20259258593E+03  0.20571175402E+03  0.00000000000E+00 0. -1.
         22    1    1    2    0    0 -0.19068219810E+01  0.10784561086E+02  0.35384049143E+02  0.37040162819E+02  0.00000000000E+00 0. -1.
<mgrwt>
<rscale>  0 0.54256409E+02</rscale>
<asrwt>0</asrwt>
<pdfrwt beam="1">  1        1 0.52024007E-01 0.92492335E+02</pdfrwt>
<pdfrwt beam="2">  1       -1 0.12171056E-02 0.92492335E+02</pdfrwt>
<totfact> 0.91920029E+04</totfact>
</mgrwt>
</event>
<event>
 6    1  0.1535419E-002  0.1012366E+03  0.7546771E-02  0.1326224E+00
          3   -1    0    0  501    0  0.00000000000E+00  0.00000000000E+00  0.51163032433E+03  0.51163032433E+03  0.00000000000E+00 0. -1.
         -3   -1    0    0    0  501 -0.00000000000E+00 -0.00000000000E+00 -0.38152044776E+02  0.38152044776E+02  0.00000000000E+00 0.  1.
         23    2    1    2    0    0  0.41423450870E+02  0.24869216834E+01  0.49345046915E+03  0.50372832023E+03  0.92340500513E+02 0.  0.
         11    1    3    3    0    0  0.40706871212E+02  0.12538945233E+02  0.49164948233E+03  0.49349112250E+03  0.00000000000E+00 0. -1.
        -11    1    3    3    0    0  0.71657965887E+00 -0.10052023550E+02  0.18009868224E+01  0.10237197731E+02  0.00000000000E+00 0.  1.
         22    1    1    2    0    0 -0.41423450870E+02 -0.24869216834E+01 -0.19972189590E+02  0.46054048883E+02  0.00000000000E+00 0.  1.
<mgrwt>
<rscale>  0 0.81004686E+02</rscale>
<asrwt>0</asrwt>
<pdfrwt beam="1">  1        3 0.78712353E-01 0.10123663E+03</pdfrwt>
<pdfrwt beam="2">  1       -3 0.58695457E-02 0.10123663E+03</pdfrwt>
<totfact> 0.60311122E+02</totfact>
</mgrwt>
</event>
<event>
 6    1  0.1535419E-002  0.9196124E+02  0.7546771E-02  0.1414002E+00
          2   -1    0    0  501    0  0.00000000000E+00  0.00000000000E+00  0.36411637704E+02  0.36411637704E+02  0.00000000000E+00 0. -1.
         -2   -1    0    0    0  501 -0.00000000000E+00 -0.00000000000E+00 -0.83696250720E+02  0.83696250720E+02  0.00000000000E+00 0.  1.
         23    2    1    2    0    0 -0.24782191065E+00  0.12925849758E+02 -0.26627379925E+02  0.95738639633E+02  0.91047958513E+02 0.  0.
         11    1    3    3    0    0 -0.90199728470E+01  0.19915108841E+02  0.30496846214E+02  0.37523713827E+02  0.00000000000E+00 0. -1.
        -11    1    3    3    0    0  0.87721509363E+01 -0.69892590837E+01 -0.57124226140E+02  0.58214925806E+02  0.00000000000E+00 0.  1.
         22    1    1    2    0    0  0.24782191065E+00 -0.12925849758E+02 -0.20657233091E+02  0.24369248791E+02  0.00000000000E+00 0.  1.
<mgrwt>
<rscale>  0 0.56310365E+02</rscale>
<asrwt>0</asrwt>
<pdfrwt beam="1">  1        2 0.56017905E-02 0.91961241E+02</pdfrwt>
<pdfrwt beam="2">  1       -2 0.12876346E-01 0.91961241E+02</pdfrwt>
<totfact> 0.51218313E+04</totfact>
</mgrwt>
</event>
<event>
 6    1  0.1535419E-002  0.9217128E+02  0.7546771E-02  0.1424121E+00
          1   -1    0    0  501    0  0.00000000000E+00  0.00000000000E+00  0.88550098138E+02  0.88550098138E+02  0.00000000000E+00 0. -1.
         -1   -1    0    0    0  501 -0.00000000000E+00 -0.00000000000E+00 -0.31068956231E+02  0.31068956231E+02  0.00000000000E+00 0.  1.
         23    2    1    2    0    0  0.87118685964E+01 -0.66946136264E+01  0.57492379896E+02  0.10863203328E+03  0.91514099477E+02 0.  0.
         11    1    3    3    0    0  0.26498753635E+02  0.36671289551E+02  0.30130706915E+02  0.54358319701E+02  0.00000000000E+00 0. -1.
        -11    1    3    3    0    0 -0.17786885039E+02 -0.43365903177E+02  0.27361672982E+02  0.54273713583E+02  0.00000000000E+00 0.  1.
         22    1    1    2    0    0 -0.87118685964E+01  0.66946136264E+01 -0.11237988951E-01  0.10987021086E+02  0.00000000000E+00 0.  1.
<mgrwt>
<rscale>  0 0.54158503E+02</rscale>
<asrwt>0</asrwt>
<pdfrwt beam="1">  1        1 0.13623092E-01 0.92171280E+02</pdfrwt>
<pdfrwt beam="2">  1       -1 0.47798395E-02 0.92171280E+02</pdfrwt>
<totfact> 0.68202974E+04</totfact>
</mgrwt>
</event>
<event>
 6    1  0.1535419E-002  0.1030430E+03  0.7546771E-02  0.1319490E+00
          2   -1    0    0  501    0  0.00000000000E+00  0.00000000000E+00  0.25213546796E+04  0.25213546796E+04  0.00000000000E+00 0. -1.
         -2   -1    0    0    0  501 -0.00000000000E+00 -0.00000000000E+00 -0.37828803443E+01  0.37828803443E+01  0.00000000000E+00 0.  1.
         23    2    1    2    0    0 -0.43986163416E+02  0.57644461887E+01  0.23342952031E+04  0.23365684159E+04  0.93004597928E+02 0.  0.
         13    1    3    3    0    0 -0.35020553904E+02 -0.34235151843E+02  0.18139717396E+04  0.18146327334E+04  0.00000000000E+00 0. -1.
        -13    1    3    3    0    0 -0.89656095121E+01  0.39999598031E+02  0.52032346350E+03  0.52193568250E+03  0.00000000000E+00 0.  1.
         22    1    1    2    0    0  0.43986163416E+02 -0.57644461887E+01  0.18327659606E+03  0.18856914402E+03  0.00000000000E+00 0.  1.
<mgrwt>
<rscale>  0 0.83467504E+02</rscale>
<asrwt>0</asrwt>
<pdfrwt beam="1">  1        2 0.38789938E+00 0.10304303E+03</pdfrwt>
<pdfrwt beam="2">  1       -2 0.58198361E-03 0.10304303E+03</pdfrwt>
<totfact> 0.17682212E+04</totfact>
</mgrwt>
</event>
<event>
 6    1  0.1535419E-002  0.9220609E+02  0.7546771E-02  0.1406139E+00
          2   -1    0    0  501    0  0.00000000000E+00  0.00000000000E+00  0.10857098463E+02  0.10857098463E+02  0.00000000000E+00 0. -1.
         -2   -1    0    0    0  501 -0.00000000000E+00 -0.00000000000E+00 -0.26244941479E+03  0.26244941479E+03  0.00000000000E+00 0.  1.
         23    2    1    2    0    0  0.12238562514E+02 -0.77755144218E+01 -0.21431745160E+03  0.23331080627E+03  0.91058888766E+02 0.  0.
         11    1    3    3    0    0 -0.32868418162E+02  0.18350344982E+02 -0.64468599108E+02  0.74654325691E+02  0.00000000000E+00 0. -1.
        -11    1    3    3    0    0  0.45106980676E+02 -0.26125859404E+02 -0.14984885249E+03  0.15865648058E+03  0.00000000000E+00 0.  1.
         22    1    1    2    0    0 -0.12238562514E+02  0.77755144218E+01 -0.37274864728E+02  0.39995706987E+02  0.00000000000E+00 0.  1.
<mgrwt>
<rscale>  0 0.58064324E+02</rscale>
<asrwt>0</asrwt>
<pdfrwt beam="1">  1        2 0.16703229E-02 0.92206086E+02</pdfrwt>
<pdfrwt beam="2">  1       -2 0.40376832E-01 0.92206086E+02</pdfrwt>
<totfact> 0.35737312E+04</totfact>
</mgrwt>
</event>
<event>
 6    1  0.1535419E-002  0.9439380E+02  0.7546771E-02  0.1371187E+00
          1   -1    0    0  501    0  0.00000000000E+00  0.00000000000E+00  0.18018369740E+03  0.18018369740E+03  0.00000000000E+00 0. -1.
         -1   -1    0    0    0  501 -0.00000000000E+00 -0.00000000000E+00 -0.19363558305E+02  0.19363558305E+02  0.00000000000E+00 0.  1.
         23    2    1    2    0    0  0.17156493956E+02 -0.16391803846E+02  0.12730476557E+03  0.15848246810E+03  0.91362754124E+02 0.  0.
         13    1    3    3    0    0  0.12129662833E+02  0.29783955401E+02  0.12263479435E+02  0.34418100581E+02  0.00000000000E+00 0.  1.
        -13    1    3    3    0    0  0.50268311226E+01 -0.46175759247E+02  0.11504128613E+03  0.12406436752E+03  0.00000000000E+00 0. -1.
         22    1    1    2    0    0 -0.17156493956E+02  0.16391803846E+02  0.33515373524E+02  0.41064787600E+02  0.00000000000E+00 0. -1.
<mgrwt>
<rscale>  0 0.66838188E+02</rscale>
<asrwt>0</asrwt>
<pdfrwt beam="1">  1        1 0.27720568E-01 0.94393799E+02</pdfrwt>
<pdfrwt beam="2">  1       -1 0.29790091E-02 0.94393799E+02</pdfrwt>
<totfact> 0.55544092E+04</totfact>
</mgrwt>
</event>
<event>
 6    1  0.1535419E-002  0.9455662E+02  0.7546771E-02  0.1392366E+00
          2   -1    0    0  501    0  0.00000000000E+00  0.00000000000E+00  0.84542689777E+03  0.84542689777E+03  0.00000000000E+00 0. -1.
         -2   -1    0    0    0  501 -0.00000000000E+00 -0.00000000000E+00 -0.52943633054E+01  0.52943633054E+01  0.00000000000E+00 0.  1.
         23    2    1    2    0    0  0.14451811096E+02 -0.84203940682E+01  0.81539848061E+03  0.82086273968E+03  0.93065553904E+02 0.  0.
         11    1    3    3    0    0  0.11390205377E+02  0.24481201918E+02  0.70756468874E+03  0.70807969522E+03  0.00000000000E+00 0. -1.
        -11    1    3    3    0    0  0.30616057192E+01 -0.32901595987E+02  0.10783379187E+03  0.11278304446E+03  0.00000000000E+00 0.  1.
         22    1    1    2    0    0 -0.14451811096E+02  0.84203940682E+01  0.24734053857E+02  0.29858521404E+02  0.00000000000E+00 0.  1.
<mgrwt>
<rscale>  0 0.61322064E+02</rscale>
<asrwt>0</asrwt>
<pdfrwt beam="1">  1        2 0.13006557E+00 0.94556624E+02</pdfrwt>
<pdfrwt beam="2">  1       -2 0.81451810E-03 0.94556624E+02</pdfrwt>
<totfact> 0.84186284E+04</totfact>
</mgrwt>
</event>
<event>
 6    1  0.1535419E-002  0.8982593E+02  0.7546771E-02  0.1428896E+00
         -1   -1    0    0    0  501 -0.00000000000E+00  0.00000000000E+00  0.12229401747E+02  0.12229401747E+02  0.00000000000E+00 0.  1.
          1   -1    0    0  501    0  0.00000000000E+00 -0.00000000000E+00 -0.27406868103E+03  0.27406868103E+03  0.00000000000E+00 0. -1.
         23    2    1    2    0    0 -0.98946237844E+01  0.48906612297E+01 -0.26003723540E+03  0.27511463477E+03  0.89145254073E+02 0.  0.
         11    1    3    3    0    0 -0.36723680351E+02  0.34105977389E+02 -0.14094702311E+03  0.14959247881E+03  0.00000000000E+00 0. -1.
        -11    1    3    3    0    0  0.26829056566E+02 -0.29215316160E+02 -0.11909021229E+03  0.12552215596E+03  0.00000000000E+00 0.  1.
         22    1    1    2    0    0  0.98946237844E+01 -0.48906612297E+01 -0.18020438813E+01  0.11183448004E+02  0.00000000000E+00 0.  1.
<mgrwt>
<rscale>  0 0.53182297E+02</rscale>
<asrwt>0</asrwt>
<pdfrwt beam="1">  1        1 0.42164411E-01 0.89825934E+02</pdfrwt>
<pdfrwt beam="2">  1       -1 0.18814465E-02 0.89825934E+02</pdfrwt>
<totfact> 0.63763656E+04</totfact>
</mgrwt>
</event>
<event>
 6    1  0.1535419E-002  0.1014261E+03  0.7546771E-02  0.1350948E+00
          2   -1    0    0  501    0  0.00000000000E+00  0.00000000000E+00  0.33877067365E+03  0.33877067365E+03  0.00000000000E+00 0. -1.
         -2   -1    0    0    0  501 -0.00000000000E+00 -0.00000000000E+00 -0.18323084410E+02  0.18323084410E+02  0.00000000000E+00 0.  1.
         23    2    1    2    0    0 -0.16750736240E+02 -0.21000367440E+02  0.31328251335E+03  0.32929194319E+03  0.97804131231E+02 0.  0.
         13    1    3    3    0    0 -0.41032942218E+02 -0.22751207947E+02  0.29535431028E+03  0.29905766736E+03  0.00000000000E+00 0. -1.
        -13    1    3    3    0    0  0.24282205977E+02  0.17508405067E+01  0.17928203070E+02  0.30234275829E+02  0.00000000000E+00 0.  1.
         22    1    1    2    0    0  0.16750736240E+02  0.21000367440E+02  0.71650758913E+01  0.27801814864E+02  0.00000000000E+00 0.  1.
<mgrwt>
<rscale>  0 0.72761142E+02</rscale>
<asrwt>0</asrwt>
<pdfrwt beam="1">  1        2 0.52118561E-01 0.10142608E+03</pdfrwt>
<pdfrwt beam="2">  1       -2 0.28189363E-02 0.10142608E+03</pdfrwt>
<totfact> 0.39795229E+04</totfact>
</mgrwt>
</event>
<event>
 6    1  0.1535419E-002  0.9841183E+02  0.7546771E-02  0.1352310E+00
          2   -1    0    0  501    0  0.00000000000E+00  0.00000000000E+00  0.79199917699E+03  0.79199917699E+03  0.00000000000E+00 0. -1.
         -2   -1    0    0    0  501 -0.00000000000E+00 -0.00000000000E+00 -0.51089150588E+01  0.51089150588E+01  0.00000000000E+00 0.  1.
         23    2    1    2    0    0 -0.21153234025E+02 -0.19445616994E+02  0.62029015714E+03  0.62804837997E+03  0.94123839778E+02 0.  0.
         13    1    3    3    0    0 -0.97821461000E+01 -0.57644728869E+02  0.35576484798E+03  0.36053742137E+03  0.00000000000E+00 0.  1.
        -13    1    3    3    0    0 -0.11371087925E+02  0.38199111874E+02  0.26452530915E+03  0.26751095860E+03  0.00000000000E+00 0. -1.
         22    1    1    2    0    0  0.21153234025E+02  0.19445616994E+02  0.16660010480E+03  0.16905971208E+03  0.00000000000E+00 0.  1.
<mgrwt>
<rscale>  0 0.72340437E+02</rscale>
<asrwt>0</asrwt>
<pdfrwt beam="1">  1        2 0.12184593E+00 0.98411831E+02</pdfrwt>
<pdfrwt beam="2">  1       -2 0.78598756E-03 0.98411831E+02</pdfrwt>
<totfact> 0.96470900E+04</totfact>
</mgrwt>
</event>
<event>
 6    1  0.1535419E-002  0.9309414E+02  0.7546771E-02  0.1399486E+00
          2   -1    0    0  501    0  0.00000000000E+00  0.00000000000E+00  0.43090986070E+03  0.43090986070E+03  0.00000000000E+00 0. -1.
         -2   -1    0    0    0  501 -0.00000000000E+00 -0.00000000000E+00 -0.21056504554E+02  0.21056504554E+02  0.00000000000E+00 0.  1.
         23    2    1    2    0    0 -0.42839534482E+01 -0.15049461851E+02  0.42200716100E+03  0.43215340153E+03  0.91769711530E+02 0.  0.
         11    1    3    3    0    0 -0.45997449117E+02 -0.22036368680E+01  0.15843184189E+03  0.16498869617E+03  0.00000000000E+00 0.  1.
        -11    1    3    3    0    0  0.41713495669E+02 -0.12845824983E+02  0.26357531911E+03  0.26716470535E+03  0.00000000000E+00 0. -1.
         22    1    1    2    0    0  0.42839534482E+01  0.15049461851E+02 -0.12153804857E+02  0.19812963727E+02  0.00000000000E+00 0.  1.
<mgrwt>
<rscale>  0 0.59607613E+02</rscale>
<asrwt>0</asrwt>
<pdfrwt beam="1">  1        2 0.66293818E-01 0.93094138E+02</pdfrwt>
<pdfrwt beam="2">  1       -2 0.32394626E-02 0.93094138E+02</pdfrwt>
<totfact> 0.24977708E+04</totfact>
</mgrwt>
</event>
<event>
 6    1  0.1535419E-002  0.9314505E+02  0.7546771E-02  0.1380838E+00
         -2   -1    0    0    0  501 -0.00000000000E+00  0.00000000000E+00  0.11823437373E+03  0.11823437373E+03  0.00000000000E+00 0.  1.
          2   -1    0    0  501    0  0.00000000000E+00 -0.00000000000E+00 -0.28206567430E+02  0.28206567430E+02  0.00000000000E+00 0. -1.
         23    2    1    2    0    0 -0.21079167518E+02 -0.65255100676E-02  0.81267294737E+02  0.12361381018E+03  0.90728548586E+02 0.  0.
         11    1    3    3    0    0 -0.31597504719E+02 -0.17394718766E+02 -0.36922717388E+01  0.36257570465E+02  0.00000000000E+00 0. -1.
        -11    1    3    3    0    0  0.10518337201E+02  0.17388193256E+02  0.84959566476E+02  0.87356239719E+02  0.00000000000E+00 0.  1.
         22    1    1    2    0    0  0.21079167518E+02  0.65255100676E-02  0.87605115655E+01  0.22827130979E+02  0.00000000000E+00 0.  1.
<mgrwt>
<rscale>  0 0.64244095E+02</rscale>
<asrwt>0</asrwt>
<pdfrwt beam="1">  1        2 0.43394720E-02 0.93145053E+02</pdfrwt>
<pdfrwt beam="2">  1       -2 0.18189903E-01 0.93145053E+02</pdfrwt>
<totfact> 0.40730337E+04</totfact>
</mgrwt>
</event>
<event>
 6    1  0.1535419E-002  0.9359004E+02  0.7546771E-02  0.1375673E+00
         -2   -1    0    0    0  501 -0.00000000000E+00  0.00000000000E+00  0.29700220670E+01  0.29700220670E+01  0.00000000000E+00 0.  1.
          2   -1    0    0  501    0  0.00000000000E+00 -0.00000000000E+00 -0.12339761920E+04  0.12339761920E+04  0.00000000000E+00 0. -1.
         23    2    1    2    0    0  0.10694726653E+02 -0.19921971517E+02 -0.11025612410E+04  0.11065262697E+04  0.90817581955E+02 0.  0.
         13    1    3    3    0    0  0.36225081670E+02  0.21751175175E+02 -0.63914128419E+03  0.64053645589E+03  0.00000000000E+00 0. -1.
        -13    1    3    3    0    0 -0.25530355017E+02 -0.41673146692E+02 -0.46341995683E+03  0.46598981380E+03  0.00000000000E+00 0.  1.
         22    1    1    2    0    0 -0.10694726653E+02  0.19921971517E+02 -0.12844492894E+03  0.13041994440E+03  0.00000000000E+00 0.  1.
<mgrwt>
<rscale>  0 0.65614930E+02</rscale>
<asrwt>0</asrwt>
<pdfrwt beam="1">  1        2 0.18984271E+00 0.93590039E+02</pdfrwt>
<pdfrwt beam="2">  1       -2 0.45692595E-03 0.93590039E+02</pdfrwt>
<totfact> 0.11269999E+05</totfact>
</mgrwt>
</event>
<event>
 6    1  0.1535419E-002  0.9458289E+02  0.7546771E-02  0.1367315E+00
         -2   -1    0    0    0  501 -0.00000000000E+00  0.00000000000E+00  0.34670772261E+02  0.34670772261E+02  0.00000000000E+00 0.  1.
          2   -1    0    0  501    0  0.00000000000E+00 -0.00000000000E+00 -0.10581410921E+03  0.10581410921E+03  0.00000000000E+00 0. -1.
         23    2    1    2    0    0  0.19934393766E+02  0.15334360924E+02 -0.64467672638E+02  0.11446398269E+03  0.91177847294E+02 0.  0.
         13    1    3    3    0    0  0.45872155102E+02 -0.11759721103E+02 -0.60377961971E+02  0.76733590728E+02  0.00000000000E+00 0. -1.
        -13    1    3    3    0    0 -0.25937761336E+02  0.27094082027E+02 -0.40897106665E+01  0.37730391958E+02  0.00000000000E+00 0.  1.
         22    1    1    2    0    0 -0.19934393766E+02 -0.15334360924E+02 -0.66756643157E+01  0.26020898790E+02  0.00000000000E+00 0. -1.
<mgrwt>
<rscale>  0 0.67919415E+02</rscale>
<asrwt>0</asrwt>
<pdfrwt beam="1">  1        2 0.16279094E-01 0.94582887E+02</pdfrwt>
<pdfrwt beam="2">  1       -2 0.53339649E-02 0.94582887E+02</pdfrwt>
<totfact> 0.54368715E+04</totfact>
</mgrwt>
</event>
<event>
 6    1  0.1535419E-002  0.1124584E+03  0.7546771E-02  0.1285534E+00
          2   -1    0    0  501    0  0.00000000000E+00  0.00000000000E+00  0.30434469145E+03  0.30434469145E+03  0.00000000000E+00 0. -1.
         -2   -1    0    0    0  501 -0.00000000000E+00 -0.00000000000E+00 -0.34244159745E+02  0.34244159745E+02  0.00000000000E+00 0.  1.
         23    2    1    2    0    0 -0.63434052614E+02  0.54764709016E+01  0.24604280337E+03  0.27052531428E+03  0.92698510290E+02 0.  0.
         11    1    3    3    0    0 -0.68519839476E+02  0.22438647881E+02  0.24179350131E+03  0.25231440426E+03  0.00000000000E+00 0. -1.
        -11    1    3    3    0    0  0.50857868616E+01 -0.16962176979E+02  0.42493020659E+01  0.18210910024E+02  0.00000000000E+00 0.  1.
         22    1    1    2    0    0  0.63434052614E+02 -0.54764709016E+01  0.24057728328E+02  0.68063536911E+02  0.00000000000E+00 0.  1.
<mgrwt>
<rscale>  0 0.97550067E+02</rscale>
<asrwt>0</asrwt>
<pdfrwt beam="1">  1        2 0.46822258E-01 0.11245837E+03</pdfrwt>
<pdfrwt beam="2">  1       -2 0.52683325E-02 0.11245837E+03</pdfrwt>
<totfact> 0.17902405E+04</totfact>
</mgrwt>
</event>
<event>
 6    1  0.1535419E-002  0.9304644E+02  0.7546771E-02  0.1371344E+00
          2   -1    0    0  501    0  0.00000000000E+00  0.00000000000E+00  0.34068361742E+02  0.34068361742E+02  0.00000000000E+00 0. -1.
         -2   -1    0    0    0  501 -0.00000000000E+00 -0.00000000000E+00 -0.18261324788E+03  0.18261324788E+03  0.00000000000E+00 0.  1.
         23    2    1    2    0    0 -0.80217136547E+01 -0.23372073300E+02 -0.33313129843E+02  0.98830180444E+02  0.89705285498E+02 0.  0.
         13    1    3    3    0    0  0.16472857125E+02  0.25910788131E+02  0.58858178419E+01  0.31262866393E+02  0.00000000000E+00 0. -1.
        -13    1    3    3    0    0 -0.24494570780E+02 -0.49282861431E+02 -0.39198947685E+02  0.67567314051E+02  0.00000000000E+00 0.  1.
         22    1    1    2    0    0  0.80217136547E+01  0.23372073300E+02 -0.11523175630E+03  0.11785142918E+03  0.00000000000E+00 0.  1.
<mgrwt>
<rscale>  0 0.66795095E+02</rscale>
<asrwt>0</asrwt>
<pdfrwt beam="1">  1        2 0.52412864E-02 0.93046440E+02</pdfrwt>
<pdfrwt beam="2">  1       -2 0.28094346E-01 0.93046440E+02</pdfrwt>
<totfact> 0.15184895E+04</totfact>
</mgrwt>
</event>
<event>
 6    1  0.1535419E-002  0.9456929E+02  0.7546771E-02  0.1380139E+00
         -1   -1    0    0    0  501 -0.00000000000E+00  0.00000000000E+00  0.26931036121E+02  0.26931036121E+02  0.00000000000E+00 0.  1.
          1   -1    0    0  501    0  0.00000000000E+00 -0.00000000000E+00 -0.16639278284E+03  0.16639278284E+03  0.00000000000E+00 0. -1.
         23    2    1    2    0    0  0.11941242254E+02 -0.16504996002E+02 -0.14416621866E+03  0.17241592055E+03  0.92349027580E+02 0.  0.
         13    1    3    3    0    0  0.11172993034E+02 -0.53939719782E+02 -0.10274495852E+03  0.11657982520E+03  0.00000000000E+00 0. -1.
        -13    1    3    3    0    0  0.76824922022E+00  0.37434723780E+02 -0.41421260146E+02  0.55836095345E+02  0.00000000000E+00 0.  1.
         22    1    1    2    0    0 -0.11941242254E+02  0.16504996002E+02  0.47044719480E+01  0.20907898409E+02  0.00000000000E+00 0. -1.
<mgrwt>
<rscale>  0 0.64427263E+02</rscale>
<asrwt>0</asrwt>
<pdfrwt beam="1">  1        1 0.25598890E-01 0.94569292E+02</pdfrwt>
<pdfrwt beam="2">  1       -1 0.41432362E-02 0.94569292E+02</pdfrwt>
<totfact> 0.38020276E+04</totfact>
</mgrwt>
</event>
<event>
 6    1  0.1535419E-002  0.9405248E+02  0.7546771E-02  0.1382288E+00
          2   -1    0    0  501    0  0.00000000000E+00  0.00000000000E+00  0.72565529081E+03  0.72565529081E+03  0.00000000000E+00 0. -1.
         -2   -1    0    0    0  501 -0.00000000000E+00 -0.00000000000E+00 -0.58996431437E+01  0.58996431437E+01  0.00000000000E+00 0.  1.
         23    2    1    2    0    0  0.18060750153E+02  0.85850227856E+01  0.68524266074E+03  0.69166709647E+03  0.91901985469E+02 0.  0.
         13    1    3    3    0    0  0.10816548733E+02 -0.19028673193E+02  0.62078080963E+03  0.62116656521E+03  0.00000000000E+00 0. -1.
        -13    1    3    3    0    0  0.72442014200E+01  0.27613695978E+02  0.64461851106E+02  0.70500531259E+02  0.00000000000E+00 0.  1.
         22    1    1    2    0    0 -0.18060750153E+02 -0.85850227856E+01  0.34512986927E+02  0.39887837481E+02  0.00000000000E+00 0.  1.
<mgrwt>
<rscale>  0 0.63866144E+02</rscale>
<asrwt>0</asrwt>
<pdfrwt beam="1">  1        2 0.11163921E+00 0.94052476E+02</pdfrwt>
<pdfrwt beam="2">  1       -2 0.90763798E-03 0.94052476E+02</pdfrwt>
<totfact> 0.86914030E+04</totfact>
</mgrwt>
</event>
<event>
 6    1  0.1535419E-002  0.8777078E+02  0.7546771E-02  0.1438467E+00
         -2   -1    0    0    0  501 -0.00000000000E+00  0.00000000000E+00  0.47453366249E+01  0.47453366249E+01  0.00000000000E+00 0.  1.
          2   -1    0    0  501    0  0.00000000000E+00 -0.00000000000E+00 -0.55205219335E+03  0.55205219335E+03  0.00000000000E+00 0. -1.
         23    2    1    2    0    0 -0.94985494544E+01  0.38274876860E+01 -0.52455226997E+03  0.53184470805E+03  0.87171310903E+02 0.  0.
         13    1    3    3    0    0  0.18030191069E+02  0.17246054172E+02 -0.45693225283E+03  0.45761293454E+03  0.00000000000E+00 0. -1.
        -13    1    3    3    0    0 -0.27528740523E+02 -0.13418566486E+02 -0.67620017135E+02  0.74231773511E+02  0.00000000000E+00 0.  1.
         22    1    1    2    0    0  0.94985494544E+01 -0.38274876860E+01 -0.22754586759E+02  0.24952821931E+02  0.00000000000E+00 0.  1.
<mgrwt>
<rscale>  0 0.51297354E+02</rscale>
<asrwt>0</asrwt>
<pdfrwt beam="1">  1        2 0.84931087E-01 0.87770778E+02</pdfrwt>
<pdfrwt beam="2">  1       -2 0.73005196E-03 0.87770778E+02</pdfrwt>
<totfact> 0.15959102E+05</totfact>
</mgrwt>
</event>
<event>
 6    1  0.1535419E-002  0.9525743E+02  0.7546771E-02  0.1361657E+00
         -2   -1    0    0    0  501 -0.00000000000E+00  0.00000000000E+00  0.75518081097E+01  0.75518081097E+01  0.00000000000E+00 0. -1.
          2   -1    0    0  501    0  0.00000000000E+00 -0.00000000000E+00 -0.81097651583E+03  0.81097651583E+03  0.00000000000E+00 0.  1.
         23    2    1    2    0    0  0.16618475453E+02  0.21353235877E+02 -0.76833680693E+03  0.77421923694E+03  0.91333693444E+02 0.  0.
         11    1    3    3    0    0  0.20375598072E+02 -0.71595597798E+01 -0.41230292643E+02  0.46544186795E+02  0.00000000000E+00 0. -1.
        -11    1    3    3    0    0 -0.37571226186E+01  0.28512795656E+02 -0.72710651429E+03  0.72767505015E+03  0.00000000000E+00 0.  1.
         22    1    1    2    0    0 -0.16618475453E+02 -0.21353235877E+02 -0.35087900793E+02  0.44309087001E+02  0.00000000000E+00 0. -1.
<mgrwt>
<rscale>  0 0.69542131E+02</rscale>
<asrwt>0</asrwt>
<pdfrwt beam="1">  1        2 0.12476562E+00 0.95257430E+02</pdfrwt>
<pdfrwt beam="2">  1       -2 0.11618167E-02 0.95257430E+02</pdfrwt>
<totfact> 0.53648750E+04</totfact>
</mgrwt>
</event>
<event>
 6    1  0.1535419E-002  0.9315446E+02  0.7546771E-02  0.1390652E+00
          2   -1    0    0  501    0  0.00000000000E+00  0.00000000000E+00  0.56378220898E+02  0.56378220898E+02  0.00000000000E+00 0. -1.
         -2   -1    0    0    0  501 -0.00000000000E+00 -0.00000000000E+00 -0.62896043910E+02  0.62896043910E+02  0.00000000000E+00 0.  1.
         23    2    1    2    0    0 -0.83813560691E+01 -0.15906964973E+02  0.11449814456E+02  0.93855479227E+02  0.91402812132E+02 0.  0.
         11    1    3    3    0    0  0.14184478383E+02  0.23957619274E+02  0.33046406448E+02  0.43211479116E+02  0.00000000000E+00 0. -1.
        -11    1    3    3    0    0 -0.22565834452E+02 -0.39864584246E+02 -0.21596591992E+02  0.50644000112E+02  0.00000000000E+00 0.  1.
         22    1    1    2    0    0  0.83813560691E+01  0.15906964973E+02 -0.17967637468E+02  0.25418785580E+02  0.00000000000E+00 0. -1.
<mgrwt>
<rscale>  0 0.61744724E+02</rscale>
<asrwt>0</asrwt>
<pdfrwt beam="1">  1        2 0.86735724E-02 0.93154456E+02</pdfrwt>
<pdfrwt beam="2">  1       -2 0.96763145E-02 0.93154456E+02</pdfrwt>
<totfact> 0.46413888E+04</totfact>
</mgrwt>
</event>
<event>
 6    1  0.1535419E-002  0.9586002E+02  0.7546771E-02  0.1370621E+00
         -2   -1    0    0    0  501 -0.00000000000E+00  0.00000000000E+00  0.75454746281E+01  0.75454746281E+01  0.00000000000E+00 0. -1.
          2   -1    0    0  501    0  0.00000000000E+00 -0.00000000000E+00 -0.71761312910E+03  0.71761312910E+03  0.00000000000E+00 0.  1.
         23    2    1    2    0    0  0.15058556568E+02  0.17211848429E+02 -0.68312760462E+03  0.68982060523E+03  0.93092079914E+02 0.  0.
         13    1    3    3    0    0  0.43719681136E+02 -0.18912091969E+02 -0.27486957248E+03  0.27896659229E+03  0.00000000000E+00 0. -1.
        -13    1    3    3    0    0 -0.28661124568E+02  0.36123940398E+02 -0.40825803214E+03  0.41085401293E+03  0.00000000000E+00 0.  1.
         22    1    1    2    0    0 -0.15058556568E+02 -0.17211848429E+02 -0.26940049844E+02  0.35337998498E+02  0.00000000000E+00 0. -1.
<mgrwt>
<rscale>  0 0.66994887E+02</rscale>
<asrwt>0</asrwt>
<pdfrwt beam="1">  1        2 0.11040204E+00 0.95860019E+02</pdfrwt>
<pdfrwt beam="2">  1       -2 0.11608421E-02 0.95860019E+02</pdfrwt>
<totfact> 0.62278207E+04</totfact>
</mgrwt>
</event>
<event>
 6    1  0.1535419E-002  0.9319768E+02  0.7546771E-02  0.1401543E+00
          2   -1    0    0  501    0  0.00000000000E+00  0.00000000000E+00  0.91352733212E+03  0.91352733212E+03  0.00000000000E+00 0. -1.
         -2   -1    0    0    0  501 -0.00000000000E+00 -0.00000000000E+00 -0.33091987926E+01  0.33091987926E+01  0.00000000000E+00 0.  1.
         23    2    1    2    0    0 -0.10470640561E+02 -0.10874297100E+02  0.82947899723E+03  0.83469827705E+03  0.91966962546E+02 0.  0.
         13    1    3    3    0    0 -0.31072571392E+02  0.22369938315E+02  0.17921561104E+03  0.18325979940E+03  0.00000000000E+00 0.  1.
        -13    1    3    3    0    0  0.20601930831E+02 -0.33244235414E+02  0.65026338619E+03  0.65143847765E+03  0.00000000000E+00 0. -1.
         22    1    1    2    0    0  0.10470640561E+02  0.10874297100E+02  0.80739136092E+02  0.82138253865E+02  0.00000000000E+00 0. -1.
<mgrwt>
<rscale>  0 0.59124597E+02</rscale>
<asrwt>0</asrwt>
<pdfrwt beam="1">  1        2 0.14054247E+00 0.93197676E+02</pdfrwt>
<pdfrwt beam="2">  1       -2 0.50910824E-03 0.93197676E+02</pdfrwt>
<totfact> 0.14751257E+05</totfact>
</mgrwt>
</event>
<event>
 6    1  0.1535419E-002  0.9300456E+02  0.7546771E-02  0.1418785E+00
          2   -1    0    0  501    0  0.00000000000E+00  0.00000000000E+00  0.89105284973E+03  0.89105284973E+03  0.00000000000E+00 0. -1.
         -2   -1    0    0    0  501 -0.00000000000E+00 -0.00000000000E+00 -0.31172763753E+01  0.31172763753E+01  0.00000000000E+00 0.  1.
         23    2    1    2    0    0  0.27496045757E+01  0.11276575813E+02  0.81905389736E+03  0.82431737544E+03  0.92277446798E+02 0.  0.
         13    1    3    3    0    0 -0.44757298023E+02  0.61105581865E+01  0.38519075300E+03  0.38783046663E+03  0.00000000000E+00 0. -1.
        -13    1    3    3    0    0  0.47506902598E+02  0.51660176266E+01  0.43386314436E+03  0.43648690882E+03  0.00000000000E+00 0.  1.
         22    1    1    2    0    0 -0.27496045757E+01 -0.11276575813E+02  0.68881675989E+02  0.69852750658E+02  0.00000000000E+00 0. -1.
<mgrwt>
<rscale>  0 0.55278697E+02</rscale>
<asrwt>0</asrwt>
<pdfrwt beam="1">  1        2 0.13708485E+00 0.93004563E+02</pdfrwt>
<pdfrwt beam="2">  1       -2 0.47958169E-03 0.93004563E+02</pdfrwt>
<totfact> 0.16557206E+05</totfact>
</mgrwt>
</event>
<event>
 6    1  0.1535419E-002  0.9882983E+02  0.7546771E-02  0.1337929E+00
          2   -1    0    0  501    0  0.00000000000E+00  0.00000000000E+00  0.10036101024E+04  0.10036101024E+04  0.00000000000E+00 0. -1.
         -2   -1    0    0    0  501 -0.00000000000E+00 -0.00000000000E+00 -0.15120340211E+02  0.15120340211E+02  0.00000000000E+00 0.  1.
         23    2    1    2    0    0  0.18459376605E+02  0.31287325642E+02  0.97497467037E+03  0.97997088846E+03  0.91911310711E+02 0.  0.
         13    1    3    3    0    0  0.36819319067E+02  0.38086763573E+02  0.29527606880E+03  0.29999036754E+03  0.00000000000E+00 0.  1.
        -13    1    3    3    0    0 -0.18359942462E+02 -0.67994379301E+01  0.67969860157E+03  0.67998052092E+03  0.00000000000E+00 0. -1.
         22    1    1    2    0    0 -0.18459376605E+02 -0.31287325642E+02  0.13515091808E+02  0.38759554139E+02  0.00000000000E+00 0.  1.
<mgrwt>
<rscale>  0 0.76952578E+02</rscale>
<asrwt>0</asrwt>
<pdfrwt beam="1">  1        2 0.15440150E+00 0.98829825E+02</pdfrwt>
<pdfrwt beam="2">  1       -2 0.23262070E-02 0.98829825E+02</pdfrwt>
<totfact> 0.15126946E+04</totfact>
</mgrwt>
</event>
<event>
 6    1  0.1535419E-002  0.9035331E+02  0.7546771E-02  0.1424959E+00
         -2   -1    0    0    0  501 -0.00000000000E+00  0.00000000000E+00  0.63339233696E+01  0.63339233696E+01  0.00000000000E+00 0.  1.
          2   -1    0    0  501    0  0.00000000000E+00 -0.00000000000E+00 -0.41728081944E+03  0.41728081944E+03  0.00000000000E+00 0. -1.
         23    2    1    2    0    0 -0.49457592092E+01  0.10399060780E+02 -0.38002294190E+03  0.39061638012E+03  0.89616510986E+02 0.  0.
         13    1    3    3    0    0  0.21420947516E+02 -0.79978124428E+01 -0.24013824083E+02  0.33158494288E+02  0.00000000000E+00 0.  1.
        -13    1    3    3    0    0 -0.26366706726E+02  0.18396873223E+02 -0.35600911782E+03  0.35745788583E+03  0.00000000000E+00 0. -1.
         22    1    1    2    0    0  0.49457592092E+01 -0.10399060780E+02 -0.30923954163E+02  0.32998362692E+02  0.00000000000E+00 0. -1.
<mgrwt>
<rscale>  0 0.53985408E+02</rscale>
<asrwt>0</asrwt>
<pdfrwt beam="1">  1        2 0.64197038E-01 0.90353307E+02</pdfrwt>
<pdfrwt beam="2">  1       -2 0.97444991E-03 0.90353307E+02</pdfrwt>
<totfact> 0.14411025E+05</totfact>
</mgrwt>
</event>
<event>
 6    1  0.1535419E-002  0.9414096E+02  0.7546771E-02  0.1347230E+00
         -4   -1    0    0    0  501 -0.00000000000E+00  0.00000000000E+00  0.95133674149E+01  0.95133674149E+01  0.00000000000E+00 0.  1.
          4   -1    0    0  501    0  0.00000000000E+00 -0.00000000000E+00 -0.44551871488E+03  0.44551871488E+03  0.00000000000E+00 0. -1.
         23    2    1    2    0    0 -0.29871174765E+02  0.19727059092E+02 -0.32851781258E+03  0.34174036107E+03  0.87069381876E+02 0.  0.
         11    1    3    3    0    0 -0.35418807422E+02 -0.25940043441E+02 -0.11009037635E+03  0.11852117422E+03  0.00000000000E+00 0. -1.
        -11    1    3    3    0    0  0.55476326563E+01  0.45667102533E+02 -0.21842743622E+03  0.22321918685E+03  0.00000000000E+00 0.  1.
         22    1    1    2    0    0  0.29871174765E+02 -0.19727059092E+02 -0.10748753489E+03  0.11329172123E+03  0.00000000000E+00 0.  1.
<mgrwt>
<rscale>  0 0.73925868E+02</rscale>
<asrwt>0</asrwt>
<pdfrwt beam="1">  1        4 0.68541353E-01 0.94140965E+02</pdfrwt>
<pdfrwt beam="2">  1       -4 0.14635947E-02 0.94140965E+02</pdfrwt>
<totfact> 0.48845239E+03</totfact>
</mgrwt>
</event>
<event>
 6    1  0.1535419E-002  0.8601258E+02  0.7546771E-02  0.1440169E+00
          1   -1    0    0  501    0  0.00000000000E+00  0.00000000000E+00  0.17389490197E+03  0.17389490197E+03  0.00000000000E+00 0. -1.
         -1   -1    0    0    0  501 -0.00000000000E+00 -0.00000000000E+00 -0.17236137363E+02  0.17236137363E+02  0.00000000000E+00 0.  1.
         23    2    1    2    0    0 -0.51591161143E+01 -0.92690229459E+01  0.15852871376E+03  0.18035941108E+03  0.85355918442E+02 0.  0.
         11    1    3    3    0    0  0.76865417742E+01  0.29499774339E+02  0.21317547638E+02  0.37198890411E+02  0.00000000000E+00 0.  1.
        -11    1    3    3    0    0 -0.12845657888E+02 -0.38768797285E+02  0.13721116612E+03  0.14316052067E+03  0.00000000000E+00 0. -1.
         22    1    1    2    0    0  0.51591161143E+01  0.92690229459E+01 -0.18699491514E+01  0.10771628256E+02  0.00000000000E+00 0.  1.
<mgrwt>
<rscale>  0 0.50971878E+02</rscale>
<asrwt>0</asrwt>
<pdfrwt beam="1">  1        1 0.26753061E-01 0.86012581E+02</pdfrwt>
<pdfrwt beam="2">  1       -1 0.26517136E-02 0.86012581E+02</pdfrwt>
<totfact> 0.67694980E+04</totfact>
</mgrwt>
</event>
<event>
 6    1  0.1535419E-002  0.1078454E+03  0.7546771E-02  0.1300435E+00
          2   -1    0    0  501    0  0.00000000000E+00  0.00000000000E+00  0.10598769834E+04  0.10598769834E+04  0.00000000000E+00 0. -1.
         -2   -1    0    0    0  501 -0.00000000000E+00 -0.00000000000E+00 -0.11648416776E+02  0.11648416776E+02  0.00000000000E+00 0.  1.
         23    2    1    2    0    0 -0.52287970998E+02  0.16009977929E+02  0.97058198339E+03  0.97655517752E+03  0.92953090074E+02 0.  0.
         11    1    3    3    0    0 -0.59868073034E+02  0.33780457444E+02  0.41634645406E+03  0.42198302724E+03  0.00000000000E+00 0.  1.
        -11    1    3    3    0    0  0.75801020358E+01 -0.17770479515E+02  0.55423552933E+03  0.55457215028E+03  0.00000000000E+00 0. -1.
         22    1    1    2    0    0  0.52287970998E+02 -0.16009977929E+02  0.77646583254E+02  0.94970222677E+02  0.00000000000E+00 0.  1.
<mgrwt>
<rscale>  0 0.91005254E+02</rscale>
<asrwt>0</asrwt>
<pdfrwt beam="1">  1        2 0.16305792E+00 0.10784539E+03</pdfrwt>
<pdfrwt beam="2">  1       -2 0.17920650E-02 0.10784539E+03</pdfrwt>
<totfact> 0.20575659E+04</totfact>
</mgrwt>
</event>
<event>
 6    1  0.1535419E-002  0.9305013E+02  0.7546771E-02  0.1414095E+00
          2   -1    0    0  501    0  0.00000000000E+00  0.00000000000E+00  0.65469391524E+02  0.65469391524E+02  0.00000000000E+00 0. -1.
         -2   -1    0    0    0  501 -0.00000000000E+00 -0.00000000000E+00 -0.49094203725E+02  0.49094203725E+02  0.00000000000E+00 0.  1.
         23    2    1    2    0    0  0.11544745268E+02  0.46913309468E+01  0.28358128393E+02  0.97275431823E+02  0.92211910624E+02 0.  0.
         11    1    3    3    0    0 -0.17529850534E+02 -0.24525557521E+02  0.43874541987E+02  0.53233204544E+02  0.00000000000E+00 0. -1.
        -11    1    3    3    0    0  0.29074595803E+02  0.29216888468E+02 -0.15516413594E+02  0.44042227279E+02  0.00000000000E+00 0.  1.
         22    1    1    2    0    0 -0.11544745268E+02 -0.46913309468E+01 -0.11982940594E+02  0.17288163426E+02  0.00000000000E+00 0. -1.
<mgrwt>
<rscale>  0 0.56289912E+02</rscale>
<asrwt>0</asrwt>
<pdfrwt beam="1">  1        2 0.10072214E-01 0.93050127E+02</pdfrwt>
<pdfrwt beam="2">  1       -2 0.75529544E-02 0.93050127E+02</pdfrwt>
<totfact> 0.56577901E+04</totfact>
</mgrwt>
</event>
<event>
 6    1  0.1535419E-002  0.1111377E+03  0.7546771E-02  0.1314281E+00
         -2   -1    0    0    0  501 -0.00000000000E+00  0.00000000000E+00  0.10022175044E+02  0.10022175044E+02  0.00000000000E+00 0.  1.
          2   -1    0    0  501    0  0.00000000000E+00 -0.00000000000E+00 -0.69398553519E+03  0.69398553519E+03  0.00000000000E+00 0. -1.
         23    2    1    2    0    0  0.38822801862E+02 -0.29532356845E+00 -0.61415401299E+03  0.62412878866E+03  0.10413594966E+03 0.  0.
         11    1    3    3    0    0 -0.31999842185E+02 -0.17671962241E+01 -0.31843504388E+03  0.32004373147E+03  0.00000000000E+00 0. -1.
        -11    1    3    3    0    0  0.70822644047E+02  0.14718726557E+01 -0.29571896910E+03  0.30408505719E+03  0.00000000000E+00 0.  1.
         22    1    1    2    0    0 -0.38822801862E+02  0.29532356845E+00 -0.69809347160E+02  0.79878921571E+02  0.00000000000E+00 0.  1.
<mgrwt>
<rscale>  0 0.85441916E+02</rscale>
<asrwt>0</asrwt>
<pdfrwt beam="1">  1        2 0.10676700E+00 0.11113772E+03</pdfrwt>
<pdfrwt beam="2">  1       -2 0.15418732E-02 0.11113772E+03</pdfrwt>
<totfact> 0.43933527E+04</totfact>
</mgrwt>
</event>
<event>
 6    1  0.1535419E-002  0.9338544E+02  0.7546771E-02  0.1423348E+00
         -2   -1    0    0    0  501 -0.00000000000E+00  0.00000000000E+00  0.39885919532E+02  0.39885919532E+02  0.00000000000E+00 0.  1.
          2   -1    0    0  501    0  0.00000000000E+00 -0.00000000000E+00 -0.71371488603E+02  0.71371488603E+02  0.00000000000E+00 0. -1.
         23    2    1    2    0    0  0.24020214583E+01  0.10416340647E+02 -0.35405177513E+02  0.99871750934E+02  0.92771602231E+02 0.  0.
         13    1    3    3    0    0  0.34109181994E+02 -0.20302294600E+02 -0.38911759057E+02  0.55585469822E+02  0.00000000000E+00 0. -1.
        -13    1    3    3    0    0 -0.31707160536E+02  0.30718635247E+02  0.35065815444E+01  0.44286281113E+02  0.00000000000E+00 0.  1.
         22    1    1    2    0    0 -0.24020214583E+01 -0.10416340647E+02  0.39196084416E+01  0.11385657201E+02  0.00000000000E+00 0.  1.
<mgrwt>
<rscale>  0 0.54318883E+02</rscale>
<asrwt>0</asrwt>
<pdfrwt beam="1">  1        2 0.10980229E-01 0.93385438E+02</pdfrwt>
<pdfrwt beam="2">  1       -2 0.61362954E-02 0.93385438E+02</pdfrwt>
<totfact> 0.69847322E+04</totfact>
</mgrwt>
</event>
<event>
 6    1  0.1535419E-002  0.9314234E+02  0.7546771E-02  0.1392509E+00
         -4   -1    0    0    0  501 -0.00000000000E+00  0.00000000000E+00  0.35642922936E+02  0.35642922936E+02  0.00000000000E+00 0.  1.
          4   -1    0    0  501    0  0.00000000000E+00 -0.00000000000E+00 -0.11772132350E+03  0.11772132350E+03  0.00000000000E+00 0. -1.
         23    2    1    2    0    0 -0.15393955941E+02  0.82375414388E+01 -0.93915078047E+02  0.13227069524E+03  0.91491332740E+02 0.  0.
         11    1    3    3    0    0  0.25611416022E+02  0.35134276544E+02 -0.51804742237E+02  0.67632043716E+02  0.00000000000E+00 0. -1.
        -11    1    3    3    0    0 -0.41005371962E+02 -0.26896735105E+02 -0.42110335810E+02  0.64638651526E+02  0.00000000000E+00 0.  1.
         22    1    1    2    0    0  0.15393955941E+02 -0.82375414388E+01  0.11836677478E+02  0.21093551199E+02  0.00000000000E+00 0.  1.
<mgrwt>
<rscale>  0 0.61286911E+02</rscale>
<asrwt>0</asrwt>
<pdfrwt beam="1">  1        4 0.18110973E-01 0.93142337E+02</pdfrwt>
<pdfrwt beam="2">  1       -4 0.54835266E-02 0.93142337E+02</pdfrwt>
<totfact> 0.81425970E+03</totfact>
</mgrwt>
</event>
<event>
 6    1  0.1535419E-002  0.9170450E+02  0.7546771E-02  0.1382839E+00
         -2   -1    0    0    0  501 -0.00000000000E+00  0.00000000000E+00  0.52266176635E+01  0.52266176635E+01  0.00000000000E+00 0.  1.
          2   -1    0    0  501    0  0.00000000000E+00 -0.00000000000E+00 -0.18535337367E+04  0.18535337367E+04  0.00000000000E+00 0. -1.
         23    2    1    2    0    0 -0.21348223654E+02  0.11789243536E+01 -0.18243362237E+04  0.18266396392E+04  0.89177228502E+02 0.  0.
         11    1    3    3    0    0 -0.22576393546E+02 -0.12344921078E+02 -0.17818553152E+04  0.17820410924E+04  0.00000000000E+00 0. -1.
        -11    1    3    3    0    0  0.12281698916E+01  0.13523845431E+02 -0.42480908491E+02  0.44598546869E+02  0.00000000000E+00 0.  1.
         22    1    1    2    0    0  0.21348223654E+02 -0.11789243536E+01 -0.23970895342E+02  0.32120715112E+02  0.00000000000E+00 0.  1.
<mgrwt>
<rscale>  0 0.63723366E+02</rscale>
<asrwt>0</asrwt>
<pdfrwt beam="1">  1        2 0.28515943E+00 0.91704496E+02</pdfrwt>
<pdfrwt beam="2">  1       -2 0.80409392E-03 0.91704496E+02</pdfrwt>
<totfact> 0.24460430E+04</totfact>
</mgrwt>
</event>
<event>
 6    1  0.1535419E-002  0.9072006E+02  0.7546771E-02  0.1407476E+00
         -3   -1    0    0    0  501 -0.00000000000E+00  0.00000000000E+00  0.13031867639E+03  0.13031867639E+03  0.00000000000E+00 0.  1.
          3   -1    0    0  501    0  0.00000000000E+00 -0.00000000000E+00 -0.21580673892E+02  0.21580673892E+02  0.00000000000E+00 0. -1.
         23    2    1    2    0    0  0.10886807646E+02  0.10184970982E+02  0.88264866788E+02  0.12657336559E+03  0.89486725016E+02 0.  0.
         11    1    3    3    0    0  0.14481066493E+02 -0.36814090698E+02  0.59184495209E+02  0.71188363051E+02  0.00000000000E+00 0.  1.
        -11    1    3    3    0    0 -0.35942588475E+01  0.46999061681E+02  0.29080371579E+02  0.55385002543E+02  0.00000000000E+00 0. -1.
         22    1    1    2    0    0 -0.10886807646E+02 -0.10184970982E+02  0.20473135710E+02  0.25325984688E+02  0.00000000000E+00 0.  1.
<mgrwt>
<rscale>  0 0.57760940E+02</rscale>
<asrwt>0</asrwt>
<pdfrwt beam="1">  1        3 0.33201038E-02 0.90720065E+02</pdfrwt>
<pdfrwt beam="2">  1       -3 0.20049027E-01 0.90720065E+02</pdfrwt>
<totfact> 0.19835660E+04</totfact>
</mgrwt>
</event>
<event>
 6    1  0.1535419E-002  0.9263131E+02  0.7546771E-02  0.1414599E+00
          2   -1    0    0  501    0  0.00000000000E+00  0.00000000000E+00  0.66428569235E+02  0.66428569235E+02  0.00000000000E+00 0. -1.
         -2   -1    0    0    0  501 -0.00000000000E+00 -0.00000000000E+00 -0.54621326487E+02  0.54621326487E+02  0.00000000000E+00 0.  1.
         23    2    1    2    0    0  0.87656130423E+01  0.89577765903E+01  0.31385292373E+02  0.97803868952E+02  0.91779531876E+02 0.  0.
         11    1    3    3    0    0  0.98956883460E+01  0.35034397076E+00 -0.32169482158E+02  0.33658921122E+02  0.00000000000E+00 0.  1.
        -11    1    3    3    0    0 -0.11300753036E+01  0.86074326196E+01  0.63554774531E+02  0.64144947831E+02  0.00000000000E+00 0. -1.
         22    1    1    2    0    0 -0.87656130423E+01 -0.89577765903E+01 -0.19578049625E+02  0.23246026770E+02  0.00000000000E+00 0.  1.
<mgrwt>
<rscale>  0 0.56180124E+02</rscale>
<asrwt>0</asrwt>
<pdfrwt beam="1">  1        2 0.10219780E-01 0.92631313E+02</pdfrwt>
<pdfrwt beam="2">  1       -2 0.84032810E-02 0.92631313E+02</pdfrwt>
<totfact> 0.47195455E+04</totfact>
</mgrwt>
</event>
<event>
 6    1  0.1535419E-002  0.7910276E+02  0.7546771E-02  0.1457946E+00
         -2   -1    0    0    0  501 -0.00000000000E+00  0.00000000000E+00  0.85580576446E+02  0.85580576446E+02  0.00000000000E+00 0.  1.
          2   -1    0    0  501    0  0.00000000000E+00 -0.00000000000E+00 -0.32485503734E+02  0.32485503734E+02  0.00000000000E+00 0. -1.
         23    2    1    2    0    0 -0.98448841470E+01  0.36259674710E+01  0.17578549591E+02  0.81032409032E+02  0.78403931814E+02 0.  0.
         13    1    3    3    0    0  0.13738671710E+02  0.24061741596E+02  0.35510540791E+02  0.45041281246E+02  0.00000000000E+00 0.  1.
        -13    1    3    3    0    0 -0.23583555857E+02 -0.20435774125E+02 -0.17931991201E+02  0.35991127787E+02  0.00000000000E+00 0. -1.
         22    1    1    2    0    0  0.98448841470E+01 -0.36259674710E+01  0.35516523121E+02  0.37033671147E+02  0.00000000000E+00 0. -1.
<mgrwt>
<rscale>  0 0.47736660E+02</rscale>
<asrwt>0</asrwt>
<pdfrwt beam="1">  1        2 0.49977698E-02 0.79102755E+02</pdfrwt>
<pdfrwt beam="2">  1       -2 0.13166242E-01 0.79102755E+02</pdfrwt>
<totfact> 0.55948662E+04</totfact>
</mgrwt>
</event>
<event>
 6    1  0.1535419E-002  0.9080793E+02  0.7546771E-02  0.1398544E+00
          2   -1    0    0  501    0  0.00000000000E+00  0.00000000000E+00  0.16081867591E+03  0.16081867591E+03  0.00000000000E+00 0. -1.
         -2   -1    0    0    0  501 -0.00000000000E+00 -0.00000000000E+00 -0.25874183964E+02  0.25874183964E+02  0.00000000000E+00 0.  1.
         23    2    1    2    0    0 -0.86170141834E+00  0.17091080829E+02  0.14169559583E+03  0.16829652934E+03  0.89180896704E+02 0.  0.
         11    1    3    3    0    0  0.17940311278E+02 -0.32053750906E+02  0.73431407459E+02  0.82106451131E+02  0.00000000000E+00 0. -1.
        -11    1    3    3    0    0 -0.18802012696E+02  0.49144831736E+02  0.68264188370E+02  0.86190078208E+02  0.00000000000E+00 0.  1.
         22    1    1    2    0    0  0.86170141834E+00 -0.17091080829E+02 -0.67511038884E+01  0.18396330530E+02  0.00000000000E+00 0.  1.
<mgrwt>
<rscale>  0 0.59830555E+02</rscale>
<asrwt>0</asrwt>
<pdfrwt beam="1">  1        2 0.24741334E-01 0.90807929E+02</pdfrwt>
<pdfrwt beam="2">  1       -2 0.39806438E-02 0.90807929E+02</pdfrwt>
<totfact> 0.52237838E+04</totfact>
</mgrwt>
</event>
<event>
 6    1  0.1535419E-002  0.9372250E+02  0.7546771E-02  0.1383472E+00
          3   -1    0    0  501    0  0.00000000000E+00  0.00000000000E+00  0.45212386111E+03  0.45212386111E+03  0.00000000000E+00 0. -1.
         -3   -1    0    0    0  501 -0.00000000000E+00 -0.00000000000E+00 -0.71290905311E+01  0.71290905311E+01  0.00000000000E+00 0.  1.
         23    2    1    2    0    0  0.15106501281E+02 -0.12837310128E+02  0.36765370465E+03  0.37941158773E+03  0.91601874698E+02 0.  0.
         13    1    3    3    0    0  0.67812515934E+01  0.28079872069E+02  0.28829046048E+03  0.28973410947E+03  0.00000000000E+00 0. -1.
        -13    1    3    3    0    0  0.83252496872E+01 -0.40917182197E+02  0.79363244177E+02  0.89677478263E+02  0.00000000000E+00 0.  1.
         22    1    1    2    0    0 -0.15106501281E+02  0.12837310128E+02  0.77341065922E+02  0.79841363905E+02  0.00000000000E+00 0. -1.
<mgrwt>
<rscale>  0 0.63559776E+02</rscale>
<asrwt>0</asrwt>
<pdfrwt beam="1">  1        3 0.69557494E-01 0.93722497E+02</pdfrwt>
<pdfrwt beam="2">  1       -3 0.10967835E-02 0.93722497E+02</pdfrwt>
<totfact> 0.10010861E+04</totfact>
</mgrwt>
</event>
<event>
 6    1  0.1535419E-002  0.9364545E+02  0.7546771E-02  0.1406026E+00
          2   -1    0    0  501    0  0.00000000000E+00  0.00000000000E+00  0.71364442581E+01  0.71364442581E+01  0.00000000000E+00 0.  1.
         -2   -1    0    0    0  501 -0.00000000000E+00 -0.00000000000E+00 -0.40751415909E+03  0.40751415909E+03  0.00000000000E+00 0. -1.
         23    2    1    2    0    0  0.83863871547E+01  0.11042244155E+02 -0.33665700608E+03  0.34943870743E+03  0.92613216452E+02 0.  0.
         11    1    3    3    0    0  0.34716877969E+02  0.19644248214E+02 -0.64240064355E+02  0.75617087831E+02  0.00000000000E+00 0.  1.
        -11    1    3    3    0    0 -0.26330490814E+02 -0.86020040594E+01 -0.27241694172E+03  0.27382161960E+03  0.00000000000E+00 0. -1.
         22    1    1    2    0    0 -0.83863871547E+01 -0.11042244155E+02 -0.63720708753E+02  0.65211895920E+02  0.00000000000E+00 0.  1.
<mgrwt>
<rscale>  0 0.58090067E+02</rscale>
<asrwt>0</asrwt>
<pdfrwt beam="1">  1        2 0.10979145E-02 0.93645451E+02</pdfrwt>
<pdfrwt beam="2">  1       -2 0.62694489E-01 0.93645451E+02</pdfrwt>
<totfact> 0.26703679E+04</totfact>
</mgrwt>
</event>
<event>
 6    1  0.1535419E-002  0.9478866E+02  0.7546771E-02  0.1364229E+00
          2   -1    0    0  501    0  0.00000000000E+00  0.00000000000E+00  0.14358225183E+03  0.14358225183E+03  0.00000000000E+00 0. -1.
         -2   -1    0    0    0  501 -0.00000000000E+00 -0.00000000000E+00 -0.27181662348E+02  0.27181662348E+02  0.00000000000E+00 0.  1.
         23    2    1    2    0    0 -0.25090390002E+02  0.79005349048E+01  0.10671153588E+03  0.14273136378E+03  0.91065603786E+02 0.  0.
         11    1    3    3    0    0  0.24899724707E+02  0.29726827815E+02  0.56936875536E+02  0.68887505241E+02  0.00000000000E+00 0. -1.
        -11    1    3    3    0    0 -0.49990114710E+02 -0.21826292910E+02  0.49774660345E+02  0.73843858535E+02  0.00000000000E+00 0.  1.
         22    1    1    2    0    0  0.25090390002E+02 -0.79005349048E+01  0.96890535983E+01  0.28032550399E+02  0.00000000000E+00 0. -1.
<mgrwt>
<rscale>  0 0.68798081E+02</rscale>
<asrwt>0</asrwt>
<pdfrwt beam="1">  1        2 0.22089577E-01 0.94788661E+02</pdfrwt>
<pdfrwt beam="2">  1       -2 0.41817943E-02 0.94788661E+02</pdfrwt>
<totfact> 0.55338750E+04</totfact>
</mgrwt>
</event>
<event>
 6    1  0.1535419E-002  0.9148972E+02  0.7546771E-02  0.1405402E+00
          2   -1    0    0  501    0  0.00000000000E+00  0.00000000000E+00  0.59194675625E+02  0.59194675625E+02  0.00000000000E+00 0. -1.
         -2   -1    0    0    0  501 -0.00000000000E+00 -0.00000000000E+00 -0.66064424118E+02  0.66064424118E+02  0.00000000000E+00 0.  1.
         23    2    1    2    0    0 -0.80601227933E+00 -0.14994205082E+02  0.20757422916E+02  0.93814919966E+02  0.90249059609E+02 0.  0.
         13    1    3    3    0    0  0.16460997749E+01  0.20304857273E+02  0.46027216006E+02  0.50333899974E+02  0.00000000000E+00 0. -1.
        -13    1    3    3    0    0 -0.24521120542E+01 -0.35299062355E+02 -0.25269793090E+02  0.43481019992E+02  0.00000000000E+00 0.  1.
         22    1    1    2    0    0  0.80601227933E+00  0.14994205082E+02 -0.27627171408E+02  0.31444179777E+02  0.00000000000E+00 0.  1.
<mgrwt>
<rscale>  0 0.58232672E+02</rscale>
<asrwt>0</asrwt>
<pdfrwt beam="1">  1        2 0.91068732E-02 0.91489719E+02</pdfrwt>
<pdfrwt beam="2">  1       -2 0.10163757E-01 0.91489719E+02</pdfrwt>
<totfact> 0.40404166E+04</totfact>
</mgrwt>
</event>
<event>
 6    1  0.1535419E-002  0.1079746E+03  0.7546771E-02  0.1283494E+00
          2   -1    0    0  501    0  0.00000000000E+00  0.00000000000E+00  0.89271480422E+03  0.89271480422E+03  0.00000000000E+00 0.  1.
         -2   -1    0    0    0  501 -0.00000000000E+00 -0.00000000000E+00 -0.12491028682E+02  0.12491028682E+02  0.00000000000E+00 0. -1.
         23    2    1    2    0    0  0.12656655446E+02 -0.73682847537E+02  0.72408451511E+03  0.73209077984E+03  0.77904890498E+02 0.  0.
         11    1    3    3    0    0 -0.32813376665E+02 -0.33648405836E+02  0.28572583878E+03  0.28956551564E+03  0.00000000000E+00 0. -1.
        -11    1    3    3    0    0  0.45470032111E+02 -0.40034441701E+02  0.43835867633E+03  0.44252526420E+03  0.00000000000E+00 0.  1.
         22    1    1    2    0    0 -0.12656655446E+02  0.73682847537E+02  0.15613926043E+03  0.17311505306E+03  0.00000000000E+00 0. -1.
<mgrwt>
<rscale>  0 0.98494401E+02</rscale>
<asrwt>0</asrwt>
<pdfrwt beam="1">  1        2 0.13734069E+00 0.10797465E+03</pdfrwt>
<pdfrwt beam="2">  1       -2 0.19216974E-02 0.10797465E+03</pdfrwt>
<totfact> 0.23434519E+04</totfact>
</mgrwt>
</event>
<event>
 6    1  0.1535419E-002  0.9851195E+02  0.7546771E-02  0.1333339E+00
          1   -1    0    0  501    0  0.00000000000E+00  0.00000000000E+00  0.68091918834E+02  0.68091918834E+02  0.00000000000E+00 0. -1.
         -1   -1    0    0    0  501 -0.00000000000E+00 -0.00000000000E+00 -0.70479483903E+02  0.70479483903E+02  0.00000000000E+00 0.  1.
         23    2    1    2    0    0 -0.27697450531E+02  0.28493756160E+02  0.24392939055E+01  0.98542145017E+02  0.90141895275E+02 0.  0.
         13    1    3    3    0    0 -0.47642512408E+02  0.90453148830E+01  0.31861581060E+02  0.58024021384E+02  0.00000000000E+00 0. -1.
        -13    1    3    3    0    0  0.19945061877E+02  0.19448441277E+02 -0.29422287155E+02  0.40518123634E+02  0.00000000000E+00 0.  1.
         22    1    1    2    0    0  0.27697450531E+02 -0.28493756160E+02 -0.48268589746E+01  0.40029257720E+02  0.00000000000E+00 0.  1.
<mgrwt>
<rscale>  0 0.78508364E+02</rscale>
<asrwt>0</asrwt>
<pdfrwt beam="1">  1        1 0.10475680E-01 0.98511949E+02</pdfrwt>
<pdfrwt beam="2">  1       -1 0.10842998E-01 0.98511949E+02</pdfrwt>
<totfact> 0.28600693E+04</totfact>
</mgrwt>
</event>
<event>
 6    1  0.1535419E-002  0.9409691E+02  0.7546771E-02  0.1378420E+00
         -2   -1    0    0    0  501 -0.00000000000E+00  0.00000000000E+00  0.74760100599E+02  0.74760100599E+02  0.00000000000E+00 0.  1.
          2   -1    0    0  501    0  0.00000000000E+00 -0.00000000000E+00 -0.64812611780E+02  0.64812611780E+02  0.00000000000E+00 0. -1.
         23    2    1    2    0    0 -0.36306663738E+00 -0.21265737206E+02 -0.26160947659E+02  0.97665880225E+02  0.91661690915E+02 0.  0.
         13    1    3    3    0    0  0.76393866286E+00  0.35839457865E+02 -0.17519129941E+02  0.39899501954E+02  0.00000000000E+00 0.  1.
        -13    1    3    3    0    0 -0.11270053002E+01 -0.57105195071E+02 -0.86418177178E+01  0.57766378271E+02  0.00000000000E+00 0. -1.
         22    1    1    2    0    0  0.36306663738E+00  0.21265737206E+02  0.36108436477E+02  0.41906832154E+02  0.00000000000E+00 0. -1.
<mgrwt>
<rscale>  0 0.64880989E+02</rscale>
<asrwt>0</asrwt>
<pdfrwt beam="1">  1        2 0.99711710E-02 0.94096913E+02</pdfrwt>
<pdfrwt beam="2">  1       -2 0.11501554E-01 0.94096913E+02</pdfrwt>
<totfact> 0.29912741E+04</totfact>
</mgrwt>
</event>
<event>
 6    1  0.1535419E-002  0.9821220E+02  0.7546771E-02  0.1345427E+00
         -2   -1    0    0    0  501 -0.00000000000E+00  0.00000000000E+00  0.74078248595E+01  0.74078248595E+01  0.00000000000E+00 0.  1.
          2   -1    0    0  501    0  0.00000000000E+00 -0.00000000000E+00 -0.63610070017E+03  0.63610070017E+03  0.00000000000E+00 0. -1.
         23    2    1    2    0    0  0.76336286366E+01 -0.31609553740E+02 -0.54386179009E+03  0.55265837812E+03  0.92672541850E+02 0.  0.
         11    1    3    3    0    0  0.48919939479E+02 -0.28394804234E+02 -0.33275691752E+03  0.33753013427E+03  0.00000000000E+00 0. -1.
        -11    1    3    3    0    0 -0.41286310842E+02 -0.32147495058E+01 -0.21110487257E+03  0.21512824384E+03  0.00000000000E+00 0.  1.
         22    1    1    2    0    0 -0.76336286366E+01  0.31609553740E+02 -0.84831085227E+02  0.90850146915E+02  0.00000000000E+00 0.  1.
<mgrwt>
<rscale>  0 0.74499927E+02</rscale>
<asrwt>0</asrwt>
<pdfrwt beam="1">  1        2 0.97861618E-01 0.98212200E+02</pdfrwt>
<pdfrwt beam="2">  1       -2 0.11396657E-02 0.98212200E+02</pdfrwt>
<totfact> 0.73733495E+04</totfact>
</mgrwt>
</event>
<event>
 6    1  0.1535419E-002  0.9576609E+02  0.7546771E-02  0.1366072E+00
          2   -1    0    0  501    0  0.00000000000E+00  0.00000000000E+00  0.19472583618E+02  0.19472583618E+02  0.00000000000E+00 0. -1.
         -2   -1    0    0    0  501 -0.00000000000E+00 -0.00000000000E+00 -0.19636607129E+03  0.19636607129E+03  0.00000000000E+00 0.  1.
         23    2    1    2    0    0 -0.24048473755E+02 -0.57892837697E+01 -0.11806427003E+03  0.15202077540E+03  0.92516481769E+02 0.  0.
         13    1    3    3    0    0 -0.10453425535E+02  0.33397461407E+02 -0.10148974044E+03  0.10735377007E+03  0.00000000000E+00 0.  1.
        -13    1    3    3    0    0 -0.13595048220E+02 -0.39186745177E+02 -0.16574529583E+02  0.44667005323E+02  0.00000000000E+00 0. -1.
         22    1    1    2    0    0  0.24048473755E+02  0.57892837697E+01 -0.58829217648E+02  0.63817879513E+02  0.00000000000E+00 0. -1.
<mgrwt>
<rscale>  0 0.68271429E+02</rscale>
<asrwt>0</asrwt>
<pdfrwt beam="1">  1        2 0.29957821E-02 0.95766092E+02</pdfrwt>
<pdfrwt beam="2">  1       -2 0.30210165E-01 0.95766092E+02</pdfrwt>
<totfact> 0.27869146E+04</totfact>
</mgrwt>
</event>
<event>
 6    1  0.1535419E-002  0.9049167E+02  0.7546771E-02  0.1392071E+00
         -2   -1    0    0    0  501 -0.00000000000E+00  0.00000000000E+00  0.68327591407E+01  0.68327591407E+01  0.00000000000E+00 0.  1.
          2   -1    0    0  501    0  0.00000000000E+00 -0.00000000000E+00 -0.52492455609E+03  0.52492455609E+03  0.00000000000E+00 0. -1.
         23    2    1    2    0    0 -0.13389268370E+02 -0.13723746280E+02 -0.48617045011E+03  0.49452042353E+03  0.88437147228E+02 0.  0.
         13    1    3    3    0    0  0.35146866941E+02  0.91191958359E+01 -0.22323116628E+03  0.22616501848E+03  0.00000000000E+00 0.  1.
        -13    1    3    3    0    0 -0.48536135311E+02 -0.22842942116E+02 -0.26293928383E+03  0.26835540505E+03  0.00000000000E+00 0. -1.
         22    1    1    2    0    0  0.13389268370E+02  0.13723746280E+02 -0.31921346844E+02  0.37236891704E+02  0.00000000000E+00 0.  1.
<mgrwt>
<rscale>  0 0.61394635E+02</rscale>
<asrwt>0</asrwt>
<pdfrwt beam="1">  1        2 0.80757608E-01 0.90491672E+02</pdfrwt>
<pdfrwt beam="2">  1       -2 0.10511939E-02 0.90491672E+02</pdfrwt>
<totfact> 0.10125867E+05</totfact>
</mgrwt>
</event>
<event>
 6    1  0.1535419E-002  0.9119926E+02  0.7546771E-02  0.1411309E+00
          2   -1    0    0  501    0  0.00000000000E+00  0.00000000000E+00  0.21121424363E+04  0.21121424363E+04  0.00000000000E+00 0.  1.
         -2   -1    0    0    0  501 -0.00000000000E+00 -0.00000000000E+00 -0.32538732364E+01  0.32538732364E+01  0.00000000000E+00 0. -1.
         23    2    1    2    0    0  0.13643908011E+02  0.22098738548E+01  0.20900102365E+04  0.20919990665E+04  0.90145803156E+02 0.  0.
         13    1    3    3    0    0  0.19828180996E+01  0.31993264970E+01  0.26434321672E+01  0.45994555409E+01  0.00000000000E+00 0. -1.
        -13    1    3    3    0    0  0.11661089912E+02 -0.98945264217E+00  0.20873668043E+04  0.20873996109E+04  0.00000000000E+00 0.  1.
         22    1    1    2    0    0 -0.13643908011E+02 -0.22098738548E+01  0.18878326650E+02  0.23397243115E+02  0.00000000000E+00 0. -1.
<mgrwt>
<rscale>  0 0.56902844E+02</rscale>
<asrwt>0</asrwt>
<pdfrwt beam="1">  1        2 0.32494389E+00 0.91199263E+02</pdfrwt>
<pdfrwt beam="2">  1       -2 0.50059757E-03 0.91199263E+02</pdfrwt>
<totfact> 0.35287870E+04</totfact>
</mgrwt>
</event>
<event>
 6    1  0.1535419E-002  0.9547112E+02  0.7546771E-02  0.1355635E+00
          2   -1    0    0  501    0  0.00000000000E+00  0.00000000000E+00  0.22297963006E+02  0.22297963006E+02  0.00000000000E+00 0. -1.
         -2   -1    0    0    0  501 -0.00000000000E+00 -0.00000000000E+00 -0.21120582349E+03  0.21120582349E+03  0.00000000000E+00 0.  1.
         23    2    1    2    0    0 -0.28948307526E+02  0.68403751519E+01 -0.93749594485E+02  0.13380478535E+03  0.90719010558E+02 0.  0.
         11    1    3    3    0    0 -0.12062120687E+02  0.23942416912E+02 -0.10420271017E+03  0.10759618436E+03  0.00000000000E+00 0.  1.
        -11    1    3    3    0    0 -0.16886186840E+02 -0.17102041760E+02  0.10453115684E+02  0.26208600990E+02  0.00000000000E+00 0. -1.
         22    1    1    2    0    0  0.28948307526E+02 -0.68403751519E+01 -0.95158266000E+02  0.99699001144E+02  0.00000000000E+00 0.  1.
<mgrwt>
<rscale>  0 0.71327885E+02</rscale>
<asrwt>0</asrwt>
<pdfrwt beam="1">  1        2 0.34304560E-02 0.95471117E+02</pdfrwt>
<pdfrwt beam="2">  1       -2 0.32493202E-01 0.95471117E+02</pdfrwt>
<totfact> 0.20420535E+04</totfact>
</mgrwt>
</event>
<event>
 6    1  0.1535419E-002  0.9204309E+02  0.7546771E-02  0.1407831E+00
          2   -1    0    0  501    0  0.00000000000E+00  0.00000000000E+00  0.31265977272E+02  0.31265977272E+02  0.00000000000E+00 0.  1.
         -2   -1    0    0    0  501 -0.00000000000E+00 -0.00000000000E+00 -0.12314926722E+03  0.12314926722E+03  0.00000000000E+00 0. -1.
         23    2    1    2    0    0 -0.12283717959E+02 -0.71148099916E+01 -0.39531837252E+02  0.10017333406E+03  0.90941852037E+02 0.  0.
         11    1    3    3    0    0  0.69365154628E+01 -0.17225184788E+02  0.25537764385E+02  0.31575301226E+02  0.00000000000E+00 0.  1.
        -11    1    3    3    0    0 -0.19220233422E+02  0.10110374796E+02 -0.65069601637E+02  0.68598032833E+02  0.00000000000E+00 0. -1.
         22    1    1    2    0    0  0.12283717959E+02  0.71148099916E+01 -0.52351452699E+02  0.54241910437E+02  0.00000000000E+00 0. -1.
<mgrwt>
<rscale>  0 0.57680702E+02</rscale>
<asrwt>0</asrwt>
<pdfrwt beam="1">  1        2 0.48101504E-02 0.92043092E+02</pdfrwt>
<pdfrwt beam="2">  1       -2 0.18946041E-01 0.92043092E+02</pdfrwt>
<totfact> 0.33250582E+04</totfact>
</mgrwt>
</event>
<event>
 6    1  0.1535419E-002  0.9207051E+02  0.7546771E-02  0.1393252E+00
         -2   -1    0    0    0  501 -0.00000000000E+00  0.00000000000E+00  0.43469251165E+03  0.43469251165E+03  0.00000000000E+00 0.  1.
          2   -1    0    0  501    0  0.00000000000E+00 -0.00000000000E+00 -0.69504978863E+01  0.69504978863E+01  0.00000000000E+00 0. -1.
         23    2    1    2    0    0  0.15618769531E+02 -0.86675965215E+01  0.35847532834E+03  0.37011017162E+03  0.90321121091E+02 0.  0.
         11    1    3    3    0    0  0.19639611997E+01 -0.42838905282E+02  0.28199929562E+03  0.28524135689E+03  0.00000000000E+00 0.  1.
        -11    1    3    3    0    0  0.13654808331E+02  0.34171308760E+02  0.76476032720E+02  0.84868814729E+02  0.00000000000E+00 0. -1.
         22    1    1    2    0    0 -0.15618769531E+02  0.86675965215E+01  0.69266685425E+02  0.71532837920E+02  0.00000000000E+00 0. -1.
<mgrwt>
<rscale>  0 0.61104991E+02</rscale>
<asrwt>0</asrwt>
<pdfrwt beam="1">  1        2 0.10693077E-02 0.92070506E+02</pdfrwt>
<pdfrwt beam="2">  1       -2 0.66875750E-01 0.92070506E+02</pdfrwt>
<totfact> 0.24158667E+04</totfact>
</mgrwt>
</event>
<event>
 6    1  0.1535419E-002  0.9473703E+02  0.7546771E-02  0.1359378E+00
          4   -1    0    0  501    0  0.00000000000E+00  0.00000000000E+00  0.37964660188E+02  0.37964660188E+02  0.00000000000E+00 0. -1.
         -4   -1    0    0    0  501 -0.00000000000E+00 -0.00000000000E+00 -0.11603355742E+03  0.11603355742E+03  0.00000000000E+00 0.  1.
         23    2    1    2    0    0  0.12962966858E+02 -0.25470452900E+02 -0.32400462901E+02  0.10012439860E+03  0.90323433932E+02 0.  0.
         11    1    3    3    0    0 -0.20947610327E+02  0.11072037288E+02 -0.43056885813E+02  0.49145577665E+02  0.00000000000E+00 0.  1.
        -11    1    3    3    0    0  0.33910577185E+02 -0.36542490188E+02  0.10656422912E+02  0.50978820931E+02  0.00000000000E+00 0. -1.
         22    1    1    2    0    0 -0.12962966858E+02  0.25470452900E+02 -0.45668434335E+02  0.53873819016E+02  0.00000000000E+00 0.  1.
<mgrwt>
<rscale>  0 0.70210672E+02</rscale>
<asrwt>0</asrwt>
<pdfrwt beam="1">  1        4 0.58407170E-02 0.94737032E+02</pdfrwt>
<pdfrwt beam="2">  1       -4 0.17851316E-01 0.94737032E+02</pdfrwt>
<totfact> 0.75842894E+03</totfact>
</mgrwt>
</event>
<event>
 6    1  0.1535419E-002  0.8723919E+02  0.7546771E-02  0.1395504E+00
          2   -1    0    0  501    0  0.00000000000E+00  0.00000000000E+00  0.18004494216E+03  0.18004494216E+03  0.00000000000E+00 0. -1.
         -2   -1    0    0    0  501 -0.00000000000E+00 -0.00000000000E+00 -0.30737306027E+02  0.30737306027E+02  0.00000000000E+00 0.  1.
         23    2    1    2    0    0 -0.97463794626E+01 -0.17757369414E+02  0.16399925266E+03  0.18575906538E+03  0.84854931608E+02 0.  0.
         11    1    3    3    0    0  0.31667487944E+02 -0.25447513169E+02  0.11008111254E+03  0.11733821653E+03  0.00000000000E+00 0. -1.
        -11    1    3    3    0    0 -0.41413867406E+02  0.76901437552E+01  0.53918140115E+02  0.68420848855E+02  0.00000000000E+00 0.  1.
         22    1    1    2    0    0  0.97463794626E+01  0.17757369414E+02 -0.14691616530E+02  0.25023182799E+02  0.00000000000E+00 0.  1.
<mgrwt>
<rscale>  0 0.60558278E+02</rscale>
<asrwt>0</asrwt>
<pdfrwt beam="1">  1        2 0.27699221E-01 0.87239186E+02</pdfrwt>
<pdfrwt beam="2">  1       -2 0.47288164E-02 0.87239186E+02</pdfrwt>
<totfact> 0.35663454E+04</totfact>
</mgrwt>
</event>
<event>
 6    1  0.1535419E-002  0.9820937E+02  0.7546771E-02  0.1338771E+00
          2   -1    0    0  501    0  0.00000000000E+00  0.00000000000E+00  0.43324611988E+03  0.43324611988E+03  0.00000000000E+00 0. -1.
         -2   -1    0    0    0  501 -0.00000000000E+00 -0.00000000000E+00 -0.10488420745E+02  0.10488420745E+02  0.00000000000E+00 0.  1.
         23    2    1    2    0    0 -0.32867863847E+02  0.15832523213E+02  0.29948621185E+03  0.31517784168E+03  0.91181771943E+02 0.  0.
         11    1    3    3    0    0 -0.36126068750E+02 -0.10739284497E+02  0.42511466494E+02  0.56812409369E+02  0.00000000000E+00 0.  1.
        -11    1    3    3    0    0  0.32582049026E+01  0.26571807711E+02  0.25697474536E+03  0.25836543231E+03  0.00000000000E+00 0. -1.
         22    1    1    2    0    0  0.32867863847E+02 -0.15832523213E+02  0.12327148729E+03  0.12855669894E+03  0.00000000000E+00 0.  1.
<mgrwt>
<rscale>  0 0.76671779E+02</rscale>
<asrwt>0</asrwt>
<pdfrwt beam="1">  1        2 0.66653235E-01 0.98209372E+02</pdfrwt>
<pdfrwt beam="2">  1       -2 0.16136035E-02 0.98209372E+02</pdfrwt>
<totfact> 0.68383381E+04</totfact>
</mgrwt>
</event>
<event>
 6    1  0.1535419E-002  0.9244435E+02  0.7546771E-02  0.1402399E+00
          2   -1    0    0  501    0  0.00000000000E+00  0.00000000000E+00  0.90260474327E+03  0.90260474327E+03  0.00000000000E+00 0.  1.
         -2   -1    0    0    0  501 -0.00000000000E+00 -0.00000000000E+00 -0.60034758814E+01  0.60034758814E+01  0.00000000000E+00 0. -1.
         23    2    1    2    0    0  0.24561242208E+01 -0.15061079101E+02  0.88399233936E+03  0.88881292385E+03  0.91176142237E+02 0.  0.
         13    1    3    3    0    0 -0.21615987004E+02 -0.40267714156E+02  0.70369074391E+03  0.70517331399E+03  0.00000000000E+00 0.  1.
        -13    1    3    3    0    0  0.24072111225E+02  0.25206635056E+02  0.18030159545E+03  0.18363960986E+03  0.00000000000E+00 0. -1.
         22    1    1    2    0    0 -0.24561242208E+01  0.15061079101E+02  0.12608928028E+02  0.19795295297E+02  0.00000000000E+00 0.  1.
<mgrwt>
<rscale>  0 0.58924940E+02</rscale>
<asrwt>0</asrwt>
<pdfrwt beam="1">  1        2 0.13886216E+00 0.92444348E+02</pdfrwt>
<pdfrwt beam="2">  1       -2 0.92361239E-03 0.92444348E+02</pdfrwt>
<totfact> 0.64691967E+04</totfact>
</mgrwt>
</event>
<event>
 6    1  0.1535419E-002  0.9225982E+02  0.7546771E-02  0.1399551E+00
         -2   -1    0    0    0  501 -0.00000000000E+00  0.00000000000E+00  0.41407450723E+02  0.41407450723E+02  0.00000000000E+00 0. -1.
          2   -1    0    0  501    0  0.00000000000E+00 -0.00000000000E+00 -0.79580307270E+02  0.79580307270E+02  0.00000000000E+00 0.  1.
         23    2    1    2    0    0 -0.15842438629E+02 -0.26290097145E+01 -0.46035196012E+02  0.10310729559E+03  0.90851420345E+02 0.  0.
         11    1    3    3    0    0 -0.48861779253E+02  0.53842183316E+01 -0.48479819874E+02  0.69041699094E+02  0.00000000000E+00 0.  1.
        -11    1    3    3    0    0  0.33019340624E+02 -0.80132280461E+01  0.24446238615E+01  0.34065596499E+02  0.00000000000E+00 0. -1.
         22    1    1    2    0    0  0.15842438629E+02  0.26290097145E+01  0.78623394648E+01  0.17880462400E+02  0.00000000000E+00 0.  1.
<mgrwt>
<rscale>  0 0.59592244E+02</rscale>
<asrwt>0</asrwt>
<pdfrwt beam="1">  1        2 0.12243124E-01 0.92259824E+02</pdfrwt>
<pdfrwt beam="2">  1       -2 0.63703771E-02 0.92259824E+02</pdfrwt>
<totfact> 0.57879613E+04</totfact>
</mgrwt>
</event>
<event>
 6    1  0.1535419E-002  0.9267607E+02  0.7546771E-02  0.1420425E+00
         -2   -1    0    0    0  501 -0.00000000000E+00  0.00000000000E+00  0.17483018437E+01  0.17483018437E+01  0.00000000000E+00 0.  1.
          2   -1    0    0  501    0  0.00000000000E+00 -0.00000000000E+00 -0.18501441056E+04  0.18501441056E+04  0.00000000000E+00 0. -1.
         23    2    1    2    0    0 -0.16011652848E+00 -0.11437327131E+02 -0.17893786696E+04  0.17917770166E+04  0.91967472479E+02 0.  0.
         11    1    3    3    0    0 -0.26729735051E+02 -0.23656080030E+02 -0.15759397552E+04  0.15763439348E+04  0.00000000000E+00 0. -1.
        -11    1    3    3    0    0  0.26569618522E+02  0.12218752899E+02 -0.21343891442E+03  0.21543308182E+03  0.00000000000E+00 0.  1.
         22    1    1    2    0    0  0.16011652848E+00  0.11437327131E+02 -0.59017134095E+02  0.60115390758E+02  0.00000000000E+00 0.  1.
<mgrwt>
<rscale>  0 0.54930997E+02</rscale>
<asrwt>0</asrwt>
<pdfrwt beam="1">  1        2 0.28463692E+00 0.92676071E+02</pdfrwt>
<pdfrwt beam="2">  1       -2 0.26897011E-03 0.92676071E+02</pdfrwt>
<totfact> 0.11396090E+05</totfact>
</mgrwt>
</event>
<event>
 6    1  0.1535419E-002  0.9181214E+02  0.7546771E-02  0.1428155E+00
         -1   -1    0    0    0  501 -0.00000000000E+00  0.00000000000E+00  0.89831830898E+01  0.89831830898E+01  0.00000000000E+00 0.  1.
          1   -1    0    0  501    0  0.00000000000E+00 -0.00000000000E+00 -0.43647724722E+03  0.43647724722E+03  0.00000000000E+00 0. -1.
         23    2    1    2    0    0 -0.87022899690E+01  0.57914975894E+01 -0.42487808736E+03  0.43468478047E+03  0.91215119128E+02 0.  0.
         11    1    3    3    0    0  0.22185768360E+02  0.31781692125E+02 -0.31944714561E+03  0.32178993631E+03  0.00000000000E+00 0. -1.
        -11    1    3    3    0    0 -0.30888058329E+02 -0.25990194536E+02 -0.10543094175E+03  0.11289484416E+03  0.00000000000E+00 0.  1.
         22    1    1    2    0    0  0.87022899690E+01 -0.57914975894E+01 -0.26159767701E+01  0.10775649841E+02  0.00000000000E+00 0.  1.
<mgrwt>
<rscale>  0 0.53332059E+02</rscale>
<asrwt>0</asrwt>
<pdfrwt beam="1">  1        1 0.67150350E-01 0.91812141E+02</pdfrwt>
<pdfrwt beam="2">  1       -1 0.13820281E-02 0.91812141E+02</pdfrwt>
<totfact> 0.55892105E+04</totfact>
</mgrwt>
</event>
<event>
 6    1  0.1535419E-002  0.7962701E+02  0.7546771E-02  0.1417067E+00
          1   -1    0    0  501    0  0.00000000000E+00  0.00000000000E+00  0.13807006204E+03  0.13807006204E+03  0.00000000000E+00 0. -1.
         -1   -1    0    0    0  501 -0.00000000000E+00 -0.00000000000E+00 -0.20252429398E+02  0.20252429398E+02  0.00000000000E+00 0.  1.
         23    2    1    2    0    0 -0.11735389263E+02  0.14932155447E+02  0.11383049137E+03  0.13891666955E+03  0.77328983480E+02 0.  0.
         11    1    3    3    0    0 -0.31760322330E+02 -0.54833704641E+01  0.14121998380E+02  0.35188297265E+02  0.00000000000E+00 0. -1.
        -11    1    3    3    0    0  0.20024933067E+02  0.20415525911E+02  0.99708492994E+02  0.10372837229E+03  0.00000000000E+00 0.  1.
         22    1    1    2    0    0  0.11735389263E+02 -0.14932155447E+02  0.39871412669E+01  0.19405821882E+02  0.00000000000E+00 0.  1.
<mgrwt>
<rscale>  0 0.55646372E+02</rscale>
<asrwt>0</asrwt>
<pdfrwt beam="1">  1        1 0.21241547E-01 0.79627007E+02</pdfrwt>
<pdfrwt beam="2">  1       -1 0.31157585E-02 0.79627007E+02</pdfrwt>
<totfact> 0.70656447E+04</totfact>
</mgrwt>
</event>
<event>
 6    1  0.1535419E-002  0.9679346E+02  0.7546771E-02  0.1363601E+00
         -2   -1    0    0    0  501 -0.00000000000E+00  0.00000000000E+00  0.48526021762E+01  0.48526021762E+01  0.00000000000E+00 0.  1.
          2   -1    0    0  501    0  0.00000000000E+00 -0.00000000000E+00 -0.82181097079E+03  0.82181097079E+03  0.00000000000E+00 0. -1.
         23    2    1    2    0    0  0.21786218160E+02 -0.12189232346E+02 -0.72279052465E+03  0.72924283840E+03  0.93518758251E+02 0.  0.
         11    1    3    3    0    0  0.31330023810E+02  0.97995449331E+00 -0.75503320145E+02  0.81751342837E+02  0.00000000000E+00 0.  1.
        -11    1    3    3    0    0 -0.95438056506E+01 -0.13169186839E+02 -0.64728720451E+03  0.64749149556E+03  0.00000000000E+00 0. -1.
         22    1    1    2    0    0 -0.21786218160E+02  0.12189232346E+02 -0.94167843961E+02  0.97420734565E+02  0.00000000000E+00 0. -1.
<mgrwt>
<rscale>  0 0.68978606E+02</rscale>
<asrwt>0</asrwt>
<pdfrwt beam="1">  1        2 0.12643252E+00 0.96793465E+02</pdfrwt>
<pdfrwt beam="2">  1       -2 0.74655382E-03 0.96793465E+02</pdfrwt>
<totfact> 0.98921066E+04</totfact>
</mgrwt>
</event>
<event>
 6    1  0.1535419E-002  0.9127816E+02  0.7546771E-02  0.1400449E+00
         -2   -1    0    0    0  501 -0.00000000000E+00  0.00000000000E+00  0.62903894888E+01  0.62903894888E+01  0.00000000000E+00 0. -1.
          2   -1    0    0  501    0  0.00000000000E+00 -0.00000000000E+00 -0.90193262216E+03  0.90193262216E+03  0.00000000000E+00 0.  1.
         23    2    1    2    0    0 -0.40500888291E+01 -0.15839021327E+02 -0.88260542345E+03  0.88731281770E+03  0.89802144423E+02 0.  0.
         13    1    3    3    0    0 -0.14228346153E+02  0.90608271959E+01 -0.31079555963E+02  0.35362172199E+02  0.00000000000E+00 0. -1.
        -13    1    3    3    0    0  0.10178257324E+02 -0.24899848523E+02 -0.85152586749E+03  0.85195064551E+03  0.00000000000E+00 0.  1.
         22    1    1    2    0    0  0.40500888291E+01  0.15839021327E+02 -0.13036809221E+02  0.20910193944E+02  0.00000000000E+00 0. -1.
<mgrwt>
<rscale>  0 0.59380730E+02</rscale>
<asrwt>0</asrwt>
<pdfrwt beam="1">  1        2 0.13875881E+00 0.91278163E+02</pdfrwt>
<pdfrwt beam="2">  1       -2 0.96775262E-03 0.91278163E+02</pdfrwt>
<totfact> 0.60524991E+04</totfact>
</mgrwt>
</event>
<event>
 6    1  0.1535419E-002  0.9611159E+02  0.7546771E-02  0.1396737E+00
          1   -1    0    0  501    0  0.00000000000E+00  0.00000000000E+00  0.29756722519E+03  0.29756722519E+03  0.00000000000E+00 0. -1.
         -1   -1    0    0    0  501 -0.00000000000E+00 -0.00000000000E+00 -0.10651288589E+02  0.10651288589E+02  0.00000000000E+00 0.  1.
         23    2    1    2    0    0  0.19840456398E+01  0.14720584994E+02  0.26357970448E+03  0.28055605204E+03  0.94956862125E+02 0.  0.
         11    1    3    3    0    0 -0.91335694424E+01  0.23555430118E+01  0.26375832938E+03  0.26392693495E+03  0.00000000000E+00 0. -1.
        -11    1    3    3    0    0  0.11117615082E+02  0.12365041982E+02 -0.17862490560E+00  0.16629117090E+02  0.00000000000E+00 0.  1.
         22    1    1    2    0    0 -0.19840456398E+01 -0.14720584994E+02  0.23336232122E+02  0.27662461737E+02  0.00000000000E+00 0.  1.
<mgrwt>
<rscale>  0 0.60261564E+02</rscale>
<asrwt>0</asrwt>
<pdfrwt beam="1">  1        1 0.45779567E-01 0.96111590E+02</pdfrwt>
<pdfrwt beam="2">  1       -1 0.16386600E-02 0.96111590E+02</pdfrwt>
<totfact> 0.70879664E+04</totfact>
</mgrwt>
</event>
<event>
 6    1  0.1535419E-002  0.1004749E+03  0.7546771E-02  0.1330148E+00
          2   -1    0    0  501    0  0.00000000000E+00  0.00000000000E+00  0.52843785645E+03  0.52843785645E+03  0.00000000000E+00 0. -1.
         -2   -1    0    0    0  501 -0.00000000000E+00 -0.00000000000E+00 -0.10699797918E+02  0.10699797918E+02  0.00000000000E+00 0.  1.
         23    2    1    2    0    0  0.26051893659E+02  0.29837270631E+02  0.44613157404E+03  0.45730579930E+03  0.92337689159E+02 0.  0.
         11    1    3    3    0    0 -0.11700174444E+02  0.16961563035E+02  0.18119399313E+02  0.27439047616E+02  0.00000000000E+00 0.  1.
        -11    1    3    3    0    0  0.37752068103E+02  0.12875707596E+02  0.42801217473E+03  0.42986675169E+03  0.00000000000E+00 0. -1.
         22    1    1    2    0    0 -0.26051893659E+02 -0.29837270631E+02  0.71606484492E+02  0.81831855064E+02  0.00000000000E+00 0.  1.
<mgrwt>
<rscale>  0 0.79615004E+02</rscale>
<asrwt>0</asrwt>
<pdfrwt beam="1">  1        2 0.81298111E-01 0.10047494E+03</pdfrwt>
<pdfrwt beam="2">  1       -2 0.16461232E-02 0.10047494E+03</pdfrwt>
<totfact> 0.53800510E+04</totfact>
</mgrwt>
</event>
<event>
 6    1  0.1535419E-002  0.9169606E+02  0.7546771E-02  0.1409651E+00
          1   -1    0    0  501    0  0.00000000000E+00  0.00000000000E+00  0.17118488210E+04  0.17118488210E+04  0.00000000000E+00 0. -1.
         -1   -1    0    0    0  501 -0.00000000000E+00 -0.00000000000E+00 -0.46046097082E+01  0.46046097082E+01  0.00000000000E+00 0.  1.
         23    2    1    2    0    0 -0.12258249302E+02  0.66677801621E+01  0.16961487647E+04  0.16986255620E+04  0.90628052179E+02 0.  0.
         13    1    3    3    0    0 -0.70195651011E+01  0.39436517250E+02  0.38926105110E+03  0.39131659700E+03  0.00000000000E+00 0.  1.
        -13    1    3    3    0    0 -0.52386842005E+01 -0.32768737088E+02  0.13068877136E+04  0.13073089650E+04  0.00000000000E+00 0. -1.
         22    1    1    2    0    0  0.12258249302E+02 -0.66677801621E+01  0.11095446579E+02  0.17827868718E+02  0.00000000000E+00 0.  1.
<mgrwt>
<rscale>  0 0.57271748E+02</rscale>
<asrwt>0</asrwt>
<pdfrwt beam="1">  1        1 0.26336085E+00 0.91696062E+02</pdfrwt>
<pdfrwt beam="2">  1       -1 0.70840286E-03 0.91696062E+02</pdfrwt>
<totfact> 0.15200013E+04</totfact>
</mgrwt>
</event>
<event>
 6    1  0.1535419E-002  0.9713006E+02  0.7546771E-02  0.1365534E+00
         -4   -1    0    0    0  501 -0.00000000000E+00  0.00000000000E+00  0.27258584056E+03  0.27258584056E+03  0.00000000000E+00 0. -1.
          4   -1    0    0  501    0  0.00000000000E+00 -0.00000000000E+00 -0.13609316566E+02  0.13609316566E+02  0.00000000000E+00 0.  1.
         23    2    1    2    0    0 -0.14162150707E+02 -0.19278628053E+02  0.19403746123E+03  0.21699028819E+03  0.94138285485E+02 0.  0.
         13    1    3    3    0    0  0.25567548216E+02 -0.42799592738E+02  0.84349750889E+02  0.97981555077E+02  0.00000000000E+00 0. -1.
        -13    1    3    3    0    0 -0.39729698924E+02  0.23520964684E+02  0.10968771034E+03  0.11900873311E+03  0.00000000000E+00 0.  1.
         22    1    1    2    0    0  0.14162150707E+02  0.19278628053E+02  0.64939062763E+02  0.69204868939E+02  0.00000000000E+00 0.  1.
<mgrwt>
<rscale>  0 0.68424521E+02</rscale>
<asrwt>0</asrwt>
<pdfrwt beam="1">  1        4 0.20937412E-02 0.97130061E+02</pdfrwt>
<pdfrwt beam="2">  1       -4 0.41936279E-01 0.97130061E+02</pdfrwt>
<totfact> 0.78087482E+03</totfact>
</mgrwt>
</event>
<event>
 6    1  0.1535419E-002  0.1065410E+03  0.7546771E-02  0.1385547E+00
          4   -1    0    0  501    0  0.00000000000E+00  0.00000000000E+00  0.16568131969E+03  0.16568131969E+03  0.00000000000E+00 0. -1.
         -4   -1    0    0    0  501 -0.00000000000E+00 -0.00000000000E+00 -0.33549193389E+02  0.33549193389E+02  0.00000000000E+00 0.  1.
         23    2    1    2    0    0  0.12919655342E+02 -0.18337439756E+01  0.14563975775E+03  0.18044924000E+03  0.10573887208E+03 0.  0.
         13    1    3    3    0    0 -0.27865805435E+01  0.49891529749E+02  0.89563489124E+02  0.10255997443E+03  0.00000000000E+00 0. -1.
        -13    1    3    3    0    0  0.15706235886E+02 -0.51725273724E+02  0.56076268625E+02  0.77889265566E+02  0.00000000000E+00 0.  1.
         22    1    1    2    0    0 -0.12919655342E+02  0.18337439756E+01 -0.13507631448E+02  0.18781273079E+02  0.00000000000E+00 0. -1.
<mgrwt>
<rscale>  0 0.63027943E+02</rscale>
<asrwt>0</asrwt>
<pdfrwt beam="1">  1        4 0.25489433E-01 0.10654102E+03</pdfrwt>
<pdfrwt beam="2">  1       -4 0.51614145E-02 0.10654102E+03</pdfrwt>
<totfact> 0.50323401E+03</totfact>
</mgrwt>
</event>
<event>
 6    1  0.1535419E-002  0.9677544E+02  0.7546771E-02  0.1366470E+00
          3   -1    0    0  501    0  0.00000000000E+00  0.00000000000E+00  0.40022850922E+02  0.40022850922E+02  0.00000000000E+00 0. -1.
         -3   -1    0    0    0  501 -0.00000000000E+00 -0.00000000000E+00 -0.95837677436E+02  0.95837677436E+02  0.00000000000E+00 0.  1.
         23    2    1    2    0    0 -0.23806600633E+02  0.46183662374E+00 -0.31363362536E+02  0.10173075225E+03  0.93800415330E+02 0.  0.
         13    1    3    3    0    0 -0.66664638654E+01  0.80963743022E+01  0.33032226698E+02  0.34657192874E+02  0.00000000000E+00 0. -1.
        -13    1    3    3    0    0 -0.17140136768E+02 -0.76345376784E+01 -0.64395589234E+02  0.67073559371E+02  0.00000000000E+00 0.  1.
         22    1    1    2    0    0  0.23806600633E+02 -0.46183662374E+00 -0.24451463979E+02  0.34129776113E+02  0.00000000000E+00 0.  1.
<mgrwt>
<rscale>  0 0.68158282E+02</rscale>
<asrwt>0</asrwt>
<pdfrwt beam="1">  1        3 0.61573618E-02 0.96775438E+02</pdfrwt>
<pdfrwt beam="2">  1       -3 0.14744258E-01 0.96775438E+02</pdfrwt>
<totfact> 0.13030789E+04</totfact>
</mgrwt>
</event>
<event>
 6    1  0.1535419E-002  0.9117390E+02  0.7546771E-02  0.1426554E+00
         -2   -1    0    0    0  501 -0.00000000000E+00  0.00000000000E+00  0.33555767091E+01  0.33555767091E+01  0.00000000000E+00 0.  1.
          2   -1    0    0  501    0  0.00000000000E+00 -0.00000000000E+00 -0.10062849844E+04  0.10062849844E+04  0.00000000000E+00 0. -1.
         23    2    1    2    0    0  0.10531331651E+02 -0.29534992003E+01 -0.98004300792E+03  0.98427484807E+03  0.90515452048E+02 0.  0.
         11    1    3    3    0    0 -0.32796148204E+02 -0.25634617742E+02 -0.50932894312E+03  0.51102709641E+03  0.00000000000E+00 0. -1.
        -11    1    3    3    0    0  0.43327479855E+02  0.22681118542E+02 -0.47071406480E+03  0.47324775166E+03  0.00000000000E+00 0.  1.
         22    1    1    2    0    0 -0.10531331651E+02  0.29534992003E+01 -0.22886399809E+02  0.25365713081E+02  0.00000000000E+00 0.  1.
<mgrwt>
<rscale>  0 0.53657922E+02</rscale>
<asrwt>0</asrwt>
<pdfrwt beam="1">  1        2 0.15481303E+00 0.91173895E+02</pdfrwt>
<pdfrwt beam="2">  1       -2 0.51624273E-03 0.91173895E+02</pdfrwt>
<totfact> 0.12690237E+05</totfact>
</mgrwt>
</event>
<event>
 6    1  0.1535419E-002  0.9118155E+02  0.7546771E-02  0.1420717E+00
         -1   -1    0    0    0  501 -0.00000000000E+00  0.00000000000E+00  0.28405577154E+02  0.28405577154E+02  0.00000000000E+00 0.  1.
          1   -1    0    0  501    0  0.00000000000E+00 -0.00000000000E+00 -0.25207204751E+03  0.25207204751E+03  0.00000000000E+00 0. -1.
         23    2    1    2    0    0  0.25787616875E+01 -0.11675075986E+02 -0.24198977534E+03  0.25859838984E+03  0.90394239003E+02 0.  0.
         11    1    3    3    0    0 -0.18041293518E+02  0.78232587186E+01 -0.55099689837E+01  0.20421836523E+02  0.00000000000E+00 0.  1.
        -11    1    3    3    0    0  0.20620055206E+02 -0.19498334704E+02 -0.23647980636E+03  0.23817655331E+03  0.00000000000E+00 0. -1.
         22    1    1    2    0    0 -0.25787616875E+01  0.11675075986E+02  0.18323304984E+02  0.21879234828E+02  0.00000000000E+00 0.  1.
<mgrwt>
<rscale>  0 0.54869509E+02</rscale>
<asrwt>0</asrwt>
<pdfrwt beam="1">  1        1 0.38780315E-01 0.91181554E+02</pdfrwt>
<pdfrwt beam="2">  1       -1 0.43700888E-02 0.91181554E+02</pdfrwt>
<totfact> 0.21035680E+04</totfact>
</mgrwt>
</event>
<event>
 6    1  0.1535419E-002  0.9367806E+02  0.7546771E-02  0.1406287E+00
          4   -1    0    0  501    0  0.00000000000E+00  0.00000000000E+00  0.14499574057E+03  0.14499574057E+03  0.00000000000E+00 0. -1.
         -4   -1    0    0    0  501 -0.00000000000E+00 -0.00000000000E+00 -0.19932010947E+02  0.19932010947E+02  0.00000000000E+00 0.  1.
         23    2    1    2    0    0  0.13761134751E+02  0.96220045536E+00  0.11058077767E+03  0.14492648765E+03  0.92656806391E+02 0.  0.
         13    1    3    3    0    0 -0.19220320930E+02  0.29281662801E+02  0.11728225088E+02  0.36937620074E+02  0.00000000000E+00 0.  1.
        -13    1    3    3    0    0  0.32981455681E+02 -0.28319462345E+02  0.98852552587E+02  0.10798886757E+03  0.00000000000E+00 0. -1.
         22    1    1    2    0    0 -0.13761134751E+02 -0.96220045536E+00  0.14482951948E+02  0.20001263872E+02  0.00000000000E+00 0. -1.
<mgrwt>
<rscale>  0 0.58030556E+02</rscale>
<asrwt>0</asrwt>
<pdfrwt beam="1">  1        4 0.22307036E-01 0.93678057E+02</pdfrwt>
<pdfrwt beam="2">  1       -4 0.30664633E-02 0.93678057E+02</pdfrwt>
<totfact> 0.14068722E+04</totfact>
</mgrwt>
</event>
<event>
 6    1  0.1535419E-002  0.1042177E+03  0.7546771E-02  0.1309919E+00
          2   -1    0    0  501    0  0.00000000000E+00  0.00000000000E+00  0.38252069156E+04  0.38252069156E+04  0.00000000000E+00 0. -1.
         -2   -1    0    0    0  501 -0.00000000000E+00 -0.00000000000E+00 -0.21328770970E+02  0.21328770970E+02  0.00000000000E+00 0.  1.
         23    2    1    2    0    0 -0.18499737994E+01  0.50913949198E+02  0.37930104447E+04  0.37944419295E+04  0.90915728644E+02 0.  0.
         11    1    3    3    0    0  0.41144148046E+02  0.14003948032E+02  0.11435626838E+04  0.11443882922E+04  0.00000000000E+00 0.  1.
        -11    1    3    3    0    0 -0.42994121845E+02  0.36910001166E+02  0.26494477609E+04  0.26500536373E+04  0.00000000000E+00 0. -1.
         22    1    1    2    0    0  0.18499737994E+01 -0.50913949198E+02  0.10867699888E+02  0.52093757081E+02  0.00000000000E+00 0.  1.
<mgrwt>
<rscale>  0 0.87143868E+02</rscale>
<asrwt>0</asrwt>
<pdfrwt beam="1">  1        2 0.58849283E+00 0.10421767E+03</pdfrwt>
<pdfrwt beam="2">  1       -2 0.32813524E-02 0.10421767E+03</pdfrwt>
<totfact> 0.24489666E+02</totfact>
</mgrwt>
</event>
<event>
 6    1  0.1535419E-002  0.9623405E+02  0.7546771E-02  0.1352924E+00
         -2   -1    0    0    0  501 -0.00000000000E+00  0.00000000000E+00  0.37152248640E+01  0.37152248640E+01  0.00000000000E+00 0. -1.
          2   -1    0    0  501    0  0.00000000000E+00 -0.00000000000E+00 -0.15773806158E+04  0.15773806158E+04  0.00000000000E+00 0.  1.
         23    2    1    2    0    0  0.22119721407E+01  0.30328990421E+02 -0.14677493615E+04  0.14709008055E+04  0.91303072165E+02 0.  0.
         11    1    3    3    0    0 -0.59269716226E+01 -0.28926492080E+02 -0.25999885014E+03  0.26167016072E+03  0.00000000000E+00 0. -1.
        -11    1    3    3    0    0  0.81389437633E+01  0.59255482501E+02 -0.12077505114E+04  0.12092306448E+04  0.00000000000E+00 0.  1.
         22    1    1    2    0    0 -0.22119721407E+01 -0.30328990421E+02 -0.10591602940E+03  0.11019503512E+03  0.00000000000E+00 0. -1.
<mgrwt>
<rscale>  0 0.72152111E+02</rscale>
<asrwt>0</asrwt>
<pdfrwt beam="1">  1        2 0.24267442E+00 0.96234045E+02</pdfrwt>
<pdfrwt beam="2">  1       -2 0.57157194E-03 0.96234045E+02</pdfrwt>
<totfact> 0.54710098E+04</totfact>
</mgrwt>
</event>
<event>
 6    1  0.1535419E-002  0.9716169E+02  0.7546771E-02  0.1404543E+00
          2   -1    0    0  501    0  0.00000000000E+00  0.00000000000E+00  0.76300835807E+03  0.76300835807E+03  0.00000000000E+00 0. -1.
         -2   -1    0    0    0  501 -0.00000000000E+00 -0.00000000000E+00 -0.40376692070E+01  0.40376692070E+01  0.00000000000E+00 0.  1.
         23    2    1    2    0    0 -0.96107233698E+01 -0.83129128260E+01  0.70081679485E+03  0.70752001689E+03  0.96327170815E+02 0.  0.
         11    1    3    3    0    0  0.22991729951E+02  0.34448361939E+02  0.23639543567E+03  0.23999606516E+03  0.00000000000E+00 0. -1.
        -11    1    3    3    0    0 -0.32602453320E+02 -0.42761274765E+02  0.46442135918E+03  0.46752395173E+03  0.00000000000E+00 0.  1.
         22    1    1    2    0    0  0.96107233698E+01  0.83129128260E+01  0.58153894009E+02  0.59526010380E+02  0.00000000000E+00 0. -1.
<mgrwt>
<rscale>  0 0.58429606E+02</rscale>
<asrwt>0</asrwt>
<pdfrwt beam="1">  1        2 0.11738579E+00 0.97161692E+02</pdfrwt>
<pdfrwt beam="2">  1       -2 0.62118048E-03 0.97161692E+02</pdfrwt>
<totfact> 0.14041701E+05</totfact>
</mgrwt>
</event>
<event>
 6    1  0.1535419E-002  0.9588068E+02  0.7546771E-02  0.1361102E+00
         -2   -1    0    0    0  501 -0.00000000000E+00  0.00000000000E+00  0.35947159599E+01  0.35947159599E+01  0.00000000000E+00 0.  1.
          2   -1    0    0  501    0  0.00000000000E+00 -0.00000000000E+00 -0.12007081216E+04  0.12007081216E+04  0.00000000000E+00 0. -1.
         23    2    1    2    0    0 -0.24687979742E+02  0.10381075460E+02 -0.10760105526E+04  0.10802739534E+04  0.92064337238E+02 0.  0.
         11    1    3    3    0    0  0.62628935950E+01  0.18580750583E+02 -0.95183159163E+03  0.95203353247E+03  0.00000000000E+00 0. -1.
        -11    1    3    3    0    0 -0.30950873337E+02 -0.81996751232E+01 -0.12417896094E+03  0.12824042098E+03  0.00000000000E+00 0.  1.
         22    1    1    2    0    0  0.24687979742E+02 -0.10381075460E+02 -0.12110285304E+03  0.12402888408E+03  0.00000000000E+00 0. -1.
<mgrwt>
<rscale>  0 0.69704071E+02</rscale>
<asrwt>0</asrwt>
<pdfrwt beam="1">  1        2 0.18472441E+00 0.95880682E+02</pdfrwt>
<pdfrwt beam="2">  1       -2 0.55303299E-03 0.95880682E+02</pdfrwt>
<totfact> 0.90137490E+04</totfact>
</mgrwt>
</event>
<event>
 6    1  0.1535419E-002  0.9481101E+02  0.7546771E-02  0.1390437E+00
         -1   -1    0    0    0  501 -0.00000000000E+00  0.00000000000E+00  0.33602251172E+02  0.33602251172E+02  0.00000000000E+00 0.  1.
          1   -1    0    0  501    0  0.00000000000E+00 -0.00000000000E+00 -0.11226746656E+03  0.11226746656E+03  0.00000000000E+00 0. -1.
         23    2    1    2    0    0  0.52220393238E+01  0.16296690709E+02 -0.85281042998E+02  0.12752248367E+03  0.93253824175E+02 0.  0.
         13    1    3    3    0    0  0.20805113607E+02  0.20850315556E+02  0.98176826458E+01  0.31047951680E+02  0.00000000000E+00 0.  1.
        -13    1    3    3    0    0 -0.15583074283E+02 -0.45536248470E+01 -0.95098725644E+02  0.96474531989E+02  0.00000000000E+00 0. -1.
         22    1    1    2    0    0 -0.52220393238E+01 -0.16296690709E+02  0.66158276118E+01  0.18347234063E+02  0.00000000000E+00 0.  1.
<mgrwt>
<rscale>  0 0.61798092E+02</rscale>
<asrwt>0</asrwt>
<pdfrwt beam="1">  1        1 0.17271918E-01 0.94811010E+02</pdfrwt>
<pdfrwt beam="2">  1       -1 0.51695771E-02 0.94811010E+02</pdfrwt>
<totfact> 0.45076518E+04</totfact>
</mgrwt>
</event>
<event>
 6    1  0.1535419E-002  0.9167317E+02  0.7546771E-02  0.1414144E+00
         -2   -1    0    0    0  501 -0.00000000000E+00  0.00000000000E+00  0.87549894577E+01  0.87549894577E+01  0.00000000000E+00 0.  1.
          2   -1    0    0  501    0  0.00000000000E+00 -0.00000000000E+00 -0.41052486100E+03  0.41052486100E+03  0.00000000000E+00 0. -1.
         23    2    1    2    0    0 -0.27239051713E+01  0.12733681207E+02 -0.39307151646E+03  0.40362010341E+03  0.90743619761E+02 0.  0.
         11    1    3    3    0    0 -0.11343564524E+01 -0.35306045604E+02 -0.88672801833E+02  0.95449826640E+02  0.00000000000E+00 0. -1.
        -11    1    3    3    0    0 -0.15895487189E+01  0.48039726811E+02 -0.30439871463E+03  0.30817027677E+03  0.00000000000E+00 0.  1.
         22    1    1    2    0    0  0.27239051713E+01 -0.12733681207E+02 -0.86983550809E+01  0.15659747047E+02  0.00000000000E+00 0. -1.
<mgrwt>
<rscale>  0 0.56279359E+02</rscale>
<asrwt>0</asrwt>
<pdfrwt beam="1">  1        2 0.63157675E-01 0.91673174E+02</pdfrwt>
<pdfrwt beam="2">  1       -2 0.13469214E-02 0.91673174E+02</pdfrwt>
<totfact> 0.92820727E+04</totfact>
</mgrwt>
</event>
<event>
 6    1  0.1535419E-002  0.9095175E+02  0.7546771E-02  0.1412349E+00
          2   -1    0    0  501    0  0.00000000000E+00  0.00000000000E+00  0.70290436293E+02  0.70290436293E+02  0.00000000000E+00 0. -1.
         -2   -1    0    0    0  501 -0.00000000000E+00 -0.00000000000E+00 -0.39945707671E+02  0.39945707671E+02  0.00000000000E+00 0.  1.
         23    2    1    2    0    0 -0.12704841448E+01 -0.13652105239E+02  0.32018977096E+02  0.96423207442E+02  0.89912323580E+02 0.  0.
         11    1    3    3    0    0  0.57944057093E+01 -0.32168477897E+02  0.56288073304E+02  0.65090193609E+02  0.00000000000E+00 0. -1.
        -11    1    3    3    0    0 -0.70648898541E+01  0.18516372658E+02 -0.24269096208E+02  0.31333013832E+02  0.00000000000E+00 0.  1.
         22    1    1    2    0    0  0.12704841448E+01  0.13652105239E+02 -0.16742484746E+01  0.13812936523E+02  0.00000000000E+00 0. -1.
<mgrwt>
<rscale>  0 0.56673014E+02</rscale>
<asrwt>0</asrwt>
<pdfrwt beam="1">  1        2 0.10813913E-01 0.90951746E+02</pdfrwt>
<pdfrwt beam="2">  1       -2 0.61454935E-02 0.90951746E+02</pdfrwt>
<totfact> 0.70707202E+04</totfact>
</mgrwt>
</event>
<event>
 6    1  0.1535419E-002  0.9158687E+02  0.7546771E-02  0.1428334E+00
          2   -1    0    0  501    0  0.00000000000E+00  0.00000000000E+00  0.13438354680E+03  0.13438354680E+03  0.00000000000E+00 0. -1.
         -2   -1    0    0    0  501 -0.00000000000E+00 -0.00000000000E+00 -0.27473896071E+02  0.27473896071E+02  0.00000000000E+00 0.  1.
         23    2    1    2    0    0  0.10387126771E+02  0.15498915096E+01  0.11611781498E+03  0.14789016487E+03  0.90982742004E+02 0.  0.
         13    1    3    3    0    0 -0.36121945848E+02  0.10448178506E+01  0.83780268298E+02  0.91241547402E+02  0.00000000000E+00 0. -1.
        -13    1    3    3    0    0  0.46509072619E+02  0.50507365896E+00  0.32337546680E+02  0.56648617464E+02  0.00000000000E+00 0.  1.
         22    1    1    2    0    0 -0.10387126771E+02 -0.15498915096E+01 -0.92081642447E+01  0.13967278010E+02  0.00000000000E+00 0. -1.
<mgrwt>
<rscale>  0 0.53295944E+02</rscale>
<asrwt>0</asrwt>
<pdfrwt beam="1">  1        2 0.20674391E-01 0.91586865E+02</pdfrwt>
<pdfrwt beam="2">  1       -2 0.42267533E-02 0.91586865E+02</pdfrwt>
<totfact> 0.58349778E+04</totfact>
</mgrwt>
</event>
<event>
 6    1  0.1535419E-002  0.9281345E+02  0.7546771E-02  0.1400625E+00
         -1   -1    0    0    0  501 -0.00000000000E+00  0.00000000000E+00  0.11062584049E+03  0.11062584049E+03  0.00000000000E+00 0.  1.
          1   -1    0    0  501    0  0.00000000000E+00 -0.00000000000E+00 -0.29825853881E+02  0.29825853881E+02  0.00000000000E+00 0. -1.
         23    2    1    2    0    0 -0.39395543257E+01  0.14998773728E+02  0.48727857065E+02  0.10482719725E+03  0.91508764212E+02 0.  0.
         13    1    3    3    0    0  0.57853409511E+01  0.53010398399E+02  0.24234482345E+02  0.58573736801E+02  0.00000000000E+00 0. -1.
        -13    1    3    3    0    0 -0.97248952768E+01 -0.38011624672E+02  0.24493374720E+02  0.46253460449E+02  0.00000000000E+00 0.  1.
         22    1    1    2    0    0  0.39395543257E+01 -0.14998773728E+02  0.32072129540E+02  0.35624497117E+02  0.00000000000E+00 0.  1.
<mgrwt>
<rscale>  0 0.59339491E+02</rscale>
<asrwt>0</asrwt>
<pdfrwt beam="1">  1        1 0.45885930E-02 0.92813454E+02</pdfrwt>
<pdfrwt beam="2">  1       -1 0.17019360E-01 0.92813454E+02</pdfrwt>
<totfact> 0.42615601E+04</totfact>
</mgrwt>
</event>
<event>
 6    1  0.1535419E-002  0.9398080E+02  0.7546771E-02  0.1378288E+00
         -4   -1    0    0    0  501 -0.00000000000E+00  0.00000000000E+00  0.82562940174E+02  0.82562940174E+02  0.00000000000E+00 0.  1.
          4   -1    0    0  501    0  0.00000000000E+00 -0.00000000000E+00 -0.52783897382E+02  0.52783897382E+02  0.00000000000E+00 0. -1.
         23    2    1    2    0    0  0.21393866572E+02  0.43285879056E-01 -0.54410414570E+01  0.94138176633E+02  0.91513343110E+02 0.  0.
         13    1    3    3    0    0 -0.16568063546E+02  0.36213666409E+02  0.65265988360E+01  0.40355010306E+02  0.00000000000E+00 0.  1.
        -13    1    3    3    0    0  0.37961930118E+02 -0.36170380530E+02 -0.11967640293E+02  0.53783166327E+02  0.00000000000E+00 0. -1.
         22    1    1    2    0    0 -0.21393866572E+02 -0.43285879056E-01  0.35220084249E+02  0.41208660923E+02  0.00000000000E+00 0.  1.
<mgrwt>
<rscale>  0 0.64916023E+02</rscale>
<asrwt>0</asrwt>
<pdfrwt beam="1">  1        4 0.81205996E-02 0.93980803E+02</pdfrwt>
<pdfrwt beam="2">  1       -4 0.12701991E-01 0.93980803E+02</pdfrwt>
<totfact> 0.79841582E+03</totfact>
</mgrwt>
</event>
<event>
 6    1  0.1535419E-002  0.1147919E+03  0.7546771E-02  0.1274088E+00
          2   -1    0    0  501    0  0.00000000000E+00  0.00000000000E+00  0.56293021692E+02  0.56293021692E+02  0.00000000000E+00 0. -1.
         -2   -1    0    0    0  501 -0.00000000000E+00 -0.00000000000E+00 -0.16131818103E+03  0.16131818103E+03  0.00000000000E+00 0.  1.
         23    2    1    2    0    0  0.73313378308E+02 -0.12905423941E+02 -0.50884385446E+02  0.12556434073E+03  0.87382959286E+02 0.  0.
         11    1    3    3    0    0  0.63158027991E+02  0.62150573387E+01 -0.71546379471E+02  0.95637063175E+02  0.00000000000E+00 0.  1.
        -11    1    3    3    0    0  0.10155350317E+02 -0.19120481280E+02  0.20661994025E+02  0.29927277550E+02  0.00000000000E+00 0. -1.
         22    1    1    2    0    0 -0.73313378308E+02  0.12905423941E+02 -0.54140773893E+02  0.92046861998E+02  0.00000000000E+00 0.  1.
<mgrwt>
<rscale>  0 0.10301155E+03</rscale>
<asrwt>0</asrwt>
<pdfrwt beam="1">  1        2 0.86604650E-02 0.11479191E+03</pdfrwt>
<pdfrwt beam="2">  1       -2 0.24818181E-01 0.11479191E+03</pdfrwt>
<totfact> 0.10216708E+04</totfact>
</mgrwt>
</event>
<event>
 6    1  0.1535419E-002  0.9221662E+02  0.7546771E-02  0.1425591E+00
         -2   -1    0    0    0  501 -0.00000000000E+00  0.00000000000E+00  0.47679155882E+01  0.47679155882E+01  0.00000000000E+00 0.  1.
          2   -1    0    0  501    0  0.00000000000E+00 -0.00000000000E+00 -0.55568262657E+03  0.55568262657E+03  0.00000000000E+00 0. -1.
         23    2    1    2    0    0  0.37513306004E+01  0.10049833304E+02 -0.49451445433E+03  0.50303921418E+03  0.91590577152E+02 0.  0.
         13    1    3    3    0    0  0.13153009307E+02  0.20479011374E+02 -0.48601863383E+03  0.48662768519E+03  0.00000000000E+00 0. -1.
        -13    1    3    3    0    0 -0.94016787061E+01 -0.10429178069E+02 -0.84958205023E+01  0.16411528987E+02  0.00000000000E+00 0.  1.
         22    1    1    2    0    0 -0.37513306004E+01 -0.10049833304E+02 -0.56400256652E+02  0.57411327986E+02  0.00000000000E+00 0.  1.
<mgrwt>
<rscale>  0 0.53855237E+02</rscale>
<asrwt>0</asrwt>
<pdfrwt beam="1">  1        2 0.85489587E-01 0.92216622E+02</pdfrwt>
<pdfrwt beam="2">  1       -2 0.73352589E-03 0.92216622E+02</pdfrwt>
<totfact> 0.15861070E+05</totfact>
</mgrwt>
</event>
<event>
 6    1  0.1535419E-002  0.9997675E+02  0.7546771E-02  0.1340114E+00
          2   -1    0    0  501    0  0.00000000000E+00  0.00000000000E+00  0.52086223060E+02  0.52086223060E+02  0.00000000000E+00 0. -1.
         -2   -1    0    0    0  501 -0.00000000000E+00 -0.00000000000E+00 -0.10436993426E+03  0.10436993426E+03  0.00000000000E+00 0.  1.
         23    2    1    2    0    0 -0.29006896719E+02  0.17322199051E+02 -0.73619848595E+01  0.10024743794E+03  0.94095118655E+02 0.  0.
         11    1    3    3    0    0 -0.55921071159E+01 -0.25228064644E+02  0.29543029332E+02  0.39249426617E+02  0.00000000000E+00 0. -1.
        -11    1    3    3    0    0 -0.23414789603E+02  0.42550263694E+02 -0.36905014191E+02  0.60998011321E+02  0.00000000000E+00 0.  1.
         22    1    1    2    0    0  0.29006896719E+02 -0.17322199051E+02 -0.44921726339E+02  0.56208719381E+02  0.00000000000E+00 0.  1.
<mgrwt>
<rscale>  0 0.76226640E+02</rscale>
<asrwt>0</asrwt>
<pdfrwt beam="1">  1        2 0.80132653E-02 0.99976747E+02</pdfrwt>
<pdfrwt beam="2">  1       -2 0.16056913E-01 0.99976747E+02</pdfrwt>
<totfact> 0.23081084E+04</totfact>
</mgrwt>
</event>
<event>
 6    1  0.1535419E-002  0.9262340E+02  0.7546771E-02  0.1422509E+00
          2   -1    0    0  501    0  0.00000000000E+00  0.00000000000E+00  0.23004935396E+02  0.23004935396E+02  0.00000000000E+00 0.  1.
         -2   -1    0    0    0  501 -0.00000000000E+00 -0.00000000000E+00 -0.12128050192E+03  0.12128050192E+03  0.00000000000E+00 0. -1.
         23    2    1    2    0    0  0.10715723340E+02 -0.28849443409E+01 -0.77658845577E+02  0.12087179144E+03  0.91956207183E+02 0.  0.
         11    1    3    3    0    0  0.23575375443E+02 -0.11001861394E+02 -0.94596686978E+02  0.98108982609E+02  0.00000000000E+00 0. -1.
        -11    1    3    3    0    0 -0.12859652103E+02  0.81169170532E+01  0.16937841401E+02  0.22762808833E+02  0.00000000000E+00 0.  1.
         22    1    1    2    0    0 -0.10715723340E+02  0.28849443409E+01 -0.20616720951E+02  0.23413645879E+02  0.00000000000E+00 0. -1.
<mgrwt>
<rscale>  0 0.54493496E+02</rscale>
<asrwt>0</asrwt>
<pdfrwt beam="1">  1        2 0.35392209E-02 0.92623397E+02</pdfrwt>
<pdfrwt beam="2">  1       -2 0.18658539E-01 0.92623397E+02</pdfrwt>
<totfact> 0.50965088E+04</totfact>
</mgrwt>
</event>
<event>
 6    1  0.1535419E-002  0.9464690E+02  0.7546771E-02  0.1362721E+00
          2   -1    0    0  501    0  0.00000000000E+00  0.00000000000E+00  0.65544407275E+03  0.65544407275E+03  0.00000000000E+00 0.  1.
         -2   -1    0    0    0  501 -0.00000000000E+00 -0.00000000000E+00 -0.59924190642E+01  0.59924190642E+01  0.00000000000E+00 0. -1.
         23    2    1    2    0    0 -0.24951243370E+02  0.10569399366E+02  0.56097376139E+03  0.56890209727E+03  0.90684941202E+02 0.  0.
         13    1    3    3    0    0 -0.39377084729E+02  0.18109937868E+02  0.11931159931E+03  0.12694007398E+03  0.00000000000E+00 0. -1.
        -13    1    3    3    0    0  0.14425841359E+02 -0.75405385015E+01  0.44166216208E+03  0.44196202329E+03  0.00000000000E+00 0.  1.
         22    1    1    2    0    0  0.24951243370E+02 -0.10569399366E+02  0.88477892296E+02  0.92534394545E+02  0.00000000000E+00 0. -1.
<mgrwt>
<rscale>  0 0.69232858E+02</rscale>
<asrwt>0</asrwt>
<pdfrwt beam="1">  1        2 0.10083749E+00 0.94646898E+02</pdfrwt>
<pdfrwt beam="2">  1       -2 0.92191114E-03 0.94646898E+02</pdfrwt>
<totfact> 0.95784567E+04</totfact>
</mgrwt>
</event>
<event>
 6    1  0.1535419E-002  0.9119933E+02  0.7546771E-02  0.1422948E+00
          2   -1    0    0  501    0  0.00000000000E+00  0.00000000000E+00  0.10361250088E+03  0.10361250088E+03  0.00000000000E+00 0. -1.
         -2   -1    0    0    0  501 -0.00000000000E+00 -0.00000000000E+00 -0.26674584782E+02  0.26674584782E+02  0.00000000000E+00 0.  1.
         23    2    1    2    0    0  0.15287971170E+01 -0.11445837968E+02  0.75975445613E+02  0.11869955888E+03  0.90465311112E+02 0.  0.
         13    1    3    3    0    0 -0.36961145361E+02 -0.43030099382E+01  0.69757535932E+02  0.79061722599E+02  0.00000000000E+00 0.  1.
        -13    1    3    3    0    0  0.38489942477E+02 -0.71428280300E+01  0.62179096805E+01  0.39637836280E+02  0.00000000000E+00 0. -1.
         22    1    1    2    0    0 -0.15287971170E+01  0.11445837968E+02  0.96247048120E+00  0.11587526779E+02  0.00000000000E+00 0.  1.
<mgrwt>
<rscale>  0 0.54402089E+02</rscale>
<asrwt>0</asrwt>
<pdfrwt beam="1">  1        2 0.15940385E-01 0.91199325E+02</pdfrwt>
<pdfrwt beam="2">  1       -2 0.41037823E-02 0.91199325E+02</pdfrwt>
<totfact> 0.81716526E+04</totfact>
</mgrwt>
</event>
<event>
 6    1  0.1535419E-002  0.8708569E+02  0.7546771E-02  0.1439778E+00
          2   -1    0    0  501    0  0.00000000000E+00  0.00000000000E+00  0.12338033662E+04  0.12338033662E+04  0.00000000000E+00 0. -1.
         -2   -1    0    0    0  501 -0.00000000000E+00 -0.00000000000E+00 -0.21531580976E+01  0.21531580976E+01  0.00000000000E+00 0.  1.
         23    2    1    2    0    0 -0.10270269380E+02 -0.45980783475E+00  0.11845763303E+04  0.11877731264E+04  0.86476746961E+02 0.  0.
         13    1    3    3    0    0 -0.36846583674E+02 -0.22321291131E+02  0.37512362501E+03  0.37758925409E+03  0.00000000000E+00 0.  1.
        -13    1    3    3    0    0  0.26576314294E+02  0.21861483296E+02  0.80945270525E+03  0.81018387233E+03  0.00000000000E+00 0. -1.
         22    1    1    2    0    0  0.10270269380E+02  0.45980783475E+00  0.47073877833E+02  0.48183397873E+02  0.00000000000E+00 0. -1.
<mgrwt>
<rscale>  0 0.51046300E+02</rscale>
<asrwt>0</asrwt>
<pdfrwt beam="1">  1        2 0.18981534E+00 0.87085691E+02</pdfrwt>
<pdfrwt beam="2">  1       -2 0.33125608E-03 0.87085691E+02</pdfrwt>
<totfact> 0.17496695E+05</totfact>
</mgrwt>
</event>
<event>
 6    1  0.1535419E-002  0.9144948E+02  0.7546771E-02  0.1402787E+00
         -1   -1    0    0    0  501 -0.00000000000E+00  0.00000000000E+00  0.79580584946E+01  0.79580584946E+01  0.00000000000E+00 0.  1.
          1   -1    0    0  501    0  0.00000000000E+00 -0.00000000000E+00 -0.40574410478E+03  0.40574410478E+03  0.00000000000E+00 0. -1.
         23    2    1    2    0    0  0.11317439963E+01  0.15626403846E+02 -0.37539937397E+03  0.38637766074E+03  0.90097399500E+02 0.  0.
         13    1    3    3    0    0  0.13218241872E+02  0.47478518799E+02 -0.13779662743E+03  0.14634494250E+03  0.00000000000E+00 0.  1.
        -13    1    3    3    0    0 -0.12086497876E+02 -0.31852114953E+02 -0.23760274654E+03  0.24003271823E+03  0.00000000000E+00 0. -1.
         22    1    1    2    0    0 -0.11317439963E+01 -0.15626403846E+02 -0.22386672314E+02  0.27324502538E+02  0.00000000000E+00 0.  1.
<mgrwt>
<rscale>  0 0.58834855E+02</rscale>
<asrwt>0</asrwt>
<pdfrwt beam="1">  1        1 0.62422178E-01 0.91449476E+02</pdfrwt>
<pdfrwt beam="2">  1       -1 0.12243165E-02 0.91449476E+02</pdfrwt>
<totfact> 0.72660412E+04</totfact>
</mgrwt>
</event>
<event>
 6    1  0.1535419E-002  0.9239341E+02  0.7546771E-02  0.1385990E+00
          4   -1    0    0  501    0  0.00000000000E+00  0.00000000000E+00  0.12937692913E+03  0.12937692913E+03  0.00000000000E+00 0.  1.
         -4   -1    0    0    0  501 -0.00000000000E+00 -0.00000000000E+00 -0.25912167882E+02  0.25912167882E+02  0.00000000000E+00 0. -1.
         23    2    1    2    0    0 -0.19495858980E+02  0.38135879081E+01  0.97997784038E+02  0.13468521849E+03  0.90232535342E+02 0.  0.
         11    1    3    3    0    0 -0.63243742446E+01  0.24245259224E+02  0.10613312429E+03  0.10905076972E+03  0.00000000000E+00 0.  1.
        -11    1    3    3    0    0 -0.13171484735E+02 -0.20431671316E+02 -0.81353402544E+01  0.25634448774E+02  0.00000000000E+00 0. -1.
         22    1    1    2    0    0  0.19495858980E+02 -0.38135879081E+01  0.54669772079E+01  0.20603878516E+02  0.00000000000E+00 0.  1.
<mgrwt>
<rscale>  0 0.62915084E+02</rscale>
<asrwt>0</asrwt>
<pdfrwt beam="1">  1        4 0.19904142E-01 0.92393411E+02</pdfrwt>
<pdfrwt beam="2">  1       -4 0.39864875E-02 0.92393411E+02</pdfrwt>
<totfact> 0.11401820E+04</totfact>
</mgrwt>
</event>
<event>
 6    1  0.1535419E-002  0.9503655E+02  0.7546771E-02  0.1354458E+00
          2   -1    0    0  501    0  0.00000000000E+00  0.00000000000E+00  0.28581448760E+02  0.28581448760E+02  0.00000000000E+00 0.  1.
         -2   -1    0    0    0  501 -0.00000000000E+00 -0.00000000000E+00 -0.16099637900E+03  0.16099637900E+03  0.00000000000E+00 0. -1.
         23    2    1    2    0    0  0.87426558443E+01  0.29493901773E+02 -0.64034711274E+02  0.11459663933E+03  0.89920082430E+02 0.  0.
         13    1    3    3    0    0 -0.94655603526E+01 -0.30433948139E+02 -0.15985737118E+02  0.35656217176E+02  0.00000000000E+00 0.  1.
        -13    1    3    3    0    0  0.18208216197E+02  0.59927849911E+02 -0.48048974156E+02  0.78940422152E+02  0.00000000000E+00 0. -1.
         22    1    1    2    0    0 -0.87426558443E+01 -0.29493901773E+02 -0.68380218968E+02  0.74981188435E+02  0.00000000000E+00 0. -1.
<mgrwt>
<rscale>  0 0.71684125E+02</rscale>
<asrwt>0</asrwt>
<pdfrwt beam="1">  1        2 0.43971459E-02 0.95036548E+02</pdfrwt>
<pdfrwt beam="2">  1       -2 0.24768674E-01 0.95036548E+02</pdfrwt>
<totfact> 0.23810722E+04</totfact>
</mgrwt>
</event>
<event>
 6    1  0.1535419E-002  0.1053869E+03  0.7546771E-02  0.1304293E+00
          2   -1    0    0  501    0  0.00000000000E+00  0.00000000000E+00  0.92535783209E+02  0.92535783209E+02  0.00000000000E+00 0. -1.
         -2   -1    0    0    0  501 -0.00000000000E+00 -0.00000000000E+00 -0.87663366699E+02  0.87663366699E+02  0.00000000000E+00 0.  1.
         23    2    1    2    0    0 -0.22631791079E+02  0.49680607178E+02  0.42776986281E+02  0.11373775430E+03  0.90144581092E+02 0.  0.
         13    1    3    3    0    0 -0.41562010210E+02  0.53331113681E+02  0.58071641865E+02  0.89128693293E+02  0.00000000000E+00 0. -1.
        -13    1    3    3    0    0  0.18930219132E+02 -0.36505065030E+01 -0.15294655584E+02  0.24609061005E+02  0.00000000000E+00 0.  1.
         22    1    1    2    0    0  0.22631791079E+02 -0.49680607178E+02 -0.37904569771E+02  0.66461395611E+02  0.00000000000E+00 0.  1.
<mgrwt>
<rscale>  0 0.89407445E+02</rscale>
<asrwt>0</asrwt>
<pdfrwt beam="1">  1        2 0.14236274E-01 0.10538694E+03</pdfrwt>
<pdfrwt beam="2">  1       -2 0.13486672E-01 0.10538694E+03</pdfrwt>
<totfact> 0.15386266E+04</totfact>
</mgrwt>
</event>
<event>
 6    1  0.1535419E-002  0.9099434E+02  0.7546771E-02  0.1394023E+00
         -2   -1    0    0    0  501 -0.00000000000E+00  0.00000000000E+00  0.66430246809E+01  0.66430246809E+01  0.00000000000E+00 0.  1.
          2   -1    0    0  501    0  0.00000000000E+00 -0.00000000000E+00 -0.45012917059E+03  0.45012917059E+03  0.00000000000E+00 0. -1.
         23    2    1    2    0    0  0.16908470685E+02 -0.69397310675E+01 -0.37613331677E+03  0.38698351537E+03  0.89139850468E+02 0.  0.
         11    1    3    3    0    0 -0.53363866254E+01 -0.79639413670E+01  0.58807532523E+00  0.96045414727E+01  0.00000000000E+00 0.  1.
        -11    1    3    3    0    0  0.22244857311E+02  0.10242102995E+01 -0.37672139209E+03  0.37737897390E+03  0.00000000000E+00 0. -1.
         22    1    1    2    0    0 -0.16908470685E+02  0.69397310675E+01 -0.67352829146E+02  0.69788679900E+02  0.00000000000E+00 0.  1.
<mgrwt>
<rscale>  0 0.60916960E+02</rscale>
<asrwt>0</asrwt>
<pdfrwt beam="1">  1        2 0.69250632E-01 0.90994336E+02</pdfrwt>
<pdfrwt beam="2">  1       -2 0.10220039E-02 0.90994336E+02</pdfrwt>
<totfact> 0.12444594E+05</totfact>
</mgrwt>
</event>
<event>
 6    1  0.1535419E-002  0.9194532E+02  0.7546771E-02  0.1411442E+00
          2   -1    0    0  501    0  0.00000000000E+00  0.00000000000E+00  0.34548226100E+03  0.34548226100E+03  0.00000000000E+00 0. -1.
         -2   -1    0    0    0  501 -0.00000000000E+00 -0.00000000000E+00 -0.88912255269E+01  0.88912255269E+01  0.00000000000E+00 0.  1.
         23    2    1    2    0    0  0.11522660260E+02  0.69569958897E+01  0.32032937865E+03  0.33326393954E+03  0.90954774923E+02 0.  0.
         13    1    3    3    0    0 -0.18427836239E+02 -0.30974177173E+02  0.20615360622E+03  0.20928041990E+03  0.00000000000E+00 0. -1.
        -13    1    3    3    0    0  0.29950496499E+02  0.37931173063E+02  0.11417577243E+03  0.12398351963E+03  0.00000000000E+00 0.  1.
         22    1    1    2    0    0 -0.11522660260E+02 -0.69569958897E+01  0.16261656822E+02  0.21109546984E+02  0.00000000000E+00 0. -1.
<mgrwt>
<rscale>  0 0.56873305E+02</rscale>
<asrwt>0</asrwt>
<pdfrwt beam="1">  1        2 0.53151107E-01 0.91945324E+02</pdfrwt>
<pdfrwt beam="2">  1       -2 0.13678811E-02 0.91945324E+02</pdfrwt>
<totfact> 0.10888593E+05</totfact>
</mgrwt>
</event>
<event>
 6    1  0.1535419E-002  0.9044680E+02  0.7546771E-02  0.1420976E+00
         -2   -1    0    0    0  501 -0.00000000000E+00  0.00000000000E+00  0.52103308355E+01  0.52103308355E+01  0.00000000000E+00 0.  1.
          2   -1    0    0  501    0  0.00000000000E+00 -0.00000000000E+00 -0.56285016340E+03  0.56285016340E+03  0.00000000000E+00 0. -1.
         23    2    1    2    0    0  0.11092978486E+02 -0.50816968433E+01 -0.53237627793E+03  0.54000474604E+03  0.89620012386E+02 0.  0.
         11    1    3    3    0    0 -0.10378011960E+02 -0.44239142755E+02 -0.29217711657E+03  0.29568948633E+03  0.00000000000E+00 0. -1.
        -11    1    3    3    0    0  0.21470990446E+02  0.39157445912E+02 -0.24019916137E+03  0.24431525970E+03  0.00000000000E+00 0.  1.
         22    1    1    2    0    0 -0.11092978486E+02  0.50816968433E+01 -0.25263554635E+02  0.28055748204E+02  0.00000000000E+00 0.  1.
<mgrwt>
<rscale>  0 0.54814905E+02</rscale>
<asrwt>0</asrwt>
<pdfrwt beam="1">  1        2 0.86592315E-01 0.90446804E+02</pdfrwt>
<pdfrwt beam="2">  1       -2 0.80158952E-03 0.90446804E+02</pdfrwt>
<totfact> 0.13759096E+05</totfact>
</mgrwt>
</event>
<event>
 6    1  0.1535419E-002  0.9443150E+02  0.7546771E-02  0.1397398E+00
          2   -1    0    0  501    0  0.00000000000E+00  0.00000000000E+00  0.32001333214E+03  0.32001333214E+03  0.00000000000E+00 0.  1.
         -2   -1    0    0    0  501 -0.00000000000E+00 -0.00000000000E+00 -0.96008813966E+01  0.96008813966E+01  0.00000000000E+00 0. -1.
         23    2    1    2    0    0 -0.12222638184E+02 -0.95269595802E+01  0.24983102472E+03  0.26708210161E+03  0.93151233187E+02 0.  0.
         11    1    3    3    0    0  0.91744193618E+01  0.53582872955E+01 -0.44136123416E+01  0.11504833213E+02  0.00000000000E+00 0. -1.
        -11    1    3    3    0    0 -0.21397057546E+02 -0.14885246876E+02  0.25424463706E+03  0.25557726839E+03  0.00000000000E+00 0.  1.
         22    1    1    2    0    0  0.12222638184E+02  0.95269595802E+01  0.60581426022E+02  0.62532111925E+02  0.00000000000E+00 0.  1.
<mgrwt>
<rscale>  0 0.60103437E+02</rscale>
<asrwt>0</asrwt>
<pdfrwt beam="1">  1        2 0.49232812E-01 0.94431499E+02</pdfrwt>
<pdfrwt beam="2">  1       -2 0.14770589E-02 0.94431499E+02</pdfrwt>
<totfact> 0.10615752E+05</totfact>
</mgrwt>
</event>
<event>
 6    1  0.1535419E-002  0.9282389E+02  0.7546771E-02  0.1419331E+00
          2   -1    0    0  501    0  0.00000000000E+00  0.00000000000E+00  0.41883146689E+02  0.41883146689E+02  0.00000000000E+00 0. -1.
         -2   -1    0    0    0  501 -0.00000000000E+00 -0.00000000000E+00 -0.65094486016E+02  0.65094486016E+02  0.00000000000E+00 0.  1.
         23    2    1    2    0    0 -0.45322856691E+01 -0.10653199179E+02 -0.21411056239E+02  0.95261264439E+02  0.92099092868E+02 0.  0.
         11    1    3    3    0    0  0.20464158515E+02  0.34996157023E+02 -0.59954998387E+01  0.40981200671E+02  0.00000000000E+00 0. -1.
        -11    1    3    3    0    0 -0.24996444184E+02 -0.45649356202E+02 -0.15415556400E+02  0.54280063768E+02  0.00000000000E+00 0.  1.
         22    1    1    2    0    0  0.45322856691E+01  0.10653199179E+02 -0.18002830885E+01  0.11716368265E+02  0.00000000000E+00 0. -1.
<mgrwt>
<rscale>  0 0.55162762E+02</rscale>
<asrwt>0</asrwt>
<pdfrwt beam="1">  1        2 0.64435610E-02 0.92823893E+02</pdfrwt>
<pdfrwt beam="2">  1       -2 0.10014536E-01 0.92823893E+02</pdfrwt>
<totfact> 0.63739389E+04</totfact>
</mgrwt>
</event>
<event>
 6    1  0.1535419E-002  0.9154605E+02  0.7546771E-02  0.1401273E+00
          2   -1    0    0  501    0  0.00000000000E+00  0.00000000000E+00  0.85503322438E+02  0.85503322438E+02  0.00000000000E+00 0. -1.
         -2   -1    0    0    0  501 -0.00000000000E+00 -0.00000000000E+00 -0.36328553901E+02  0.36328553901E+02  0.00000000000E+00 0.  1.
         23    2    1    2    0    0 -0.15919881621E+02 -0.15554893212E+01  0.52446456277E+02  0.10550502366E+03  0.90137767126E+02 0.  0.
         13    1    3    3    0    0 -0.38103765424E+02 -0.31818947862E+02  0.13547471315E+02  0.51457519971E+02  0.00000000000E+00 0. -1.
        -13    1    3    3    0    0  0.22183883802E+02  0.30263458541E+02  0.38898984963E+02  0.54047503684E+02  0.00000000000E+00 0.  1.
         22    1    1    2    0    0  0.15919881621E+02  0.15554893212E+01 -0.32716877402E+01  0.16326852683E+02  0.00000000000E+00 0.  1.
<mgrwt>
<rscale>  0 0.59187564E+02</rscale>
<asrwt>0</asrwt>
<pdfrwt beam="1">  1        2 0.13154357E-01 0.91546050E+02</pdfrwt>
<pdfrwt beam="2">  1       -2 0.55890083E-02 0.91546050E+02</pdfrwt>
<totfact> 0.64642353E+04</totfact>
</mgrwt>
</event>
<event>
 6    1  0.1535419E-002  0.9186694E+02  0.7546771E-02  0.1401351E+00
         -2   -1    0    0    0  501 -0.00000000000E+00  0.00000000000E+00  0.24837920894E+01  0.24837920894E+01  0.00000000000E+00 0. -1.
          2   -1    0    0  501    0  0.00000000000E+00 -0.00000000000E+00 -0.16199631450E+04  0.16199631450E+04  0.00000000000E+00 0.  1.
         23    2    1    2    0    0  0.14743579671E+02 -0.57055639820E+01 -0.15635927863E+04  0.15662892247E+04  0.90496449542E+02 0.  0.
         11    1    3    3    0    0 -0.73614772665E+01 -0.44830668430E+02 -0.92677627790E+03  0.92788913640E+03  0.00000000000E+00 0.  1.
        -11    1    3    3    0    0  0.22105056938E+02  0.39125104448E+02 -0.63681650845E+03  0.63840008833E+03  0.00000000000E+00 0. -1.
         22    1    1    2    0    0 -0.14743579671E+02  0.57055639820E+01 -0.53886566607E+02  0.56157712405E+02  0.00000000000E+00 0. -1.
<mgrwt>
<rscale>  0 0.59169239E+02</rscale>
<asrwt>0</asrwt>
<pdfrwt beam="1">  1        2 0.24922522E+00 0.91866936E+02</pdfrwt>
<pdfrwt beam="2">  1       -2 0.38212167E-03 0.91866936E+02</pdfrwt>
<totfact> 0.91088434E+04</totfact>
</mgrwt>
</event>
<event>
 6    1  0.1535419E-002  0.9349498E+02  0.7546771E-02  0.1380319E+00
          2   -1    0    0  501    0  0.00000000000E+00  0.00000000000E+00  0.10620651940E+04  0.10620651940E+04  0.00000000000E+00 0. -1.
         -2   -1    0    0    0  501 -0.00000000000E+00 -0.00000000000E+00 -0.44648098831E+01  0.44648098831E+01  0.00000000000E+00 0.  1.
         23    2    1    2    0    0  0.19794587723E+02  0.70730681696E+01  0.10120946828E+04  0.10164039343E+04  0.91101354391E+02 0.  0.
         11    1    3    3    0    0  0.36206235706E+02  0.38259559833E+02  0.42489509978E+03  0.42814779135E+03  0.00000000000E+00 0.  1.
        -11    1    3    3    0    0 -0.16411647984E+02 -0.31186491663E+02  0.58719958299E+03  0.58825614295E+03  0.00000000000E+00 0. -1.
         22    1    1    2    0    0 -0.19794587723E+02 -0.70730681696E+01  0.45505701306E+02  0.50126069543E+02  0.00000000000E+00 0.  1.
<mgrwt>
<rscale>  0 0.64380013E+02</rscale>
<asrwt>0</asrwt>
<pdfrwt beam="1">  1        2 0.16339444E+00 0.93494977E+02</pdfrwt>
<pdfrwt beam="2">  1       -2 0.68689467E-03 0.93494977E+02</pdfrwt>
<totfact> 0.79134520E+04</totfact>
</mgrwt>
</event>
<event>
 6    1  0.1535419E-002  0.9854386E+02  0.7546771E-02  0.1352062E+00
         -2   -1    0    0    0  501 -0.00000000000E+00  0.00000000000E+00  0.18101817933E+02  0.18101817933E+02  0.00000000000E+00 0.  1.
          2   -1    0    0  501    0  0.00000000000E+00 -0.00000000000E+00 -0.39143836980E+03  0.39143836980E+03  0.00000000000E+00 0. -1.
         23    2    1    2    0    0  0.27192108731E+02  0.93016569358E+01 -0.36714747902E+03  0.38014229288E+03  0.94260065186E+02 0.  0.
         11    1    3    3    0    0 -0.33876925747E+02  0.55393828332E+01 -0.18009669084E+03  0.18333889089E+03  0.00000000000E+00 0.  1.
        -11    1    3    3    0    0  0.61069034478E+02  0.37622741026E+01 -0.18705078818E+03  0.19680340200E+03  0.00000000000E+00 0. -1.
         22    1    1    2    0    0 -0.27192108731E+02 -0.93016569358E+01 -0.61890728498E+01  0.29397894852E+02  0.00000000000E+00 0.  1.
<mgrwt>
<rscale>  0 0.72416941E+02</rscale>
<asrwt>0</asrwt>
<pdfrwt beam="1">  1        2 0.60221284E-01 0.98543856E+02</pdfrwt>
<pdfrwt beam="2">  1       -2 0.27848952E-02 0.98543856E+02</pdfrwt>
<totfact> 0.34674395E+04</totfact>
</mgrwt>
</event>
<event>
 6    1  0.1535419E-002  0.9123886E+02  0.7546771E-02  0.1360428E+00
         -2   -1    0    0    0  501 -0.00000000000E+00  0.00000000000E+00  0.22426844540E+02  0.22426844540E+02  0.00000000000E+00 0.  1.
          2   -1    0    0  501    0  0.00000000000E+00 -0.00000000000E+00 -0.17179014438E+03  0.17179014438E+03  0.00000000000E+00 0. -1.
         23    2    1    2    0    0  0.31094290209E+02 -0.46150608674E+01 -0.97191860106E+02  0.13330711456E+03  0.85652644160E+02 0.  0.
         13    1    3    3    0    0  0.14017794299E+02  0.39376092971E+02 -0.60488934354E+02  0.73524733484E+02  0.00000000000E+00 0. -1.
        -13    1    3    3    0    0  0.17076495910E+02 -0.43991153838E+02 -0.36702925752E+02  0.59782381078E+02  0.00000000000E+00 0.  1.
         22    1    1    2    0    0 -0.31094290209E+02  0.46150608674E+01 -0.52171439738E+02  0.60909874361E+02  0.00000000000E+00 0. -1.
<mgrwt>
<rscale>  0 0.69901733E+02</rscale>
<asrwt>0</asrwt>
<pdfrwt beam="1">  1        2 0.26429255E-01 0.91238858E+02</pdfrwt>
<pdfrwt beam="2">  1       -2 0.34502835E-02 0.91238858E+02</pdfrwt>
<totfact> 0.59997241E+04</totfact>
</mgrwt>
</event>
<event>
 6    1  0.1535419E-002  0.9137177E+02  0.7546771E-02  0.1431340E+00
          1   -1    0    0  501    0  0.00000000000E+00  0.00000000000E+00  0.14647174979E+02  0.14647174979E+02  0.00000000000E+00 0. -1.
         -1   -1    0    0    0  501 -0.00000000000E+00 -0.00000000000E+00 -0.18043592405E+03  0.18043592405E+03  0.00000000000E+00 0.  1.
         23    2    1    2    0    0  0.99636513432E+01 -0.16852175119E+01 -0.13794025472E+03  0.16545789111E+03  0.90811263369E+02 0.  0.
         11    1    3    3    0    0  0.31071142856E+02 -0.38025394992E+02 -0.80285618166E+02  0.94112310922E+02  0.00000000000E+00 0.  1.
        -11    1    3    3    0    0 -0.21107491513E+02  0.36340177480E+02 -0.57654636550E+02  0.71345580192E+02  0.00000000000E+00 0. -1.
         22    1    1    2    0    0 -0.99636513432E+01  0.16852175119E+01 -0.27848494350E+02  0.29625207910E+02  0.00000000000E+00 0.  1.
<mgrwt>
<rscale>  0 0.52692019E+02</rscale>
<asrwt>0</asrwt>
<pdfrwt beam="1">  1        1 0.22534117E-02 0.91371767E+02</pdfrwt>
<pdfrwt beam="2">  1       -1 0.27759371E-01 0.91371767E+02</pdfrwt>
<totfact> 0.51301443E+04</totfact>
</mgrwt>
</event>
<event>
 6    1  0.1535419E-002  0.9097185E+02  0.7546771E-02  0.1358658E+00
         -2   -1    0    0    0  501 -0.00000000000E+00  0.00000000000E+00  0.78107450819E+02  0.78107450819E+02  0.00000000000E+00 0.  1.
          2   -1    0    0  501    0  0.00000000000E+00 -0.00000000000E+00 -0.61096687134E+02  0.61096687134E+02  0.00000000000E+00 0. -1.
         23    2    1    2    0    0  0.12789757759E+02  0.30063174810E+02 -0.16440641586E+02  0.92445514173E+02  0.84902921102E+02 0.  0.
         13    1    3    3    0    0  0.61217157912E+01 -0.24534873207E+02 -0.26389628835E+02  0.36549253311E+02  0.00000000000E+00 0. -1.
        -13    1    3    3    0    0  0.66680419681E+01  0.54598048018E+02  0.99489872492E+01  0.55896260862E+02  0.00000000000E+00 0.  1.
         22    1    1    2    0    0 -0.12789757759E+02 -0.30063174810E+02  0.33451405271E+02  0.46758623780E+02  0.00000000000E+00 0.  1.
<mgrwt>
<rscale>  0 0.70423853E+02</rscale>
<asrwt>0</asrwt>
<pdfrwt beam="1">  1        2 0.93994903E-02 0.90971855E+02</pdfrwt>
<pdfrwt beam="2">  1       -2 0.12016531E-01 0.90971855E+02</pdfrwt>
<totfact> 0.29869303E+04</totfact>
</mgrwt>
</event>
<event>
 6    1  0.1535419E-002  0.9410652E+02  0.7546771E-02  0.1367997E+00
         -1   -1    0    0    0  501 -0.00000000000E+00  0.00000000000E+00  0.67374843739E+02  0.67374843739E+02  0.00000000000E+00 0.  1.
          1   -1    0    0  501    0  0.00000000000E+00 -0.00000000000E+00 -0.11781823877E+03  0.11781823877E+03  0.00000000000E+00 0. -1.
         23    2    1    2    0    0 -0.25116180726E+02  0.25584036346E+01 -0.95165182393E+02  0.13383739900E+03  0.90656877660E+02 0.  0.
         11    1    3    3    0    0 -0.37564973255E+02  0.95731311171E+01 -0.10792773838E+03  0.11467854537E+03  0.00000000000E+00 0. -1.
        -11    1    3    3    0    0  0.12448792528E+02 -0.70147274825E+01  0.12762555990E+02  0.19158853631E+02  0.00000000000E+00 0.  1.
         22    1    1    2    0    0  0.25116180726E+02 -0.25584036346E+01  0.44721787366E+02  0.51355683508E+02  0.00000000000E+00 0.  1.
<mgrwt>
<rscale>  0 0.67727270E+02</rscale>
<asrwt>0</asrwt>
<pdfrwt beam="1">  1        1 0.18125883E-01 0.94106522E+02</pdfrwt>
<pdfrwt beam="2">  1       -1 0.10365361E-01 0.94106522E+02</pdfrwt>
<totfact> 0.15039913E+04</totfact>
</mgrwt>
</event>
<event>
 6    1  0.1535419E-002  0.9463098E+02  0.7546771E-02  0.1421919E+00
         -2   -1    0    0    0  501 -0.00000000000E+00  0.00000000000E+00  0.86692227166E+01  0.86692227166E+01  0.00000000000E+00 0.  1.
          2   -1    0    0  501    0  0.00000000000E+00 -0.00000000000E+00 -0.34432006037E+03  0.34432006037E+03  0.00000000000E+00 0. -1.
         23    2    1    2    0    0 -0.10453964032E+02 -0.98677004672E+00 -0.32284852965E+03  0.33643156074E+03  0.94046599546E+02 0.  0.
         11    1    3    3    0    0  0.36359318009E+02  0.21524838924E+02 -0.16096038937E+03  0.16641383850E+03  0.00000000000E+00 0. -1.
        -11    1    3    3    0    0 -0.46813282042E+02 -0.22511608971E+02 -0.16188814027E+03  0.17001772224E+03  0.00000000000E+00 0.  1.
         22    1    1    2    0    0  0.10453964032E+02  0.98677004672E+00 -0.12802308010E+02  0.16557722352E+02  0.00000000000E+00 0.  1.
<mgrwt>
<rscale>  0 0.54616868E+02</rscale>
<asrwt>0</asrwt>
<pdfrwt beam="1">  1        2 0.52972312E-01 0.94630978E+02</pdfrwt>
<pdfrwt beam="2">  1       -2 0.13337267E-02 0.94630978E+02</pdfrwt>
<totfact> 0.11376571E+05</totfact>
</mgrwt>
</event>
<event>
 6    1  0.1535419E-002  0.9124720E+02  0.7546771E-02  0.1419451E+00
         -2   -1    0    0    0  501 -0.00000000000E+00  0.00000000000E+00  0.14517181023E+02  0.14517181023E+02  0.00000000000E+00 0.  1.
          2   -1    0    0  501    0  0.00000000000E+00 -0.00000000000E+00 -0.23861138574E+03  0.23861138574E+03  0.00000000000E+00 0. -1.
         23    2    1    2    0    0 -0.60495560858E+01 -0.10554546919E+02 -0.22296159373E+03  0.24091061288E+03  0.90432602134E+02 0.  0.
         11    1    3    3    0    0 -0.39261995028E+02  0.21775845691E+02 -0.10921172042E+03  0.11808002196E+03  0.00000000000E+00 0.  1.
        -11    1    3    3    0    0  0.33212438943E+02 -0.32330392610E+02 -0.11374987331E+03  0.12283059092E+03  0.00000000000E+00 0. -1.
         22    1    1    2    0    0  0.60495560858E+01  0.10554546919E+02 -0.11326109866E+01  0.12217953886E+02  0.00000000000E+00 0.  1.
<mgrwt>
<rscale>  0 0.55137332E+02</rscale>
<asrwt>0</asrwt>
<pdfrwt beam="1">  1        2 0.36709446E-01 0.91247198E+02</pdfrwt>
<pdfrwt beam="2">  1       -2 0.22334124E-02 0.91247198E+02</pdfrwt>
<totfact> 0.79416500E+04</totfact>
</mgrwt>
</event>
<event>
 6    1  0.1535419E-002  0.9386304E+02  0.7546771E-02  0.1376524E+00
          2   -1    0    0  501    0  0.00000000000E+00  0.00000000000E+00  0.34352640425E+02  0.34352640425E+02  0.00000000000E+00 0. -1.
         -2   -1    0    0    0  501 -0.00000000000E+00 -0.00000000000E+00 -0.15118374480E+03  0.15118374480E+03  0.00000000000E+00 0.  1.
         23    2    1    2    0    0  0.21038593105E+02  0.67789323717E+01 -0.34039085505E+02  0.99844526145E+02  0.91223317935E+02 0.  0.
         13    1    3    3    0    0  0.17393155868E+02  0.29984741187E+02  0.20632622342E+02  0.40339951410E+02  0.00000000000E+00 0. -1.
        -13    1    3    3    0    0  0.36454372374E+01 -0.23205808815E+02 -0.54671707847E+02  0.59504574734E+02  0.00000000000E+00 0.  1.
         22    1    1    2    0    0 -0.21038593105E+02 -0.67789323717E+01 -0.82792018869E+02  0.85691859079E+02  0.00000000000E+00 0.  1.
<mgrwt>
<rscale>  0 0.65386413E+02</rscale>
<asrwt>0</asrwt>
<pdfrwt beam="1">  1        2 0.52850215E-02 0.93863039E+02</pdfrwt>
<pdfrwt beam="2">  1       -2 0.23259038E-01 0.93863039E+02</pdfrwt>
<totfact> 0.20880468E+04</totfact>
</mgrwt>
</event>
<event>
 6    1  0.1535419E-002  0.1027155E+03  0.7546771E-02  0.1343644E+00
         -2   -1    0    0    0  501 -0.00000000000E+00  0.00000000000E+00  0.89183520137E+03  0.89183520137E+03  0.00000000000E+00 0.  1.
          2   -1    0    0  501    0  0.00000000000E+00 -0.00000000000E+00 -0.49084251575E+01  0.49084251575E+01  0.00000000000E+00 0. -1.
         23    2    1    2    0    0 -0.11834987061E+02 -0.26816029212E+02  0.71394812784E+03  0.72129910785E+03  0.98444438120E+02 0.  0.
         13    1    3    3    0    0  0.40929212636E+02 -0.26467805543E+02  0.28803618834E+03  0.29213111949E+03  0.00000000000E+00 0. -1.
        -13    1    3    3    0    0 -0.52764199697E+02 -0.34822366863E+00  0.42591193949E+03  0.42916798836E+03  0.00000000000E+00 0.  1.
         22    1    1    2    0    0  0.11834987061E+02  0.26816029212E+02  0.17297864838E+03  0.17544451868E+03  0.00000000000E+00 0.  1.
<mgrwt>
<rscale>  0 0.75073496E+02</rscale>
<asrwt>0</asrwt>
<pdfrwt beam="1">  1        2 0.75514304E-03 0.10271550E+03</pdfrwt>
<pdfrwt beam="2">  1       -2 0.13720529E+00 0.10271550E+03</pdfrwt>
<totfact> 0.77407962E+03</totfact>
</mgrwt>
</event>
<event>
 6    1  0.1535419E-002  0.9618405E+02  0.7546771E-02  0.1351775E+00
         -1   -1    0    0    0  501 -0.00000000000E+00  0.00000000000E+00  0.65802630460E+02  0.65802630460E+02  0.00000000000E+00 0.  1.
          1   -1    0    0  501    0  0.00000000000E+00 -0.00000000000E+00 -0.70248206700E+02  0.70248206700E+02  0.00000000000E+00 0. -1.
         23    2    1    2    0    0 -0.27747570032E+02  0.13952028056E+02 -0.24278272717E+02  0.99200836087E+02  0.91031778103E+02 0.  0.
         11    1    3    3    0    0 -0.12445127211E+02 -0.15610894569E+01  0.34395707614E+02  0.36611239993E+02  0.00000000000E+00 0.  1.
        -11    1    3    3    0    0 -0.15302442820E+02  0.15513117512E+02 -0.58673980331E+02  0.62589596093E+02  0.00000000000E+00 0. -1.
         22    1    1    2    0    0  0.27747570032E+02 -0.13952028056E+02  0.19832696477E+02  0.36850001073E+02  0.00000000000E+00 0.  1.
<mgrwt>
<rscale>  0 0.72505333E+02</rscale>
<asrwt>0</asrwt>
<pdfrwt beam="1">  1        1 0.10807416E-01 0.96184049E+02</pdfrwt>
<pdfrwt beam="2">  1       -1 0.10123482E-01 0.96184049E+02</pdfrwt>
<totfact> 0.30382397E+04</totfact>
</mgrwt>
</event>
<event>
 6    1  0.1535419E-002  0.9216036E+02  0.7546771E-02  0.1377490E+00
          2   -1    0    0  501    0  0.00000000000E+00  0.00000000000E+00  0.12856490964E+03  0.12856490964E+03  0.00000000000E+00 0. -1.
         -2   -1    0    0    0  501 -0.00000000000E+00 -0.00000000000E+00 -0.31292766810E+02  0.31292766810E+02  0.00000000000E+00 0.  1.
         23    2    1    2    0    0  0.15360921137E+02  0.17098266707E+02  0.10082613934E+03  0.13659957004E+03  0.89248101040E+02 0.  0.
         11    1    3    3    0    0  0.15184439114E+02  0.35549572716E+02  0.49598023642E+01  0.38973567337E+02  0.00000000000E+00 0. -1.
        -11    1    3    3    0    0  0.17648202345E+00 -0.18451306008E+02  0.95866336976E+02  0.97626002707E+02  0.00000000000E+00 0.  1.
         22    1    1    2    0    0 -0.15360921137E+02 -0.17098266707E+02 -0.35539965071E+01  0.23258106409E+02  0.00000000000E+00 0.  1.
<mgrwt>
<rscale>  0 0.65128202E+02</rscale>
<asrwt>0</asrwt>
<pdfrwt beam="1">  1        2 0.19779217E-01 0.92160361E+02</pdfrwt>
<pdfrwt beam="2">  1       -2 0.48142719E-02 0.92160361E+02</pdfrwt>
<totfact> 0.50613496E+04</totfact>
</mgrwt>
</event>
<event>
 6    1  0.1535419E-002  0.1165638E+03  0.7546771E-02  0.1273848E+00
         -2   -1    0    0    0  501 -0.00000000000E+00  0.00000000000E+00  0.21079113953E+02  0.21079113953E+02  0.00000000000E+00 0.  1.
          2   -1    0    0  501    0  0.00000000000E+00 -0.00000000000E+00 -0.42629432434E+03  0.42629432434E+03  0.00000000000E+00 0. -1.
         23    2    1    2    0    0 -0.13027284564E+02  0.70227796281E+02 -0.22228759799E+03  0.25099583038E+03  0.92116649594E+02 0.  0.
         11    1    3    3    0    0  0.42581265191E+01  0.82434408739E+02 -0.21192658551E+03  0.22743447635E+03  0.00000000000E+00 0. -1.
        -11    1    3    3    0    0 -0.17285411083E+02 -0.12206612458E+02 -0.10361012479E+02  0.23561354027E+02  0.00000000000E+00 0.  1.
         22    1    1    2    0    0  0.13027284564E+02 -0.70227796281E+02 -0.18292761240E+03  0.19637760791E+03  0.00000000000E+00 0.  1.
<mgrwt>
<rscale>  0 0.10313042E+03</rscale>
<asrwt>0</asrwt>
<pdfrwt beam="1">  1        2 0.65583735E-01 0.11656385E+03</pdfrwt>
<pdfrwt beam="2">  1       -2 0.32429410E-02 0.11656385E+03</pdfrwt>
<totfact> 0.25817081E+04</totfact>
</mgrwt>
</event>
<event>
 6    1  0.1535419E-002  0.9880056E+02  0.7546771E-02  0.1342546E+00
          2   -1    0    0  501    0  0.00000000000E+00  0.00000000000E+00  0.24290004311E+03  0.24290004311E+03  0.00000000000E+00 0. -1.
         -2   -1    0    0    0  501 -0.00000000000E+00 -0.00000000000E+00 -0.18143721723E+02  0.18143721723E+02  0.00000000000E+00 0.  1.
         23    2    1    2    0    0  0.17146417006E+02 -0.28855167071E+02  0.15853631306E+03  0.18680287458E+03  0.92924330017E+02 0.  0.
         13    1    3    3    0    0  0.47960273682E+01 -0.56309601709E+02  0.54547961933E+02  0.78544594176E+02  0.00000000000E+00 0. -1.
        -13    1    3    3    0    0  0.12350389638E+02  0.27454434638E+02  0.10398835113E+03  0.10825828041E+03  0.00000000000E+00 0.  1.
         22    1    1    2    0    0 -0.17146417006E+02  0.28855167071E+02  0.66220008320E+02  0.74240890247E+02  0.00000000000E+00 0.  1.
<mgrwt>
<rscale>  0 0.75429593E+02</rscale>
<asrwt>0</asrwt>
<pdfrwt beam="1">  1        2 0.37369235E-01 0.98800564E+02</pdfrwt>
<pdfrwt beam="2">  1       -2 0.27913420E-02 0.98800564E+02</pdfrwt>
<totfact> 0.57062286E+04</totfact>
</mgrwt>
</event>
<event>
 6    1  0.1535419E-002  0.1075653E+03  0.7546771E-02  0.1288499E+00
         -2   -1    0    0    0  501 -0.00000000000E+00  0.00000000000E+00  0.12338691579E+02  0.12338691579E+02  0.00000000000E+00 0.  1.
          2   -1    0    0  501    0  0.00000000000E+00 -0.00000000000E+00 -0.16182877802E+04  0.16182877802E+04  0.00000000000E+00 0. -1.
         23    2    1    2    0    0  0.68591941885E+02  0.54983818192E+01 -0.15027188173E+04  0.15065636828E+04  0.82675266887E+02 0.  0.
         13    1    3    3    0    0  0.15475525108E+02  0.13583490461E+02 -0.73350979172E+02  0.76186411098E+02  0.00000000000E+00 0.  1.
        -13    1    3    3    0    0  0.53116416776E+02 -0.80851086416E+01 -0.14293678381E+04  0.14303772717E+04  0.00000000000E+00 0. -1.
         22    1    1    2    0    0 -0.68591941885E+02 -0.54983818192E+01 -0.10323027133E+03  0.12406278900E+03  0.00000000000E+00 0.  1.
<mgrwt>
<rscale>  0 0.96198884E+02</rscale>
<asrwt>0</asrwt>
<pdfrwt beam="1">  1        2 0.24896741E+00 0.10756527E+03</pdfrwt>
<pdfrwt beam="2">  1       -2 0.18982598E-02 0.10756527E+03</pdfrwt>
<totfact> 0.95389690E+03</totfact>
</mgrwt>
</event>
<event>
 6    1  0.1535419E-002  0.9365328E+02  0.7546771E-02  0.1425290E+00
         -2   -1    0    0    0  501 -0.00000000000E+00  0.00000000000E+00  0.52973186954E+03  0.52973186954E+03  0.00000000000E+00 0. -1.
          2   -1    0    0  501    0  0.00000000000E+00 -0.00000000000E+00 -0.51141017616E+01  0.51141017616E+01  0.00000000000E+00 0.  1.
         23    2    1    2    0    0  0.37413994284E+01 -0.95838673326E+01  0.46327858972E+03  0.47264996382E+03  0.93086454525E+02 0.  0.
         11    1    3    3    0    0  0.31815564872E+02  0.29325867190E+02  0.27341430492E+03  0.27681694094E+03  0.00000000000E+00 0. -1.
        -11    1    3    3    0    0 -0.28074165444E+02 -0.38909734523E+02  0.18986428480E+03  0.19583302288E+03  0.00000000000E+00 0.  1.
         22    1    1    2    0    0 -0.37413994284E+01  0.95838673326E+01  0.61339178050E+02  0.62196007481E+02  0.00000000000E+00 0. -1.
<mgrwt>
<rscale>  0 0.53917267E+02</rscale>
<asrwt>0</asrwt>
<pdfrwt beam="1">  1        2 0.78678531E-03 0.93653279E+02</pdfrwt>
<pdfrwt beam="2">  1       -2 0.81497167E-01 0.93653279E+02</pdfrwt>
<totfact> 0.24187049E+04</totfact>
</mgrwt>
</event>
<event>
 6    1  0.1535419E-002  0.9713987E+02  0.7546771E-02  0.1358363E+00
          2   -1    0    0  501    0  0.00000000000E+00  0.00000000000E+00  0.11176117617E+04  0.11176117617E+04  0.00000000000E+00 0. -1.
         -2   -1    0    0    0  501 -0.00000000000E+00 -0.00000000000E+00 -0.41384988191E+01  0.41384988191E+01  0.00000000000E+00 0.  1.
         23    2    1    2    0    0  0.12391468899E+02 -0.23952067274E+02  0.10154296384E+04  0.10200654419E+04  0.93321515604E+02 0.  0.
         11    1    3    3    0    0  0.15932609135E+02 -0.29957123836E+02  0.12260138116E+03  0.12720996803E+03  0.00000000000E+00 0.  1.
        -11    1    3    3    0    0 -0.35411402358E+01  0.60050565626E+01  0.89282825723E+03  0.89285547391E+03  0.00000000000E+00 0. -1.
         22    1    1    2    0    0 -0.12391468899E+02  0.23952067274E+02  0.98043624536E+02  0.10168481863E+03  0.00000000000E+00 0.  1.
<mgrwt>
<rscale>  0 0.70511284E+02</rscale>
<asrwt>0</asrwt>
<pdfrwt beam="1">  1        2 0.17194003E+00 0.97139875E+02</pdfrwt>
<pdfrwt beam="2">  1       -2 0.63669302E-03 0.97139875E+02</pdfrwt>
<totfact> 0.82293508E+04</totfact>
</mgrwt>
</event>
<event>
 6    1  0.1535419E-002  0.9172612E+02  0.7546771E-02  0.1420708E+00
         -2   -1    0    0    0  501 -0.00000000000E+00  0.00000000000E+00  0.51194536948E+01  0.51194536948E+01  0.00000000000E+00 0.  1.
          2   -1    0    0  501    0  0.00000000000E+00 -0.00000000000E+00 -0.52442563652E+03  0.52442563652E+03  0.00000000000E+00 0. -1.
         23    2    1    2    0    0 -0.10161710944E+02  0.58922381509E+01 -0.46901056057E+03  0.47789600060E+03  0.90970888893E+02 0.  0.
         11    1    3    3    0    0  0.14859168896E+02 -0.99977881972E+01 -0.16301131475E+02  0.24217298703E+02  0.00000000000E+00 0.  1.
        -11    1    3    3    0    0 -0.25020879841E+02  0.15890026348E+02 -0.45270942909E+03  0.45367870189E+03  0.00000000000E+00 0. -1.
         22    1    1    2    0    0  0.10161710944E+02 -0.58922381509E+01 -0.50295622261E+02  0.51649089618E+02  0.00000000000E+00 0.  1.
<mgrwt>
<rscale>  0 0.54871437E+02</rscale>
<asrwt>0</asrwt>
<pdfrwt beam="1">  1        2 0.80680864E-01 0.91726122E+02</pdfrwt>
<pdfrwt beam="2">  1       -2 0.78760829E-03 0.91726122E+02</pdfrwt>
<totfact> 0.15274182E+05</totfact>
</mgrwt>
</event>
<event>
 6    1  0.1535419E-002  0.8786340E+02  0.7546771E-02  0.1434420E+00
          3   -1    0    0  501    0  0.00000000000E+00  0.00000000000E+00  0.30690446237E+02  0.30690446237E+02  0.00000000000E+00 0. -1.
         -3   -1    0    0    0  501 -0.00000000000E+00 -0.00000000000E+00 -0.86205652399E+02  0.86205652399E+02  0.00000000000E+00 0.  1.
         23    2    1    2    0    0 -0.58216204115E+01 -0.91537382274E+01 -0.36788582861E+02  0.95254273204E+02  0.87191138007E+02 0.  0.
         13    1    3    3    0    0 -0.38930081878E+01  0.21365805210E+02  0.20786320494E+02  0.30062006998E+02  0.00000000000E+00 0. -1.
        -13    1    3    3    0    0 -0.19286122237E+01 -0.30519543438E+02 -0.57574903355E+02  0.65192266206E+02  0.00000000000E+00 0.  1.
         22    1    1    2    0    0  0.58216204115E+01  0.91537382274E+01 -0.18726623301E+02  0.21641825432E+02  0.00000000000E+00 0. -1.
<mgrwt>
<rscale>  0 0.52082862E+02</rscale>
<asrwt>0</asrwt>
<pdfrwt beam="1">  1        3 0.47216071E-02 0.87863398E+02</pdfrwt>
<pdfrwt beam="2">  1       -3 0.13262408E-01 0.87863398E+02</pdfrwt>
<totfact> 0.23084684E+04</totfact>
</mgrwt>
</event>
<event>
 6    1  0.1535419E-002  0.1605516E+03  0.7546771E-02  0.1209589E+00
         -3   -1    0    0    0  501 -0.00000000000E+00  0.00000000000E+00  0.10132806104E+03  0.10132806104E+03  0.00000000000E+00 0.  1.
          3   -1    0    0  501    0  0.00000000000E+00 -0.00000000000E+00 -0.19443227557E+03  0.19443227557E+03  0.00000000000E+00 0. -1.
         23    2    1    2    0    0 -0.75501752573E+02 -0.66365443358E+02 -0.10890522192E+03  0.19400298528E+03  0.12518755619E+03 0.  0.
         11    1    3    3    0    0  0.26311281248E+02  0.81312950231E+01 -0.44561874824E+02  0.52384751288E+02  0.00000000000E+00 0. -1.
        -11    1    3    3    0    0 -0.10181303382E+03 -0.74496738381E+02 -0.64343347094E+02  0.14161823400E+03  0.00000000000E+00 0.  1.
         22    1    1    2    0    0  0.75501752573E+02  0.66365443358E+02  0.15801007382E+02  0.10175735132E+03  0.00000000000E+00 0. -1.
<mgrwt>
<rscale>  0 0.14281617E+03</rscale>
<asrwt>0</asrwt>
<pdfrwt beam="1">  1        3 0.29912658E-01 0.16055158E+03</pdfrwt>
<pdfrwt beam="2">  1       -3 0.15588933E-01 0.16055158E+03</pdfrwt>
<totfact> 0.88776620E+02</totfact>
</mgrwt>
</event>
<event>
 6    1  0.1535419E-002  0.8716615E+02  0.7546771E-02  0.1394615E+00
          2   -1    0    0  501    0  0.00000000000E+00  0.00000000000E+00  0.10427261871E+02  0.10427261871E+02  0.00000000000E+00 0.  1.
         -2   -1    0    0    0  501 -0.00000000000E+00 -0.00000000000E+00 -0.30006861623E+03  0.30006861623E+03  0.00000000000E+00 0. -1.
         23    2    1    2    0    0  0.17496548603E+00  0.20596456195E+02 -0.19432114717E+03  0.21297569291E+03  0.84697655892E+02 0.  0.
         11    1    3    3    0    0 -0.98969729760E+01  0.19352761365E+02 -0.20011350279E+03  0.20129056969E+03  0.00000000000E+00 0. -1.
        -11    1    3    3    0    0  0.10071938462E+02  0.12436948308E+01  0.57923556181E+01  0.11685123227E+02  0.00000000000E+00 0.  1.
         22    1    1    2    0    0 -0.17496548603E+00 -0.20596456195E+02 -0.95320207186E+02  0.97520185186E+02  0.00000000000E+00 0. -1.
<mgrwt>
<rscale>  0 0.60773317E+02</rscale>
<asrwt>0</asrwt>
<pdfrwt beam="1">  1        2 0.16041941E-02 0.87166149E+02</pdfrwt>
<pdfrwt beam="2">  1       -2 0.46164405E-01 0.87166149E+02</pdfrwt>
<totfact> 0.29009185E+04</totfact>
</mgrwt>
</event>
<event>
 6    1  0.1535419E-002  0.1034418E+03  0.7546771E-02  0.1363345E+00
          2   -1    0    0  501    0  0.00000000000E+00  0.00000000000E+00  0.10752026424E+04  0.10752026424E+04  0.00000000000E+00 0. -1.
         -2   -1    0    0    0  501 -0.00000000000E+00 -0.00000000000E+00 -0.57240050173E+01  0.57240050173E+01  0.00000000000E+00 0.  1.
         23    2    1    2    0    0 -0.11522493489E+02  0.17005376795E+02  0.10392128900E+04  0.10443484276E+04  0.10138173855E+03 0.  0.
         11    1    3    3    0    0  0.30023945534E+02 -0.26709775392E+02  0.54281486146E+03  0.54430030611E+03  0.00000000000E+00 0. -1.
        -11    1    3    3    0    0 -0.41546439023E+02  0.43715152188E+02  0.49639802852E+03  0.50004812153E+03  0.00000000000E+00 0.  1.
         22    1    1    2    0    0  0.11522493489E+02 -0.17005376795E+02  0.30265747377E+02  0.36578219755E+02  0.00000000000E+00 0. -1.
<mgrwt>
<rscale>  0 0.69052561E+02</rscale>
<asrwt>0</asrwt>
<pdfrwt beam="1">  1        2 0.16541563E+00 0.10344181E+03</pdfrwt>
<pdfrwt beam="2">  1       -2 0.88061701E-03 0.10344181E+03</pdfrwt>
<totfact> 0.55384835E+04</totfact>
</mgrwt>
</event>
<event>
 6    1  0.1535419E-002  0.9268298E+02  0.7546771E-02  0.1391775E+00
         -2   -1    0    0    0  501 -0.00000000000E+00  0.00000000000E+00  0.28223638676E+02  0.28223638676E+02  0.00000000000E+00 0.  1.
          2   -1    0    0  501    0  0.00000000000E+00 -0.00000000000E+00 -0.30888455902E+03  0.30888455902E+03  0.00000000000E+00 0. -1.
         23    2    1    2    0    0 -0.99377168707E+01 -0.14923972798E+02 -0.29805173389E+03  0.31212973545E+03  0.90932131262E+02 0.  0.
         11    1    3    3    0    0 -0.36079173313E+02  0.39450632471E+01 -0.25881074350E+03  0.26134320581E+03  0.00000000000E+00 0. -1.
        -11    1    3    3    0    0  0.26141456442E+02 -0.18869036045E+02 -0.39240990392E+02  0.50786529643E+02  0.00000000000E+00 0.  1.
         22    1    1    2    0    0  0.99377168707E+01  0.14923972798E+02  0.17390813543E+02  0.24978462250E+02  0.00000000000E+00 0.  1.
<mgrwt>
<rscale>  0 0.61467393E+02</rscale>
<asrwt>0</asrwt>
<pdfrwt beam="1">  1        2 0.47520703E-01 0.92682985E+02</pdfrwt>
<pdfrwt beam="2">  1       -2 0.43420981E-02 0.92682985E+02</pdfrwt>
<totfact> 0.23043187E+04</totfact>
</mgrwt>
</event>
<event>
 6    1  0.1535419E-002  0.9536638E+02  0.7546771E-02  0.1364683E+00
         -2   -1    0    0    0  501 -0.00000000000E+00  0.00000000000E+00  0.71377692771E+01  0.71377692771E+01  0.00000000000E+00 0.  1.
          2   -1    0    0  501    0  0.00000000000E+00 -0.00000000000E+00 -0.78741156702E+03  0.78741156702E+03  0.00000000000E+00 0. -1.
         23    2    1    2    0    0 -0.20018306650E+02  0.16012116162E+02 -0.74425392676E+03  0.75033902561E+03  0.91856547917E+02 0.  0.
         11    1    3    3    0    0  0.18785691420E+02 -0.86065829936E+00 -0.59244454265E+03  0.59274292830E+03  0.00000000000E+00 0. -1.
        -11    1    3    3    0    0 -0.38803998070E+02  0.16872774461E+02 -0.15180938411E+03  0.15759609731E+03  0.00000000000E+00 0.  1.
         22    1    1    2    0    0  0.20018306650E+02 -0.16012116162E+02 -0.36019870980E+02  0.44210310681E+02  0.00000000000E+00 0.  1.
<mgrwt>
<rscale>  0 0.68667635E+02</rscale>
<asrwt>0</asrwt>
<pdfrwt beam="1">  1        2 0.12114012E+00 0.95366377E+02</pdfrwt>
<pdfrwt beam="2">  1       -2 0.10981194E-02 0.95366377E+02</pdfrwt>
<totfact> 0.60266084E+04</totfact>
</mgrwt>
</event>
<event>
 6    1  0.1535419E-002  0.9447357E+02  0.7546771E-02  0.1342047E+00
          2   -1    0    0  501    0  0.00000000000E+00  0.00000000000E+00  0.38739772074E+03  0.38739772074E+03  0.00000000000E+00 0. -1.
         -2   -1    0    0    0  501 -0.00000000000E+00 -0.00000000000E+00 -0.12882195984E+02  0.12882195984E+02  0.00000000000E+00 0.  1.
         23    2    1    2    0    0  0.21423842276E+02 -0.32257418500E+02  0.19557966545E+03  0.21720189015E+03  0.86172695699E+02 0.  0.
         13    1    3    3    0    0 -0.31826966194E+01  0.20143673831E+02  0.12142679149E+03  0.12312742524E+03  0.00000000000E+00 0. -1.
        -13    1    3    3    0    0  0.24606538895E+02 -0.52401092331E+02  0.74152873956E+02  0.94074464919E+02  0.00000000000E+00 0.  1.
         22    1    1    2    0    0 -0.21423842276E+02  0.32257418500E+02  0.17893585930E+03  0.18307802657E+03  0.00000000000E+00 0. -1.
<mgrwt>
<rscale>  0 0.75592177E+02</rscale>
<asrwt>0</asrwt>
<pdfrwt beam="1">  1        2 0.59599641E-01 0.94473571E+02</pdfrwt>
<pdfrwt beam="2">  1       -2 0.19818766E-02 0.94473571E+02</pdfrwt>
<totfact> 0.57021925E+04</totfact>
</mgrwt>
</event>
<event>
 6    1  0.1535419E-002  0.9209406E+02  0.7546771E-02  0.1417133E+00
          2   -1    0    0  501    0  0.00000000000E+00  0.00000000000E+00  0.52998631601E+02  0.52998631601E+02  0.00000000000E+00 0. -1.
         -2   -1    0    0    0  501 -0.00000000000E+00 -0.00000000000E+00 -0.52074882418E+02  0.52074882418E+02  0.00000000000E+00 0.  1.
         23    2    1    2    0    0  0.11800843658E+02  0.33361037498E+01 -0.31595292550E+01  0.92148241795E+02  0.91273908328E+02 0.  0.
         13    1    3    3    0    0  0.48589424491E+02 -0.13753384111E+02  0.50882238901E+01  0.50754091157E+02  0.00000000000E+00 0. -1.
        -13    1    3    3    0    0 -0.36788580833E+02  0.17089487861E+02 -0.82477531451E+01  0.41394150638E+02  0.00000000000E+00 0.  1.
         22    1    1    2    0    0 -0.11800843658E+02 -0.33361037498E+01  0.40832784374E+01  0.12925272224E+02  0.00000000000E+00 0.  1.
<mgrwt>
<rscale>  0 0.55632157E+02</rscale>
<asrwt>0</asrwt>
<pdfrwt beam="1">  1        2 0.81536356E-02 0.92094060E+02</pdfrwt>
<pdfrwt beam="2">  1       -2 0.80115204E-02 0.92094060E+02</pdfrwt>
<totfact> 0.66893336E+04</totfact>
</mgrwt>
</event>
<event>
 6    1  0.1535419E-002  0.9269685E+02  0.7546771E-02  0.1392276E+00
          2   -1    0    0  501    0  0.00000000000E+00  0.00000000000E+00  0.52291699733E+03  0.52291699733E+03  0.00000000000E+00 0. -1.
         -2   -1    0    0    0  501 -0.00000000000E+00 -0.00000000000E+00 -0.14628079058E+02  0.14628079058E+02  0.00000000000E+00 0.  1.
         23    2    1    2    0    0 -0.17314263904E+02  0.40372325985E+01  0.51119400025E+03  0.51953056882E+03  0.90975947769E+02 0.  0.
         11    1    3    3    0    0 -0.38029568034E+02 -0.30622331516E+02  0.20767369547E+03  0.21333621123E+03  0.00000000000E+00 0.  1.
        -11    1    3    3    0    0  0.20715304130E+02  0.34659564114E+02  0.30352030477E+03  0.30619435759E+03  0.00000000000E+00 0. -1.
         22    1    1    2    0    0  0.17314263904E+02 -0.40372325985E+01 -0.29050819719E+01  0.18014507567E+02  0.00000000000E+00 0.  1.
<mgrwt>
<rscale>  0 0.61344252E+02</rscale>
<asrwt>0</asrwt>
<pdfrwt beam="1">  1        2 0.80448754E-01 0.92696850E+02</pdfrwt>
<pdfrwt beam="2">  1       -2 0.22504741E-02 0.92696850E+02</pdfrwt>
<totfact> 0.34392410E+04</totfact>
</mgrwt>
</event>
<event>
 6    1  0.1535419E-002  0.9528591E+02  0.7546771E-02  0.1351687E+00
         -1   -1    0    0    0  501 -0.00000000000E+00  0.00000000000E+00  0.54035864822E+01  0.54035864822E+01  0.00000000000E+00 0.  1.
          1   -1    0    0  501    0  0.00000000000E+00 -0.00000000000E+00 -0.74948661843E+03  0.74948661843E+03  0.00000000000E+00 0. -1.
         23    2    1    2    0    0  0.36007618905E+01 -0.31788655737E+02 -0.55677623817E+03  0.56487094506E+03  0.89754782946E+02 0.  0.
         13    1    3    3    0    0  0.36263955341E+02 -0.16254963547E+01 -0.40752078036E+03  0.40913433384E+03  0.00000000000E+00 0.  1.
        -13    1    3    3    0    0 -0.32663193450E+02 -0.30163159382E+02 -0.14925545780E+03  0.15573661122E+03  0.00000000000E+00 0. -1.
         22    1    1    2    0    0 -0.36007618905E+01  0.31788655737E+02 -0.18730679378E+03  0.19001925986E+03  0.00000000000E+00 0.  1.
<mgrwt>
<rscale>  0 0.72532336E+02</rscale>
<asrwt>0</asrwt>
<pdfrwt beam="1">  1        1 0.11530567E+00 0.95285913E+02</pdfrwt>
<pdfrwt beam="2">  1       -1 0.83132071E-03 0.95285913E+02</pdfrwt>
<totfact> 0.56002864E+04</totfact>
</mgrwt>
</event>
<event>
 6    1  0.1535419E-002  0.9083607E+02  0.7546771E-02  0.1410661E+00
          4   -1    0    0  501    0  0.00000000000E+00  0.00000000000E+00  0.38450004491E+02  0.38450004491E+02  0.00000000000E+00 0. -1.
         -4   -1    0    0    0  501 -0.00000000000E+00 -0.00000000000E+00 -0.71642409493E+02  0.71642409493E+02  0.00000000000E+00 0.  1.
         23    2    1    2    0    0 -0.85399161820E+01  0.11257256358E+02 -0.28416429651E+02  0.95177122178E+02  0.89730346722E+02 0.  0.
         13    1    3    3    0    0  0.22841637019E+02  0.27184715241E+02  0.15632835536E+02  0.38796065153E+02  0.00000000000E+00 0. -1.
        -13    1    3    3    0    0 -0.31381553201E+02 -0.15927458883E+02 -0.44049265187E+02  0.56381057025E+02  0.00000000000E+00 0.  1.
         22    1    1    2    0    0  0.85399161820E+01 -0.11257256358E+02 -0.47759753506E+01  0.14915291806E+02  0.00000000000E+00 0.  1.
<mgrwt>
<rscale>  0 0.57046504E+02</rscale>
<asrwt>0</asrwt>
<pdfrwt beam="1">  1        4 0.59153853E-02 0.90836067E+02</pdfrwt>
<pdfrwt beam="2">  1       -4 0.11021909E-01 0.90836067E+02</pdfrwt>
<totfact> 0.16829475E+04</totfact>
</mgrwt>
</event>
<event>
 6    1  0.1535419E-002  0.9698326E+02  0.7546771E-02  0.1368306E+00
          2   -1    0    0  501    0  0.00000000000E+00  0.00000000000E+00  0.40075406331E+03  0.40075406331E+03  0.00000000000E+00 0.  1.
         -2   -1    0    0    0  501 -0.00000000000E+00 -0.00000000000E+00 -0.18234518388E+02  0.18234518388E+02  0.00000000000E+00 0. -1.
         23    2    1    2    0    0 -0.24108658053E+01  0.22820448392E+02  0.38393769720E+03  0.39599735957E+03  0.94229338949E+02 0.  0.
         11    1    3    3    0    0 -0.22079884404E+02  0.52089149176E+02  0.29398799447E+03  0.29938226676E+03  0.00000000000E+00 0.  1.
        -11    1    3    3    0    0  0.19669018599E+02 -0.29268700784E+02  0.89949702725E+02  0.96615092809E+02  0.00000000000E+00 0. -1.
         22    1    1    2    0    0  0.24108658053E+01 -0.22820448392E+02 -0.14181522808E+01  0.22991222122E+02  0.00000000000E+00 0. -1.
<mgrwt>
<rscale>  0 0.67640401E+02</rscale>
<asrwt>0</asrwt>
<pdfrwt beam="1">  1        2 0.61654465E-01 0.96983264E+02</pdfrwt>
<pdfrwt beam="2">  1       -2 0.28053108E-02 0.96983264E+02</pdfrwt>
<totfact> 0.33406629E+04</totfact>
</mgrwt>
</event>
<event>
 6    1  0.1535419E-002  0.9269167E+02  0.7546771E-02  0.1402993E+00
          1   -1    0    0  501    0  0.00000000000E+00  0.00000000000E+00  0.63732129960E+03  0.63732129960E+03  0.00000000000E+00 0. -1.
         -1   -1    0    0    0  501 -0.00000000000E+00 -0.00000000000E+00 -0.27636309060E+02  0.27636309060E+02  0.00000000000E+00 0.  1.
         23    2    1    2    0    0  0.14987755308E+02  0.53304328004E+00  0.63162036485E+03  0.63838548811E+03  0.91470373301E+02 0.  0.
         13    1    3    3    0    0 -0.10999890018E+02  0.36025510061E+02  0.44752685467E+03  0.44910925242E+03  0.00000000000E+00 0. -1.
        -13    1    3    3    0    0  0.25987645325E+02 -0.35492466781E+02  0.18409351018E+03  0.18927623570E+03  0.00000000000E+00 0.  1.
         22    1    1    2    0    0 -0.14987755308E+02 -0.53304328004E+00 -0.21935374311E+02  0.26572120549E+02  0.00000000000E+00 0.  1.
<mgrwt>
<rscale>  0 0.58787272E+02</rscale>
<asrwt>0</asrwt>
<pdfrwt beam="1">  1        1 0.98049420E-01 0.92691672E+02</pdfrwt>
<pdfrwt beam="2">  1       -1 0.42517403E-02 0.92691672E+02</pdfrwt>
<totfact> 0.68140736E+03</totfact>
</mgrwt>
</event>
<event>
 6    1  0.1535419E-002  0.9177696E+02  0.7546771E-02  0.1418098E+00
         -2   -1    0    0    0  501 -0.00000000000E+00  0.00000000000E+00  0.56981978798E+01  0.56981978798E+01  0.00000000000E+00 0.  1.
          2   -1    0    0  501    0  0.00000000000E+00 -0.00000000000E+00 -0.47992163803E+03  0.47992163803E+03  0.00000000000E+00 0. -1.
         23    2    1    2    0    0  0.59196576472E+01  0.10676305310E+02 -0.43337137369E+03  0.44298279595E+03  0.90961443148E+02 0.  0.
         11    1    3    3    0    0 -0.31607146755E+02  0.32302980198E+02 -0.27955841044E+03  0.28318792188E+03  0.00000000000E+00 0. -1.
        -11    1    3    3    0    0  0.37526804402E+02 -0.21626674888E+02 -0.15381296325E+03  0.15979487407E+03  0.00000000000E+00 0.  1.
         22    1    1    2    0    0 -0.59196576472E+01 -0.10676305310E+02 -0.40852066462E+02  0.42637039953E+02  0.00000000000E+00 0.  1.
<mgrwt>
<rscale>  0 0.55425286E+02</rscale>
<asrwt>0</asrwt>
<pdfrwt beam="1">  1        2 0.73834099E-01 0.91776958E+02</pdfrwt>
<pdfrwt beam="2">  1       -2 0.87664581E-03 0.91776958E+02</pdfrwt>
<totfact> 0.14454624E+05</totfact>
</mgrwt>
</event>
<event>
 6    1  0.1535419E-002  0.9302432E+02  0.7546771E-02  0.1415704E+00
          2   -1    0    0  501    0  0.00000000000E+00  0.00000000000E+00  0.14794858667E+03  0.14794858667E+03  0.00000000000E+00 0. -1.
         -2   -1    0    0    0  501 -0.00000000000E+00 -0.00000000000E+00 -0.19079214041E+02  0.19079214041E+02  0.00000000000E+00 0.  1.
         23    2    1    2    0    0  0.12145947307E+02  0.67812057791E+00  0.12064286635E+03  0.15234245805E+03  0.92225481516E+02 0.  0.
         11    1    3    3    0    0  0.22082013847E+02  0.70243989993E+01  0.13315180133E+03  0.13515309732E+03  0.00000000000E+00 0. -1.
        -11    1    3    3    0    0 -0.99360665400E+01 -0.63462784214E+01 -0.12508934982E+02  0.17189360735E+02  0.00000000000E+00 0.  1.
         22    1    1    2    0    0 -0.12145947307E+02 -0.67812057791E+00  0.82265062848E+01  0.14685342664E+02  0.00000000000E+00 0. -1.
<mgrwt>
<rscale>  0 0.55940219E+02</rscale>
<asrwt>0</asrwt>
<pdfrwt beam="1">  1        2 0.22761320E-01 0.93024316E+02</pdfrwt>
<pdfrwt beam="2">  1       -2 0.29352638E-02 0.93024316E+02</pdfrwt>
<totfact> 0.89648155E+04</totfact>
</mgrwt>
</event>
<event>
 6    1  0.1535419E-002  0.1261391E+03  0.7546771E-02  0.1254898E+00
         -2   -1    0    0    0  501 -0.00000000000E+00  0.00000000000E+00  0.89321515830E+02  0.89321515830E+02  0.00000000000E+00 0. -1.
          2   -1    0    0  501    0  0.00000000000E+00 -0.00000000000E+00 -0.13303560790E+03  0.13303560790E+03  0.00000000000E+00 0.  1.
         23    2    1    2    0    0 -0.65776947277E+02  0.48267310662E+02 -0.59156992083E+02  0.13932205143E+03  0.96201581226E+02 0.  0.
         11    1    3    3    0    0 -0.28403885815E+02  0.11980956173E+02 -0.78044935667E+02  0.83912669029E+02  0.00000000000E+00 0.  1.
        -11    1    3    3    0    0 -0.37373061462E+02  0.36286354489E+02  0.18887943585E+02  0.55409382400E+02  0.00000000000E+00 0. -1.
         22    1    1    2    0    0  0.65776947277E+02 -0.48267310662E+02  0.15442900011E+02  0.83035072303E+02  0.00000000000E+00 0. -1.
<mgrwt>
<rscale>  0 0.11312064E+03</rscale>
<asrwt>0</asrwt>
<pdfrwt beam="1">  1        2 0.20467017E-01 0.12613915E+03</pdfrwt>
<pdfrwt beam="2">  1       -2 0.13741772E-01 0.12613915E+03</pdfrwt>
<totfact> 0.10007595E+04</totfact>
</mgrwt>
</event>
<event>
 6    1  0.1535419E-002  0.9335484E+02  0.7546771E-02  0.1379008E+00
          2   -1    0    0  501    0  0.00000000000E+00  0.00000000000E+00  0.86782418924E+02  0.86782418924E+02  0.00000000000E+00 0. -1.
         -2   -1    0    0    0  501 -0.00000000000E+00 -0.00000000000E+00 -0.56287407847E+02  0.56287407847E+02  0.00000000000E+00 0.  1.
         23    2    1    2    0    0  0.13656461674E+02 -0.16698363950E+02  0.56625266202E+02  0.10918584033E+03  0.90828369207E+02 0.  0.
         13    1    3    3    0    0 -0.21538198710E+02 -0.23805581326E+02 -0.98956059227E+01  0.33593492264E+02  0.00000000000E+00 0.  1.
        -13    1    3    3    0    0  0.35194660383E+02  0.71072173760E+01  0.66520872124E+02  0.75592348069E+02  0.00000000000E+00 0. -1.
         22    1    1    2    0    0 -0.13656461674E+02  0.16698363950E+02 -0.26130255124E+02  0.33883986438E+02  0.00000000000E+00 0. -1.
<mgrwt>
<rscale>  0 0.64725182E+02</rscale>
<asrwt>0</asrwt>
<pdfrwt beam="1">  1        2 0.13351141E-01 0.93354844E+02</pdfrwt>
<pdfrwt beam="2">  1       -2 0.86596012E-02 0.93354844E+02</pdfrwt>
<totfact> 0.32804445E+04</totfact>
</mgrwt>
</event>
<event>
 6    1  0.1535419E-002  0.9402672E+02  0.7546771E-02  0.1365504E+00
         -2   -1    0    0    0  501 -0.00000000000E+00  0.00000000000E+00  0.19713243392E+02  0.19713243392E+02  0.00000000000E+00 0. -1.
          2   -1    0    0  501    0  0.00000000000E+00 -0.00000000000E+00 -0.13205517598E+04  0.13205517598E+04  0.00000000000E+00 0.  1.
         23    2    1    2    0    0  0.12868920082E+02  0.23030542056E+02 -0.13092134009E+04  0.13125855224E+04  0.90249706581E+02 0.  0.
         13    1    3    3    0    0 -0.60003378483E+01 -0.11831302609E+02 -0.30527515991E+02  0.33285327223E+02  0.00000000000E+00 0. -1.
        -13    1    3    3    0    0  0.18869257931E+02  0.34861844665E+02 -0.12786858849E+04  0.12793001951E+04  0.00000000000E+00 0.  1.
         22    1    1    2    0    0 -0.12868920082E+02 -0.23030542056E+02  0.83748844273E+01  0.27679480860E+02  0.00000000000E+00 0. -1.
<mgrwt>
<rscale>  0 0.68433034E+02</rscale>
<asrwt>0</asrwt>
<pdfrwt beam="1">  1        2 0.20316185E+00 0.94026722E+02</pdfrwt>
<pdfrwt beam="2">  1       -2 0.30328061E-02 0.94026722E+02</pdfrwt>
<totfact> 0.68554175E+03</totfact>
</mgrwt>
</event>
<event>
 6    1  0.1535419E-002  0.9534633E+02  0.7546771E-02  0.1420069E+00
         -2   -1    0    0    0  501 -0.00000000000E+00  0.00000000000E+00  0.81011548558E+01  0.81011548558E+01  0.00000000000E+00 0.  1.
          2   -1    0    0  501    0  0.00000000000E+00 -0.00000000000E+00 -0.34868833194E+03  0.34868833194E+03  0.00000000000E+00 0. -1.
         23    2    1    2    0    0  0.93754513332E+01 -0.48633254213E+01 -0.31482457562E+03  0.32894594794E+03  0.94759549542E+02 0.  0.
         11    1    3    3    0    0 -0.19258710382E+02  0.29706205932E+02 -0.55961065714E+02  0.66219313439E+02  0.00000000000E+00 0.  1.
        -11    1    3    3    0    0  0.28634161715E+02 -0.34569531353E+02 -0.25886350990E+03  0.26272663450E+03  0.00000000000E+00 0. -1.
         22    1    1    2    0    0 -0.93754513332E+01  0.48633254213E+01 -0.25762601462E+02  0.27843538855E+02  0.00000000000E+00 0.  1.
<mgrwt>
<rscale>  0 0.55006269E+02</rscale>
<asrwt>0</asrwt>
<pdfrwt beam="1">  1        2 0.53644366E-01 0.95346333E+02</pdfrwt>
<pdfrwt beam="2">  1       -2 0.12463313E-02 0.95346333E+02</pdfrwt>
<totfact> 0.12378497E+05</totfact>
</mgrwt>
</event>
<event>
 6    1  0.1535419E-002  0.9818749E+02  0.7546771E-02  0.1355641E+00
         -2   -1    0    0    0  501 -0.00000000000E+00  0.00000000000E+00  0.15668861917E+02  0.15668861917E+02  0.00000000000E+00 0.  1.
          2   -1    0    0  501    0  0.00000000000E+00 -0.00000000000E+00 -0.30487663000E+03  0.30487663000E+03  0.00000000000E+00 0. -1.
         23    2    1    2    0    0 -0.12054053146E+01  0.27315225767E+02 -0.26953393503E+03  0.28686115925E+03  0.94303806864E+02 0.  0.
         13    1    3    3    0    0  0.29999911357E+02  0.69502259104E+01 -0.23177479408E+03  0.23381158118E+03  0.00000000000E+00 0. -1.
        -13    1    3    3    0    0 -0.31205316672E+02  0.20364999857E+02 -0.37759140950E+02  0.53049578067E+02  0.00000000000E+00 0.  1.
         22    1    1    2    0    0  0.12054053146E+01 -0.27315225767E+02 -0.19673833051E+02  0.33684332673E+02  0.00000000000E+00 0. -1.
<mgrwt>
<rscale>  0 0.71326173E+02</rscale>
<asrwt>0</asrwt>
<pdfrwt beam="1">  1        2 0.46904100E-01 0.98187487E+02</pdfrwt>
<pdfrwt beam="2">  1       -2 0.24105940E-02 0.98187487E+02</pdfrwt>
<totfact> 0.55552329E+04</totfact>
</mgrwt>
</event>
<event>
 6    1  0.1535419E-002  0.9182195E+02  0.7546771E-02  0.1425047E+00
         -2   -1    0    0    0  501 -0.00000000000E+00  0.00000000000E+00  0.38629194485E+01  0.38629194485E+01  0.00000000000E+00 0.  1.
          2   -1    0    0  501    0  0.00000000000E+00 -0.00000000000E+00 -0.68802698916E+03  0.68802698916E+03  0.00000000000E+00 0. -1.
         23    2    1    2    0    0  0.98441050565E+01 -0.48107629454E+01 -0.62664364491E+03  0.63333524087E+03  0.91165891531E+02 0.  0.
         13    1    3    3    0    0  0.42081824909E+01  0.26758620609E+02 -0.54420814000E+03  0.54488185162E+03  0.00000000000E+00 0. -1.
        -13    1    3    3    0    0  0.56359225655E+01 -0.31569383554E+02 -0.82435504910E+02  0.88453389257E+02  0.00000000000E+00 0.  1.
         22    1    1    2    0    0 -0.98441050565E+01  0.48107629454E+01 -0.57520424794E+02  0.58554667729E+02  0.00000000000E+00 0. -1.
<mgrwt>
<rscale>  0 0.53967222E+02</rscale>
<asrwt>0</asrwt>
<pdfrwt beam="1">  1        2 0.10585021E+00 0.91821945E+02</pdfrwt>
<pdfrwt beam="2">  1       -2 0.59429586E-03 0.91821945E+02</pdfrwt>
<totfact> 0.16746593E+05</totfact>
</mgrwt>
</event>
<event>
 6    1  0.1535419E-002  0.7891639E+02  0.7546771E-02  0.1401200E+00
          1   -1    0    0  501    0  0.00000000000E+00  0.00000000000E+00  0.54289037811E+02  0.54289037811E+02  0.00000000000E+00 0. -1.
         -1   -1    0    0    0  501 -0.00000000000E+00 -0.00000000000E+00 -0.88927766758E+02  0.88927766758E+02  0.00000000000E+00 0.  1.
         23    2    1    2    0    0  0.68435293152E+01  0.24044164443E+02  0.21475142830E+02  0.81786174236E+02  0.74852126218E+02 0.  0.
         13    1    3    3    0    0  0.39439538234E+02  0.22295387328E+02  0.61357350386E+01  0.45718800473E+02  0.00000000000E+00 0.  1.
        -13    1    3    3    0    0 -0.32596008919E+02  0.17487771145E+01  0.15339407791E+02  0.36067373763E+02  0.00000000000E+00 0. -1.
         22    1    1    2    0    0 -0.68435293152E+01 -0.24044164443E+02 -0.56113871777E+02  0.61430630333E+02  0.00000000000E+00 0.  1.
<mgrwt>
<rscale>  0 0.59204752E+02</rscale>
<asrwt>0</asrwt>
<pdfrwt beam="1">  1        1 0.83521598E-02 0.78916390E+02</pdfrwt>
<pdfrwt beam="2">  1       -1 0.13681195E-01 0.78916390E+02</pdfrwt>
<totfact> 0.26260170E+04</totfact>
</mgrwt>
</event>
<event>
 6    1  0.1535419E-002  0.9226491E+02  0.7546771E-02  0.1408442E+00
         -2   -1    0    0    0  501 -0.00000000000E+00  0.00000000000E+00  0.37723231930E+02  0.37723231930E+02  0.00000000000E+00 0.  1.
          2   -1    0    0  501    0  0.00000000000E+00 -0.00000000000E+00 -0.75832732437E+02  0.75832732437E+02  0.00000000000E+00 0. -1.
         23    2    1    2    0    0 -0.69950134852E+01  0.12080014817E+02 -0.28345380468E+02  0.96520853220E+02  0.91202837350E+02 0.  0.
         11    1    3    3    0    0  0.23350743074E+02 -0.31311910755E+02 -0.15586799217E+02  0.42055216883E+02  0.00000000000E+00 0. -1.
        -11    1    3    3    0    0 -0.30345756560E+02  0.43391925572E+02 -0.12758581251E+02  0.54465636337E+02  0.00000000000E+00 0.  1.
         22    1    1    2    0    0  0.69950134852E+01 -0.12080014817E+02 -0.97641200394E+01  0.17035111147E+02  0.00000000000E+00 0. -1.
<mgrwt>
<rscale>  0 0.57542925E+02</rscale>
<asrwt>0</asrwt>
<pdfrwt beam="1">  1        2 0.11666574E-01 0.92264915E+02</pdfrwt>
<pdfrwt beam="2">  1       -2 0.58035741E-02 0.92264915E+02</pdfrwt>
<totfact> 0.70504904E+04</totfact>
</mgrwt>
</event>
<event>
 6    1  0.1535419E-002  0.9230848E+02  0.7546771E-02  0.1414552E+00
         -2   -1    0    0    0  501 -0.00000000000E+00  0.00000000000E+00  0.34245420755E+01  0.34245420755E+01  0.00000000000E+00 0.  1.
          2   -1    0    0  501    0  0.00000000000E+00 -0.00000000000E+00 -0.82367135219E+03  0.82367135219E+03  0.00000000000E+00 0. -1.
         23    2    1    2    0    0 -0.11315827480E+02  0.57088258408E+01 -0.75566881949E+03  0.76128589869E+03  0.91434217646E+02 0.  0.
         11    1    3    3    0    0 -0.27877174738E+02  0.39784475944E+02 -0.28646101218E+03  0.29055094716E+03  0.00000000000E+00 0.  1.
        -11    1    3    3    0    0  0.16561347259E+02 -0.34075650104E+02 -0.46920780731E+03  0.47073495153E+03  0.00000000000E+00 0. -1.
         22    1    1    2    0    0  0.11315827480E+02 -0.57088258408E+01 -0.64577990620E+02  0.65809995567E+02  0.00000000000E+00 0.  1.
<mgrwt>
<rscale>  0 0.56190441E+02</rscale>
<asrwt>0</asrwt>
<pdfrwt beam="1">  1        2 0.12671879E+00 0.92308476E+02</pdfrwt>
<pdfrwt beam="2">  1       -2 0.52685213E-03 0.92308476E+02</pdfrwt>
<totfact> 0.16002697E+05</totfact>
</mgrwt>
</event>
<event>
 6    1  0.1535419E-002  0.8911063E+02  0.7546771E-02  0.1407450E+00
          2   -1    0    0  501    0  0.00000000000E+00  0.00000000000E+00  0.35057331893E+03  0.35057331893E+03  0.00000000000E+00 0. -1.
         -2   -1    0    0    0  501 -0.00000000000E+00 -0.00000000000E+00 -0.27571561359E+02  0.27571561359E+02  0.00000000000E+00 0.  1.
         23    2    1    2    0    0 -0.62664585329E+01 -0.14435571250E+02  0.34203263303E+03  0.35345017557E+03  0.87710035548E+02 0.  0.
         13    1    3    3    0    0  0.15919324631E+01 -0.71707619949E+01 -0.32282674175E+01  0.80234523164E+01  0.00000000000E+00 0.  1.
        -13    1    3    3    0    0 -0.78583909960E+01 -0.72648092555E+01  0.34526090045E+03  0.34542672326E+03  0.00000000000E+00 0. -1.
         22    1    1    2    0    0  0.62664585329E+01  0.14435571250E+02 -0.19030875464E+02  0.24694704711E+02  0.00000000000E+00 0.  1.
<mgrwt>
<rscale>  0 0.57766740E+02</rscale>
<asrwt>0</asrwt>
<pdfrwt beam="1">  1        2 0.53934354E-01 0.89110631E+02</pdfrwt>
<pdfrwt beam="2">  1       -2 0.42417789E-02 0.89110631E+02</pdfrwt>
<totfact> 0.20806513E+04</totfact>
</mgrwt>
</event>
<event>
 6    1  0.1535419E-002  0.9846531E+02  0.7546771E-02  0.1398275E+00
          2   -1    0    0  501    0  0.00000000000E+00  0.00000000000E+00  0.17230199372E+03  0.17230199372E+03  0.00000000000E+00 0. -1.
         -2   -1    0    0    0  501 -0.00000000000E+00 -0.00000000000E+00 -0.26877952387E+02  0.26877952387E+02  0.00000000000E+00 0.  1.
         23    2    1    2    0    0 -0.55942673919E+01  0.12264617416E+02  0.15429944787E+03  0.18304025872E+03  0.97538197805E+02 0.  0.
         13    1    3    3    0    0 -0.49101984324E+02  0.34325134111E+01  0.10907568959E+03  0.11966742695E+03  0.00000000000E+00 0. -1.
        -13    1    3    3    0    0  0.43507716932E+02  0.88321040047E+01  0.45223758284E+02  0.63372831774E+02  0.00000000000E+00 0.  1.
         22    1    1    2    0    0  0.55942673919E+01 -0.12264617416E+02 -0.88754065319E+01  0.16139687392E+02  0.00000000000E+00 0. -1.
<mgrwt>
<rscale>  0 0.59894477E+02</rscale>
<asrwt>0</asrwt>
<pdfrwt beam="1">  1        2 0.26507998E-01 0.98465307E+02</pdfrwt>
<pdfrwt beam="2">  1       -2 0.41350697E-02 0.98465307E+02</pdfrwt>
<totfact> 0.46308852E+04</totfact>
</mgrwt>
</event>
<event>
 6    1  0.1535419E-002  0.9956899E+02  0.7546771E-02  0.1331368E+00
         -1   -1    0    0    0  501 -0.00000000000E+00  0.00000000000E+00  0.26896338081E+02  0.26896338081E+02  0.00000000000E+00 0.  1.
          1   -1    0    0  501    0  0.00000000000E+00 -0.00000000000E+00 -0.18612027361E+03  0.18612027361E+03  0.00000000000E+00 0. -1.
         23    2    1    2    0    0  0.39824200583E+02  0.10224170129E+01 -0.96149276547E+02  0.13841483628E+03  0.91252239608E+02 0.  0.
         13    1    3    3    0    0  0.62231641449E+02  0.18590701419E+02 -0.86873849447E+02  0.10846869177E+03  0.00000000000E+00 0. -1.
        -13    1    3    3    0    0 -0.22407440866E+02 -0.17568284406E+02 -0.92754271006E+01  0.29946144510E+02  0.00000000000E+00 0.  1.
         22    1    1    2    0    0 -0.39824200583E+02 -0.10224170129E+01 -0.63074658977E+02  0.74601775406E+02  0.00000000000E+00 0.  1.
<mgrwt>
<rscale>  0 0.79189137E+02</rscale>
<asrwt>0</asrwt>
<pdfrwt beam="1">  1        1 0.28633888E-01 0.99568989E+02</pdfrwt>
<pdfrwt beam="2">  1       -1 0.41378982E-02 0.99568989E+02</pdfrwt>
<totfact> 0.33374080E+04</totfact>
</mgrwt>
</event>
<event>
 6    1  0.1535419E-002  0.9245404E+02  0.7546771E-02  0.1403615E+00
         -2   -1    0    0    0  501 -0.00000000000E+00  0.00000000000E+00  0.11575731835E+03  0.11575731835E+03  0.00000000000E+00 0.  1.
          2   -1    0    0  501    0  0.00000000000E+00 -0.00000000000E+00 -0.25393269615E+02  0.25393269615E+02  0.00000000000E+00 0. -1.
         23    2    1    2    0    0  0.11017460523E+02 -0.10128612678E+02  0.70433070215E+02  0.11622636007E+03  0.91234731134E+02 0.  0.
         13    1    3    3    0    0 -0.28668494368E+02 -0.19909157308E+02  0.66576975250E+02  0.75171475624E+02  0.00000000000E+00 0.  1.
        -13    1    3    3    0    0  0.39685954891E+02  0.97805446306E+01  0.38560949650E+01  0.41054884451E+02  0.00000000000E+00 0. -1.
         22    1    1    2    0    0 -0.11017460523E+02  0.10128612678E+02  0.19930978521E+02  0.24924227891E+02  0.00000000000E+00 0.  1.
<mgrwt>
<rscale>  0 0.58643372E+02</rscale>
<asrwt>0</asrwt>
<pdfrwt beam="1">  1        2 0.39066569E-02 0.92454039E+02</pdfrwt>
<pdfrwt beam="2">  1       -2 0.17808818E-01 0.92454039E+02</pdfrwt>
<totfact> 0.48339216E+04</totfact>
</mgrwt>
</event>
<event>
 6    1  0.1535419E-002  0.9314882E+02  0.7546771E-02  0.1397360E+00
         -2   -1    0    0    0  501 -0.00000000000E+00  0.00000000000E+00  0.15127731121E+01  0.15127731121E+01  0.00000000000E+00 0.  1.
          2   -1    0    0  501    0  0.00000000000E+00 -0.00000000000E+00 -0.27613492692E+04  0.27613492692E+04  0.00000000000E+00 0. -1.
         23    2    1    2    0    0  0.38513406340E+01 -0.15690019682E+02 -0.26672878704E+04  0.26689138776E+04  0.91737084911E+02 0.  0.
         11    1    3    3    0    0  0.41542137385E+02 -0.15146297852E+02 -0.20496003222E+04  0.20500772278E+04  0.00000000000E+00 0. -1.
        -11    1    3    3    0    0 -0.37690796751E+02 -0.54372182971E+00 -0.61768754824E+03  0.61883664973E+03  0.00000000000E+00 0.  1.
         22    1    1    2    0    0 -0.38513406340E+01  0.15690019682E+02 -0.92548625740E+02  0.93948164796E+02  0.00000000000E+00 0.  1.
<mgrwt>
<rscale>  0 0.60112537E+02</rscale>
<asrwt>0</asrwt>
<pdfrwt beam="1">  1        2 0.42482421E+00 0.93148818E+02</pdfrwt>
<pdfrwt beam="2">  1       -2 0.23273364E-03 0.93148818E+02</pdfrwt>
<totfact> 0.47097959E+04</totfact>
</mgrwt>
</event>
<event>
 6    1  0.1535419E-002  0.9229297E+02  0.7546771E-02  0.1403493E+00
         -2   -1    0    0    0  501 -0.00000000000E+00  0.00000000000E+00  0.69173102837E+01  0.69173102837E+01  0.00000000000E+00 0.  1.
          2   -1    0    0  501    0  0.00000000000E+00 -0.00000000000E+00 -0.41927382788E+03  0.41927382788E+03  0.00000000000E+00 0. -1.
         23    2    1    2    0    0 -0.20913792726E+01 -0.14927198663E+02 -0.36535391641E+03  0.37683083381E+03  0.91053818973E+02 0.  0.
         11    1    3    3    0    0 -0.18841875058E+02  0.82697481543E+01 -0.15380605964E+02  0.25689842935E+02  0.00000000000E+00 0.  1.
        -11    1    3    3    0    0  0.16750495785E+02 -0.23196946818E+02 -0.34997331045E+03  0.35114099088E+03  0.00000000000E+00 0. -1.
         22    1    1    2    0    0  0.20913792726E+01  0.14927198663E+02 -0.47002601184E+02  0.49360304347E+02  0.00000000000E+00 0. -1.
<mgrwt>
<rscale>  0 0.58671387E+02</rscale>
<asrwt>0</asrwt>
<pdfrwt beam="1">  1        2 0.64503682E-01 0.92292974E+02</pdfrwt>
<pdfrwt beam="2">  1       -2 0.10642013E-02 0.92292974E+02</pdfrwt>
<totfact> 0.12698244E+05</totfact>
</mgrwt>
</event>
<event>
 6    1  0.1535419E-002  0.9467682E+02  0.7546771E-02  0.1361130E+00
         -2   -1    0    0    0  501 -0.00000000000E+00  0.00000000000E+00  0.14012446059E+03  0.14012446059E+03  0.00000000000E+00 0.  1.
          2   -1    0    0  501    0  0.00000000000E+00 -0.00000000000E+00 -0.37892217042E+02  0.37892217042E+02  0.00000000000E+00 0. -1.
         23    2    1    2    0    0  0.49390097483E+01 -0.27361263793E+02  0.27972488571E+02  0.98722643915E+02  0.90502307877E+02 0.  0.
         11    1    3    3    0    0  0.28577938577E+02 -0.17731177836E+02 -0.23663331933E+02  0.41122336010E+02  0.00000000000E+00 0. -1.
        -11    1    3    3    0    0 -0.23638928828E+02 -0.96300859579E+01  0.51635820504E+02  0.57600307905E+02  0.00000000000E+00 0.  1.
         22    1    1    2    0    0 -0.49390097483E+01  0.27361263793E+02  0.74259754980E+02  0.79294033719E+02  0.00000000000E+00 0.  1.
<mgrwt>
<rscale>  0 0.69695939E+02</rscale>
<asrwt>0</asrwt>
<pdfrwt beam="1">  1        2 0.58295719E-02 0.94676820E+02</pdfrwt>
<pdfrwt beam="2">  1       -2 0.21557609E-01 0.94676820E+02</pdfrwt>
<totfact> 0.20981430E+04</totfact>
</mgrwt>
</event>
<event>
 6    1  0.1535419E-002  0.9376082E+02  0.7546771E-02  0.1405334E+00
          2   -1    0    0  501    0  0.00000000000E+00  0.00000000000E+00  0.17365414999E+04  0.17365414999E+04  0.00000000000E+00 0. -1.
         -2   -1    0    0    0  501 -0.00000000000E+00 -0.00000000000E+00 -0.19242029989E+01  0.19242029989E+01  0.00000000000E+00 0.  1.
         23    2    1    2    0    0 -0.91977875167E+00  0.13935510318E+02  0.16534032376E+04  0.16560595874E+04  0.92714866797E+02 0.  0.
         13    1    3    3    0    0  0.26456820199E+01  0.42540844601E+02  0.14497352763E+04  0.14503617116E+04  0.00000000000E+00 0. -1.
        -13    1    3    3    0    0 -0.35654607715E+01 -0.28605334283E+02  0.20366796131E+03  0.20569787584E+03  0.00000000000E+00 0.  1.
         22    1    1    2    0    0  0.91977875167E+00 -0.13935510318E+02  0.81214059288E+02  0.82406115470E+02  0.00000000000E+00 0. -1.
<mgrwt>
<rscale>  0 0.58248231E+02</rscale>
<asrwt>0</asrwt>
<pdfrwt beam="1">  1        2 0.26715898E+00 0.93760818E+02</pdfrwt>
<pdfrwt beam="2">  1       -2 0.29603262E-03 0.93760818E+02</pdfrwt>
<totfact> 0.11386432E+05</totfact>
</mgrwt>
</event>
<event>
 6    1  0.1535419E-002  0.1014481E+03  0.7546771E-02  0.1402493E+00
         -2   -1    0    0    0  501 -0.00000000000E+00  0.00000000000E+00  0.72915346970E+01  0.72915346970E+01  0.00000000000E+00 0.  1.
          2   -1    0    0  501    0  0.00000000000E+00 -0.00000000000E+00 -0.43764761430E+03  0.43764761430E+03  0.00000000000E+00 0. -1.
         23    2    1    2    0    0 -0.33839627755E+01 -0.11022082052E+02 -0.38561960576E+03  0.39874077685E+03  0.10079081943E+03 0.  0.
         13    1    3    3    0    0  0.46575433059E+02  0.80593481786E+01 -0.20444201800E+03  0.20983508473E+03  0.00000000000E+00 0.  1.
        -13    1    3    3    0    0 -0.49959395835E+02 -0.19081430231E+02 -0.18117758775E+03  0.18890569212E+03  0.00000000000E+00 0. -1.
         22    1    1    2    0    0  0.33839627755E+01  0.11022082052E+02 -0.44736473842E+02  0.46198372143E+02  0.00000000000E+00 0.  1.
<mgrwt>
<rscale>  0 0.58903219E+02</rscale>
<asrwt>0</asrwt>
<pdfrwt beam="1">  1        2 0.67330429E-01 0.10144815E+03</pdfrwt>
<pdfrwt beam="2">  1       -2 0.11217741E-02 0.10144815E+03</pdfrwt>
<totfact> 0.11416879E+05</totfact>
</mgrwt>
</event>
<event>
 6    1  0.1535419E-002  0.9844962E+02  0.7546771E-02  0.1349908E+00
          2   -1    0    0  501    0  0.00000000000E+00  0.00000000000E+00  0.17837730888E+03  0.17837730888E+03  0.00000000000E+00 0. -1.
         -2   -1    0    0    0  501 -0.00000000000E+00 -0.00000000000E+00 -0.30533514533E+02  0.30533514533E+02  0.00000000000E+00 0.  1.
         23    2    1    2    0    0 -0.15055100963E+02  0.25831922342E+02  0.14945692784E+03  0.17896843746E+03  0.93799701766E+02 0.  0.
         13    1    3    3    0    0 -0.13609573626E+02 -0.34845042630E+00  0.15201527457E+03  0.15262367317E+03  0.00000000000E+00 0. -1.
        -13    1    3    3    0    0 -0.14455273372E+01  0.26180372769E+02 -0.25583467221E+01  0.26344764291E+02  0.00000000000E+00 0.  1.
         22    1    1    2    0    0  0.15055100963E+02 -0.25831922342E+02 -0.16131334910E+01  0.29942385953E+02  0.00000000000E+00 0.  1.
<mgrwt>
<rscale>  0 0.73084343E+02</rscale>
<asrwt>0</asrwt>
<pdfrwt beam="1">  1        2 0.27442662E-01 0.98449623E+02</pdfrwt>
<pdfrwt beam="2">  1       -2 0.46974639E-02 0.98449623E+02</pdfrwt>
<totfact> 0.36930796E+04</totfact>
</mgrwt>
</event>
<event>
 6    1  0.1535419E-002  0.8894775E+02  0.7546771E-02  0.1420155E+00
         -2   -1    0    0    0  501 -0.00000000000E+00  0.00000000000E+00  0.60890765379E+02  0.60890765379E+02  0.00000000000E+00 0. -1.
          2   -1    0    0  501    0  0.00000000000E+00 -0.00000000000E+00 -0.16073129584E+03  0.16073129584E+03  0.00000000000E+00 0.  1.
         23    2    1    2    0    0 -0.12542964299E+02  0.33856054876E+01 -0.14748883761E+03  0.17223431524E+03  0.87993828467E+02 0.  0.
         11    1    3    3    0    0 -0.21002157395E+02  0.43135493329E+02 -0.72406711919E+02  0.86859042885E+02  0.00000000000E+00 0. -1.
        -11    1    3    3    0    0  0.84591930950E+01 -0.39749887841E+02 -0.75082125694E+02  0.85375272356E+02  0.00000000000E+00 0.  1.
         22    1    1    2    0    0  0.12542964299E+02 -0.33856054876E+01  0.47648307154E+02  0.49387745976E+02  0.00000000000E+00 0. -1.
<mgrwt>
<rscale>  0 0.54988137E+02</rscale>
<asrwt>0</asrwt>
<pdfrwt beam="1">  1        2 0.24727892E-01 0.88947749E+02</pdfrwt>
<pdfrwt beam="2">  1       -2 0.93678101E-02 0.88947749E+02</pdfrwt>
<totfact> 0.14398287E+04</totfact>
</mgrwt>
</event>
<event>
 6    1  0.1535419E-002  0.9076599E+02  0.7546771E-02  0.1393048E+00
         -2   -1    0    0    0  501 -0.00000000000E+00  0.00000000000E+00  0.68254942963E+02  0.68254942963E+02  0.00000000000E+00 0.  1.
          2   -1    0    0  501    0  0.00000000000E+00 -0.00000000000E+00 -0.55592990528E+02  0.55592990528E+02  0.00000000000E+00 0. -1.
         23    2    1    2    0    0 -0.92987339883E+01  0.16229962245E+02 -0.13419288462E+02  0.91752618336E+02  0.88817720869E+02 0.  0.
         11    1    3    3    0    0 -0.25363819613E+02  0.39698626732E+02 -0.32740928057E+02  0.57369614604E+02  0.00000000000E+00 0. -1.
        -11    1    3    3    0    0  0.16065085625E+02 -0.23468664487E+02  0.19321639595E+02  0.34383003731E+02  0.00000000000E+00 0.  1.
         22    1    1    2    0    0  0.92987339883E+01 -0.16229962245E+02  0.26081240897E+02  0.32095315156E+02  0.00000000000E+00 0.  1.
<mgrwt>
<rscale>  0 0.61155001E+02</rscale>
<asrwt>0</asrwt>
<pdfrwt beam="1">  1        2 0.85527678E-02 0.90765994E+02</pdfrwt>
<pdfrwt beam="2">  1       -2 0.10500760E-01 0.90765994E+02</pdfrwt>
<totfact> 0.41433189E+04</totfact>
</mgrwt>
</event>
<event>
 6    1  0.1535419E-002  0.9330107E+02  0.7546771E-02  0.1416190E+00
         -1   -1    0    0    0  501 -0.00000000000E+00  0.00000000000E+00  0.16679149932E+03  0.16679149932E+03  0.00000000000E+00 0.  1.
          1   -1    0    0  501    0  0.00000000000E+00 -0.00000000000E+00 -0.17888340404E+02  0.17888340404E+02  0.00000000000E+00 0. -1.
         23    2    1    2    0    0  0.69719847607E+01 -0.97258325285E+01  0.11138071547E+03  0.14529539924E+03  0.92530475372E+02 0.  0.
         13    1    3    3    0    0  0.27301046201E+02 -0.16296087557E+00 -0.41371492109E+01  0.27613215740E+02  0.00000000000E+00 0. -1.
        -13    1    3    3    0    0 -0.20329061440E+02 -0.95628716530E+01  0.11551786468E+03  0.11768218350E+03  0.00000000000E+00 0.  1.
         22    1    1    2    0    0 -0.69719847607E+01  0.97258325285E+01  0.37522443444E+02  0.39384440479E+02  0.00000000000E+00 0.  1.
<mgrwt>
<rscale>  0 0.55835188E+02</rscale>
<asrwt>0</asrwt>
<pdfrwt beam="1">  1        1 0.27520525E-02 0.93301068E+02</pdfrwt>
<pdfrwt beam="2">  1       -1 0.25660230E-01 0.93301068E+02</pdfrwt>
<totfact> 0.44469005E+04</totfact>
</mgrwt>
</event>
<event>
 6    1  0.1535419E-002  0.9524702E+02  0.7546771E-02  0.1417315E+00
         -2   -1    0    0    0  501 -0.00000000000E+00  0.00000000000E+00  0.76997690601E+01  0.76997690601E+01  0.00000000000E+00 0.  1.
          2   -1    0    0  501    0  0.00000000000E+00 -0.00000000000E+00 -0.80014584075E+03  0.80014584075E+03  0.00000000000E+00 0. -1.
         23    2    1    2    0    0  0.86662590720E+01  0.68622554205E+01 -0.79098073279E+03  0.79669474375E+03  0.94603385113E+02 0.  0.
         13    1    3    3    0    0  0.35033488217E+02  0.12331929113E+01 -0.71861703648E+03  0.71947154994E+03  0.00000000000E+00 0. -1.
        -13    1    3    3    0    0 -0.26367229145E+02  0.56290625092E+01 -0.72363696318E+02  0.77223193811E+02  0.00000000000E+00 0.  1.
         22    1    1    2    0    0 -0.86662590720E+01 -0.68622554205E+01 -0.14653388956E+01  0.11150866058E+02  0.00000000000E+00 0.  1.
<mgrwt>
<rscale>  0 0.55592992E+02</rscale>
<asrwt>0</asrwt>
<pdfrwt beam="1">  1        2 0.12309939E+00 0.95247021E+02</pdfrwt>
<pdfrwt beam="2">  1       -2 0.11845796E-02 0.95247021E+02</pdfrwt>
<totfact> 0.53057204E+04</totfact>
</mgrwt>
</event>
<event>
 6    1  0.1535419E-002  0.9438810E+02  0.7546771E-02  0.1412122E+00
         -2   -1    0    0    0  501 -0.00000000000E+00  0.00000000000E+00  0.79288193184E+01  0.79288193184E+01  0.00000000000E+00 0. -1.
          2   -1    0    0  501    0  0.00000000000E+00 -0.00000000000E+00 -0.37339710482E+03  0.37339710482E+03  0.00000000000E+00 0.  1.
         23    2    1    2    0    0  0.12208853546E+01 -0.12249995562E+02 -0.34248130432E+03  0.35524999163E+03  0.93581834732E+02 0.  0.
         11    1    3    3    0    0  0.11621700489E+02 -0.92409474438E+01 -0.24527384988E+01  0.15049084958E+02  0.00000000000E+00 0. -1.
        -11    1    3    3    0    0 -0.10400815135E+02 -0.30090481187E+01 -0.34002856582E+03  0.34020090667E+03  0.00000000000E+00 0.  1.
         22    1    1    2    0    0 -0.12208853546E+01  0.12249995562E+02 -0.22986981178E+02  0.26075932505E+02  0.00000000000E+00 0. -1.
<mgrwt>
<rscale>  0 0.56722906E+02</rscale>
<asrwt>0</asrwt>
<pdfrwt beam="1">  1        2 0.57445693E-01 0.94388096E+02</pdfrwt>
<pdfrwt beam="2">  1       -2 0.12198187E-02 0.94388096E+02</pdfrwt>
<totfact> 0.11859481E+05</totfact>
</mgrwt>
</event>
<event>
 6    1  0.1535419E-002  0.9237838E+02  0.7546771E-02  0.1422993E+00
         -2   -1    0    0    0  501 -0.00000000000E+00  0.00000000000E+00  0.60232626200E+01  0.60232626200E+01  0.00000000000E+00 0.  1.
          2   -1    0    0  501    0  0.00000000000E+00 -0.00000000000E+00 -0.45175227294E+03  0.45175227294E+03  0.00000000000E+00 0. -1.
         23    2    1    2    0    0  0.83127358367E+00  0.11072077770E+02 -0.41330919325E+03  0.42350708855E+03  0.91708684986E+02 0.  0.
         11    1    3    3    0    0 -0.24925119766E+02 -0.18586579629E+02 -0.56061457320E+02  0.64106236315E+02  0.00000000000E+00 0.  1.
        -11    1    3    3    0    0  0.25756393349E+02  0.29658657399E+02 -0.35724773593E+03  0.35940085223E+03  0.00000000000E+00 0. -1.
         22    1    1    2    0    0 -0.83127358367E+00 -0.11072077770E+02 -0.32419817070E+02  0.34268447014E+02  0.00000000000E+00 0. -1.
<mgrwt>
<rscale>  0 0.54392645E+02</rscale>
<asrwt>0</asrwt>
<pdfrwt beam="1">  1        2 0.69500365E-01 0.92378379E+02</pdfrwt>
<pdfrwt beam="2">  1       -2 0.92665559E-03 0.92378379E+02</pdfrwt>
<totfact> 0.14272606E+05</totfact>
</mgrwt>
</event>
<event>
 6    1  0.1535419E-002  0.8969927E+02  0.7546771E-02  0.1400936E+00
         -1   -1    0    0    0  501 -0.00000000000E+00  0.00000000000E+00  0.91327217317E+01  0.91327217317E+01  0.00000000000E+00 0.  1.
          1   -1    0    0  501    0  0.00000000000E+00 -0.00000000000E+00 -0.32267073667E+03  0.32267073667E+03  0.00000000000E+00 0. -1.
         23    2    1    2    0    0 -0.17094190452E+02 -0.17263203210E+00 -0.28210823924E+03  0.29602536525E+03  0.88055193353E+02 0.  0.
         13    1    3    3    0    0  0.17022474901E+02  0.25903128991E+02 -0.20862965442E+03  0.21091958052E+03  0.00000000000E+00 0. -1.
        -13    1    3    3    0    0 -0.34116665353E+02 -0.26075761023E+02 -0.73478584821E+02  0.85105784733E+02  0.00000000000E+00 0.  1.
         22    1    1    2    0    0  0.17094190452E+02  0.17263203210E+00 -0.31429775703E+02  0.35778093154E+02  0.00000000000E+00 0.  1.
<mgrwt>
<rscale>  0 0.59266508E+02</rscale>
<asrwt>0</asrwt>
<pdfrwt beam="1">  1        1 0.49641651E-01 0.89699265E+02</pdfrwt>
<pdfrwt beam="2">  1       -1 0.14050341E-02 0.89699265E+02</pdfrwt>
<totfact> 0.79087162E+04</totfact>
</mgrwt>
</event>
<event>
 6    1  0.1535419E-002  0.9467645E+02  0.7546771E-02  0.1402104E+00
          1   -1    0    0  501    0  0.00000000000E+00  0.00000000000E+00  0.30215219792E+03  0.30215219792E+03  0.00000000000E+00 0. -1.
         -1   -1    0    0    0  501 -0.00000000000E+00 -0.00000000000E+00 -0.98211617352E+01  0.98211617352E+01  0.00000000000E+00 0.  1.
         23    2    1    2    0    0  0.65771574555E+00  0.14257241449E+02  0.25374527037E+03  0.27083259098E+03  0.93594490103E+02 0.  0.
         11    1    3    3    0    0 -0.41586400112E+02  0.27782359932E+02  0.12354892741E+03  0.13328775511E+03  0.00000000000E+00 0.  1.
        -11    1    3    3    0    0  0.42244115858E+02 -0.13525118483E+02  0.13019634296E+03  0.13754483587E+03  0.00000000000E+00 0. -1.
         22    1    1    2    0    0 -0.65771574555E+00 -0.14257241449E+02  0.38585765812E+02  0.41140768673E+02  0.00000000000E+00 0.  1.
<mgrwt>
<rscale>  0 0.58993717E+02</rscale>
<asrwt>0</asrwt>
<pdfrwt beam="1">  1        1 0.46484947E-01 0.94676450E+02</pdfrwt>
<pdfrwt beam="2">  1       -1 0.15109482E-02 0.94676450E+02</pdfrwt>
<totfact> 0.77911488E+04</totfact>
</mgrwt>
</event>
<event>
 6    1  0.1535419E-002  0.1154153E+03  0.7546771E-02  0.1340586E+00
         -2   -1    0    0    0  501 -0.00000000000E+00  0.00000000000E+00  0.22144808755E+02  0.22144808755E+02  0.00000000000E+00 0.  1.
          2   -1    0    0  501    0  0.00000000000E+00 -0.00000000000E+00 -0.24095091516E+03  0.24095091516E+03  0.00000000000E+00 0. -1.
         23    2    1    2    0    0  0.73427271864E+01  0.20506416335E+02 -0.20995085098E+03  0.23958308259E+03  0.11334136439E+03 0.  0.
         11    1    3    3    0    0 -0.21667473893E+02  0.28991808606E+02 -0.20593538060E+03  0.20909181087E+03  0.00000000000E+00 0. -1.
        -11    1    3    3    0    0  0.29010201079E+02 -0.84853922716E+01 -0.40154703845E+01  0.30491271719E+02  0.00000000000E+00 0.  1.
         22    1    1    2    0    0 -0.73427271864E+01 -0.20506416335E+02 -0.88552554221E+01  0.23512641324E+02  0.00000000000E+00 0. -1.
<mgrwt>
<rscale>  0 0.76070968E+02</rscale>
<asrwt>0</asrwt>
<pdfrwt beam="1">  1        2 0.37069372E-01 0.11541531E+03</pdfrwt>
<pdfrwt beam="2">  1       -2 0.34068936E-02 0.11541531E+03</pdfrwt>
<totfact> 0.43856606E+04</totfact>
</mgrwt>
</event>
<event>
 6    1  0.1535419E-002  0.9220518E+02  0.7546771E-02  0.1396036E+00
          4   -1    0    0  501    0  0.00000000000E+00  0.00000000000E+00  0.22228055023E+03  0.22228055023E+03  0.00000000000E+00 0. -1.
         -4   -1    0    0    0  501 -0.00000000000E+00 -0.00000000000E+00 -0.15267509305E+02  0.15267509305E+02  0.00000000000E+00 0.  1.
         23    2    1    2    0    0  0.80769557956E+01 -0.14971881977E+02  0.19772207967E+03  0.21816465359E+03  0.90622297610E+02 0.  0.
         11    1    3    3    0    0  0.24744398585E+02 -0.48189236521E+02  0.13161452757E+03  0.14232663716E+03  0.00000000000E+00 0. -1.
        -11    1    3    3    0    0 -0.16667442789E+02  0.33217354544E+02  0.66107552101E+02  0.75838016436E+02  0.00000000000E+00 0.  1.
         22    1    1    2    0    0 -0.80769557956E+01  0.14971881977E+02  0.92909612561E+01  0.19383405942E+02  0.00000000000E+00 0.  1.
<mgrwt>
<rscale>  0 0.60430024E+02</rscale>
<asrwt>0</asrwt>
<pdfrwt beam="1">  1        4 0.34197005E-01 0.92205180E+02</pdfrwt>
<pdfrwt beam="2">  1       -4 0.23488477E-02 0.92205180E+02</pdfrwt>
<totfact> 0.95727502E+03</totfact>
</mgrwt>
</event>
<event>
 6    1  0.1535419E-002  0.8106180E+02  0.7546771E-02  0.1442240E+00
         -1   -1    0    0    0  501 -0.00000000000E+00  0.00000000000E+00  0.28490042722E+02  0.28490042722E+02  0.00000000000E+00 0.  1.
          1   -1    0    0  501    0  0.00000000000E+00 -0.00000000000E+00 -0.78165442023E+02  0.78165442023E+02  0.00000000000E+00 0. -1.
         23    2    1    2    0    0 -0.11867782043E+02  0.31832392865E+01 -0.48124283856E+02  0.94270686720E+02  0.80125142216E+02 0.  0.
         13    1    3    3    0    0 -0.39107561874E+02 -0.21122311340E+02 -0.28831451024E+02  0.52979297846E+02  0.00000000000E+00 0. -1.
        -13    1    3    3    0    0  0.27239779831E+02  0.24305550626E+02 -0.19292832832E+02  0.41291388875E+02  0.00000000000E+00 0.  1.
         22    1    1    2    0    0  0.11867782043E+02 -0.31832392865E+01 -0.15511154450E+01  0.12384798024E+02  0.00000000000E+00 0. -1.
<mgrwt>
<rscale>  0 0.50579686E+02</rscale>
<asrwt>0</asrwt>
<pdfrwt beam="1">  1        1 0.12025452E-01 0.81061802E+02</pdfrwt>
<pdfrwt beam="2">  1       -1 0.43830836E-02 0.81061802E+02</pdfrwt>
<totfact> 0.89079720E+04</totfact>
</mgrwt>
</event>
<event>
 6    1  0.1535419E-002  0.9227890E+02  0.7546771E-02  0.1406648E+00
          2   -1    0    0  501    0  0.00000000000E+00  0.00000000000E+00  0.17798209853E+03  0.17798209853E+03  0.00000000000E+00 0. -1.
         -2   -1    0    0    0  501 -0.00000000000E+00 -0.00000000000E+00 -0.16670665055E+02  0.16670665055E+02  0.00000000000E+00 0.  1.
         23    2    1    2    0    0  0.14099175947E+02  0.26730637896E+01  0.15106479731E+03  0.17701968146E+03  0.91156253800E+02 0.  0.
         13    1    3    3    0    0 -0.26297067301E+02  0.27412614047E+02  0.10188812897E+03  0.10873903615E+03  0.00000000000E+00 0. -1.
        -13    1    3    3    0    0  0.40396243248E+02 -0.24739550258E+02  0.49176668337E+02  0.68280645312E+02  0.00000000000E+00 0.  1.
         22    1    1    2    0    0 -0.14099175947E+02 -0.26730637896E+01  0.10246636165E+02  0.17633082122E+02  0.00000000000E+00 0.  1.
<mgrwt>
<rscale>  0 0.57948511E+02</rscale>
<asrwt>0</asrwt>
<pdfrwt beam="1">  1        2 0.27381860E-01 0.92278896E+02</pdfrwt>
<pdfrwt beam="2">  1       -2 0.25647178E-02 0.92278896E+02</pdfrwt>
<totfact> 0.89025859E+04</totfact>
</mgrwt>
</event>
<event>
 6    1  0.1535419E-002  0.1297965E+03  0.7546771E-02  0.1291479E+00
          2   -1    0    0  501    0  0.00000000000E+00  0.00000000000E+00  0.11811629939E+03  0.11811629939E+03  0.00000000000E+00 0. -1.
         -2   -1    0    0    0  501 -0.00000000000E+00 -0.00000000000E+00 -0.61462967710E+02  0.61462967710E+02  0.00000000000E+00 0.  1.
         23    2    1    2    0    0  0.17936381626E+02 -0.32405445560E+02  0.58767666062E+02  0.14248078873E+03  0.12439979861E+03 0.  0.
         13    1    3    3    0    0  0.33055067069E+02  0.41985500456E+02  0.18484317348E+02  0.56542812941E+02  0.00000000000E+00 0. -1.
        -13    1    3    3    0    0 -0.15118685443E+02 -0.74390946016E+02  0.40283348713E+02  0.85937975786E+02  0.00000000000E+00 0.  1.
         22    1    1    2    0    0 -0.17936381626E+02  0.32405445560E+02 -0.21143343799E+01  0.37098478374E+02  0.00000000000E+00 0.  1.
<mgrwt>
<rscale>  0 0.94865804E+02</rscale>
<asrwt>0</asrwt>
<pdfrwt beam="1">  1        2 0.18171738E-01 0.12979652E+03</pdfrwt>
<pdfrwt beam="2">  1       -2 0.94558412E-02 0.12979652E+03</pdfrwt>
<totfact> 0.20786065E+04</totfact>
</mgrwt>
</event>
<event>
 6    1  0.1535419E-002  0.9193581E+02  0.7546771E-02  0.1371100E+00
          2   -1    0    0  501    0  0.00000000000E+00  0.00000000000E+00  0.14038061655E+02  0.14038061655E+02  0.00000000000E+00 0. -1.
         -2   -1    0    0    0  501 -0.00000000000E+00 -0.00000000000E+00 -0.25901735961E+03  0.25901735961E+03  0.00000000000E+00 0.  1.
         23    2    1    2    0    0  0.23327080574E+02  0.10833594947E+02 -0.16304057125E+03  0.18717483905E+03  0.88264789314E+02 0.  0.
         13    1    3    3    0    0  0.52949969968E+02  0.79734415071E+01 -0.62396659714E+02  0.82222978738E+02  0.00000000000E+00 0. -1.
        -13    1    3    3    0    0 -0.29622889394E+02  0.28601534401E+01 -0.10064391154E+03  0.10495186032E+03  0.00000000000E+00 0.  1.
         22    1    1    2    0    0 -0.23327080574E+02 -0.10833594947E+02 -0.81938726704E+02  0.85880582214E+02  0.00000000000E+00 0.  1.
<mgrwt>
<rscale>  0 0.66862305E+02</rscale>
<asrwt>0</asrwt>
<pdfrwt beam="1">  1        2 0.21597018E-02 0.91935806E+02</pdfrwt>
<pdfrwt beam="2">  1       -2 0.39848824E-01 0.91935806E+02</pdfrwt>
<totfact> 0.25877665E+04</totfact>
</mgrwt>
</event>
<event>
 6    1  0.1535419E-002  0.9305781E+02  0.7546771E-02  0.1383600E+00
          2   -1    0    0  501    0  0.00000000000E+00  0.00000000000E+00  0.15809478398E+04  0.15809478398E+04  0.00000000000E+00 0. -1.
         -2   -1    0    0    0  501 -0.00000000000E+00 -0.00000000000E+00 -0.89098286578E+01  0.89098286578E+01  0.00000000000E+00 0.  1.
         23    2    1    2    0    0  0.16518005625E+02  0.11645061783E+02  0.15660032264E+04  0.15687657126E+04  0.90836688747E+02 0.  0.
         11    1    3    3    0    0 -0.15370559604E+02  0.37512340690E+02  0.40209232702E+03  0.40413075762E+03  0.00000000000E+00 0. -1.
        -11    1    3    3    0    0  0.31888565229E+02 -0.25867278907E+02  0.11639108994E+04  0.11646349550E+04  0.00000000000E+00 0.  1.
         22    1    1    2    0    0 -0.16518005625E+02 -0.11645061783E+02  0.60347847281E+01  0.21091955824E+02  0.00000000000E+00 0.  1.
<mgrwt>
<rscale>  0 0.63526839E+02</rscale>
<asrwt>0</asrwt>
<pdfrwt beam="1">  1        2 0.24322252E+00 0.93057810E+02</pdfrwt>
<pdfrwt beam="2">  1       -2 0.13707441E-02 0.93057810E+02</pdfrwt>
<totfact> 0.15766466E+04</totfact>
</mgrwt>
</event>
<event>
 6    1  0.1535419E-002  0.9278308E+02  0.7546771E-02  0.1421862E+00
         -2   -1    0    0    0  501 -0.00000000000E+00  0.00000000000E+00  0.14193998491E+02  0.14193998491E+02  0.00000000000E+00 0.  1.
          2   -1    0    0  501    0  0.00000000000E+00 -0.00000000000E+00 -0.19033967944E+03  0.19033967944E+03  0.00000000000E+00 0. -1.
         23    2    1    2    0    0 -0.46629739809E+01 -0.10128446104E+02 -0.15591536956E+03  0.18143401893E+03  0.92110650933E+02 0.  0.
         13    1    3    3    0    0 -0.28468630811E+02  0.91187320858E+01 -0.87920637849E+01  0.31159502575E+02  0.00000000000E+00 0.  1.
        -13    1    3    3    0    0  0.23805656830E+02 -0.19247178190E+02 -0.14712330577E+03  0.15027451636E+03  0.00000000000E+00 0. -1.
         22    1    1    2    0    0  0.46629739809E+01  0.10128446104E+02 -0.20230311394E+02  0.23099659000E+02  0.00000000000E+00 0. -1.
<mgrwt>
<rscale>  0 0.54628975E+02</rscale>
<asrwt>0</asrwt>
<pdfrwt beam="1">  1        2 0.29283024E-01 0.92783084E+02</pdfrwt>
<pdfrwt beam="2">  1       -2 0.21836924E-02 0.92783084E+02</pdfrwt>
<totfact> 0.10456070E+05</totfact>
</mgrwt>
</event>
<event>
 6    1  0.1535419E-002  0.9134856E+02  0.7546771E-02  0.1416290E+00
          2   -1    0    0  501    0  0.00000000000E+00  0.00000000000E+00  0.14313596756E+03  0.14313596756E+03  0.00000000000E+00 0. -1.
         -2   -1    0    0    0  501 -0.00000000000E+00 -0.00000000000E+00 -0.21103890361E+02  0.21103890361E+02  0.00000000000E+00 0.  1.
         23    2    1    2    0    0  0.54240821335E+01 -0.11517425346E+02  0.12079902293E+03  0.15144954219E+03  0.90457106598E+02 0.  0.
         11    1    3    3    0    0 -0.29386842120E+02 -0.36626350066E+02  0.76537171754E+02  0.89794290849E+02  0.00000000000E+00 0. -1.
        -11    1    3    3    0    0  0.34810924254E+02  0.25108924720E+02  0.44261851179E+02  0.61655251340E+02  0.00000000000E+00 0.  1.
         22    1    1    2    0    0 -0.54240821335E+01  0.11517425346E+02  0.12330542626E+01  0.12790315728E+02  0.00000000000E+00 0. -1.
<mgrwt>
<rscale>  0 0.55813557E+02</rscale>
<asrwt>0</asrwt>
<pdfrwt beam="1">  1        2 0.22020918E-01 0.91348563E+02</pdfrwt>
<pdfrwt beam="2">  1       -2 0.32467524E-02 0.91348563E+02</pdfrwt>
<totfact> 0.80063708E+04</totfact>
</mgrwt>
</event>
<event>
 6    1  0.1535419E-002  0.8743653E+02  0.7546771E-02  0.1409049E+00
         -4   -1    0    0    0  501 -0.00000000000E+00  0.00000000000E+00  0.10075218364E+03  0.10075218364E+03  0.00000000000E+00 0.  1.
          4   -1    0    0  501    0  0.00000000000E+00 -0.00000000000E+00 -0.48332175494E+02  0.48332175494E+02  0.00000000000E+00 0. -1.
         23    2    1    2    0    0 -0.12811476219E+02  0.99911580365E+01 -0.67765922809E+01  0.87698736518E+02  0.85913846510E+02 0.  0.
         11    1    3    3    0    0 -0.13379479992E+02  0.22482553087E+02  0.35223498278E+02  0.43876765025E+02  0.00000000000E+00 0.  1.
        -11    1    3    3    0    0  0.56800377228E+00 -0.12491395050E+02 -0.42000090559E+02  0.43821971493E+02  0.00000000000E+00 0. -1.
         22    1    1    2    0    0  0.12811476219E+02 -0.99911580365E+01  0.59196600426E+02  0.61385622615E+02  0.00000000000E+00 0.  1.
<mgrwt>
<rscale>  0 0.57406538E+02</rscale>
<asrwt>0</asrwt>
<pdfrwt beam="1">  1        4 0.74357194E-02 0.87436527E+02</pdfrwt>
<pdfrwt beam="2">  1       -4 0.15500336E-01 0.87436527E+02</pdfrwt>
<totfact> 0.64127359E+03</totfact>
</mgrwt>
</event>
<event>
 6    1  0.1535419E-002  0.9084548E+02  0.7546771E-02  0.1411022E+00
          2   -1    0    0  501    0  0.00000000000E+00  0.00000000000E+00  0.98449803474E+02  0.98449803474E+02  0.00000000000E+00 0. -1.
         -2   -1    0    0    0  501 -0.00000000000E+00 -0.00000000000E+00 -0.37521376885E+02  0.37521376885E+02  0.00000000000E+00 0.  1.
         23    2    1    2    0    0 -0.12486617761E+02 -0.64331930444E+01  0.73704170353E+02  0.11698378389E+03  0.89752990873E+02 0.  0.
         11    1    3    3    0    0  0.95818830947E+01  0.26685522632E+02  0.71737330617E+02  0.77137372303E+02  0.00000000000E+00 0.  1.
        -11    1    3    3    0    0 -0.22068500856E+02 -0.33118715676E+02  0.19668397359E+01  0.39846411590E+02  0.00000000000E+00 0. -1.
         22    1    1    2    0    0  0.12486617761E+02  0.64331930444E+01 -0.12775743764E+02  0.18987396467E+02  0.00000000000E+00 0.  1.
<mgrwt>
<rscale>  0 0.56966405E+02</rscale>
<asrwt>0</asrwt>
<pdfrwt beam="1">  1        2 0.15146124E-01 0.90845479E+02</pdfrwt>
<pdfrwt beam="2">  1       -2 0.57725196E-02 0.90845479E+02</pdfrwt>
<totfact> 0.52207544E+04</totfact>
</mgrwt>
</event>
<event>
 6    1  0.1535419E-002  0.9018034E+02  0.7546771E-02  0.1388845E+00
         -1   -1    0    0    0  501 -0.00000000000E+00  0.00000000000E+00  0.44360184213E+02  0.44360184213E+02  0.00000000000E+00 0.  1.
          1   -1    0    0  501    0  0.00000000000E+00 -0.00000000000E+00 -0.69539103145E+02  0.69539103145E+02  0.00000000000E+00 0. -1.
         23    2    1    2    0    0  0.51697219040E+01  0.19736486857E+02 -0.24656360205E+02  0.93490269605E+02  0.87842128129E+02 0.  0.
         11    1    3    3    0    0  0.39973262549E+02  0.32169664073E+02 -0.47951734348E+01  0.51533898491E+02  0.00000000000E+00 0. -1.
        -11    1    3    3    0    0 -0.34803540645E+02 -0.12433177217E+02 -0.19861186770E+02  0.41956371114E+02  0.00000000000E+00 0.  1.
         22    1    1    2    0    0 -0.51697219040E+01 -0.19736486857E+02 -0.52255872748E+00  0.20409017753E+02  0.00000000000E+00 0. -1.
<mgrwt>
<rscale>  0 0.62194766E+02</rscale>
<asrwt>0</asrwt>
<pdfrwt beam="1">  1        1 0.10698323E-01 0.90180344E+02</pdfrwt>
<pdfrwt beam="2">  1       -1 0.68246438E-02 0.90180344E+02</pdfrwt>
<totfact> 0.55071802E+04</totfact>
</mgrwt>
</event>
<event>
 6    1  0.1535419E-002  0.1026485E+03  0.7546771E-02  0.1375041E+00
         -2   -1    0    0    0  501 -0.00000000000E+00  0.00000000000E+00  0.51107862455E+01  0.51107862455E+01  0.00000000000E+00 0.  1.
          2   -1    0    0  501    0  0.00000000000E+00 -0.00000000000E+00 -0.70527272110E+03  0.70527272110E+03  0.00000000000E+00 0. -1.
         23    2    1    2    0    0  0.17313723910E+02 -0.31398455293E+00 -0.60932909902E+03  0.61791476837E+03  0.10117730198E+03 0.  0.
         11    1    3    3    0    0 -0.53370684967E+01  0.36378409061E+02 -0.48362065168E+03  0.48501629630E+03  0.00000000000E+00 0. -1.
        -11    1    3    3    0    0  0.22650792407E+02 -0.36692393614E+02 -0.12570844734E+03  0.13289847207E+03  0.00000000000E+00 0.  1.
         22    1    1    2    0    0 -0.17313723910E+02  0.31398455293E+00 -0.90832835826E+02  0.92468738967E+02  0.00000000000E+00 0. -1.
<mgrwt>
<rscale>  0 0.65785451E+02</rscale>
<asrwt>0</asrwt>
<pdfrwt beam="1">  1        2 0.10850348E+00 0.10264848E+03</pdfrwt>
<pdfrwt beam="2">  1       -2 0.78627491E-03 0.10264848E+03</pdfrwt>
<totfact> 0.11141398E+05</totfact>
</mgrwt>
</event>
<event>
 6    1  0.1535419E-002  0.9331096E+02  0.7546771E-02  0.1380805E+00
         -2   -1    0    0    0  501 -0.00000000000E+00  0.00000000000E+00  0.34677725341E+02  0.34677725341E+02  0.00000000000E+00 0.  1.
          2   -1    0    0  501    0  0.00000000000E+00 -0.00000000000E+00 -0.10835651909E+03  0.10835651909E+03  0.00000000000E+00 0. -1.
         23    2    1    2    0    0 -0.65140700633E+01 -0.19941254744E+02 -0.77997130579E+02  0.12161614968E+03  0.90922212555E+02 0.  0.
         11    1    3    3    0    0  0.46050039429E+00 -0.35121700678E+02  0.62951009775E+01  0.35684369343E+02  0.00000000000E+00 0.  1.
        -11    1    3    3    0    0 -0.69745704576E+01  0.15180445934E+02 -0.84292231556E+02  0.85931780341E+02  0.00000000000E+00 0. -1.
         22    1    1    2    0    0  0.65140700633E+01  0.19941254744E+02  0.43183368306E+01  0.21418094746E+02  0.00000000000E+00 0. -1.
<mgrwt>
<rscale>  0 0.64252759E+02</rscale>
<asrwt>0</asrwt>
<pdfrwt beam="1">  1        2 0.16670234E-01 0.93310961E+02</pdfrwt>
<pdfrwt beam="2">  1       -2 0.53350347E-02 0.93310961E+02</pdfrwt>
<totfact> 0.52798047E+04</totfact>
</mgrwt>
</event>
<event>
 6    1  0.1535419E-002  0.9907131E+02  0.7546771E-02  0.1331007E+00
          3   -1    0    0  501    0  0.00000000000E+00  0.00000000000E+00  0.10784424324E+04  0.10784424324E+04  0.00000000000E+00 0. -1.
         -3   -1    0    0    0  501 -0.00000000000E+00 -0.00000000000E+00 -0.17805894354E+02  0.17805894354E+02  0.00000000000E+00 0.  1.
         23    2    1    2    0    0 -0.26087233763E+02 -0.31237341929E+02  0.10493473234E+04  0.10540137241E+04  0.90326132031E+02 0.  0.
         11    1    3    3    0    0  0.79122134168E+01 -0.56283384928E+02  0.60765603964E+03  0.61030835244E+03  0.00000000000E+00 0. -1.
        -11    1    3    3    0    0 -0.33999447179E+02  0.25046042999E+02  0.44169128379E+03  0.44370537167E+03  0.00000000000E+00 0.  1.
         22    1    1    2    0    0  0.26087233763E+02  0.31237341929E+02  0.11289214654E+02  0.42234602682E+02  0.00000000000E+00 0.  1.
<mgrwt>
<rscale>  0 0.79314725E+02</rscale>
<asrwt>0</asrwt>
<pdfrwt beam="1">  1        3 0.16591417E+00 0.99071315E+02</pdfrwt>
<pdfrwt beam="2">  1       -3 0.27393692E-02 0.99071315E+02</pdfrwt>
<totfact> 0.34837116E+02</totfact>
</mgrwt>
</event>
<event>
 6    1  0.1535419E-002  0.9263989E+02  0.7546771E-02  0.1402291E+00
         -2   -1    0    0    0  501 -0.00000000000E+00  0.00000000000E+00  0.74844490289E+01  0.74844490289E+01  0.00000000000E+00 0.  1.
          2   -1    0    0  501    0  0.00000000000E+00 -0.00000000000E+00 -0.81052229591E+03  0.81052229591E+03  0.00000000000E+00 0. -1.
         23    2    1    2    0    0 -0.15125438123E+02 -0.13945442388E+01 -0.79581218207E+03  0.80118610690E+03  0.91386132025E+02 0.  0.
         13    1    3    3    0    0 -0.49967033969E+02 -0.16522846920E+02 -0.54173283358E+03  0.54428317256E+03  0.00000000000E+00 0. -1.
        -13    1    3    3    0    0  0.34841595846E+02  0.15128302681E+02 -0.25407934849E+03  0.25690293434E+03  0.00000000000E+00 0.  1.
         22    1    1    2    0    0  0.15125438123E+02  0.13945442388E+01 -0.72256648100E+01  0.16820638038E+02  0.00000000000E+00 0.  1.
<mgrwt>
<rscale>  0 0.58950165E+02</rscale>
<asrwt>0</asrwt>
<pdfrwt beam="1">  1        2 0.12469571E+00 0.92639888E+02</pdfrwt>
<pdfrwt beam="2">  1       -2 0.11514540E-02 0.92639888E+02</pdfrwt>
<totfact> 0.54197913E+04</totfact>
</mgrwt>
</event>
<event>
 6    1  0.1535419E-002  0.1026388E+03  0.7546771E-02  0.1313657E+00
          1   -1    0    0  501    0  0.00000000000E+00  0.00000000000E+00  0.38893296861E+03  0.38893296861E+03  0.00000000000E+00 0. -1.
         -1   -1    0    0    0  501 -0.00000000000E+00 -0.00000000000E+00 -0.15159149604E+02  0.15159149604E+02  0.00000000000E+00 0.  1.
         23    2    1    2    0    0 -0.48861005188E+02  0.98657224278E+01  0.27317763215E+03  0.29182314157E+03  0.89721775181E+02 0.  0.
         11    1    3    3    0    0 -0.55798013801E+02 -0.28843975765E+02  0.15368660481E+03  0.16602700317E+03  0.00000000000E+00 0. -1.
        -11    1    3    3    0    0  0.69370086136E+01  0.38709698193E+02  0.11949102733E+03  0.12579613840E+03  0.00000000000E+00 0.  1.
         22    1    1    2    0    0  0.48861005188E+02 -0.98657224278E+01  0.10059618686E+03  0.11226897665E+03  0.00000000000E+00 0. -1.
<mgrwt>
<rscale>  0 0.85682799E+02</rscale>
<asrwt>0</asrwt>
<pdfrwt beam="1">  1        1 0.59835834E-01 0.10263882E+03</pdfrwt>
<pdfrwt beam="2">  1       -1 0.23321771E-02 0.10263882E+03</pdfrwt>
<totfact> 0.31019431E+04</totfact>
</mgrwt>
</event>
<event>
 6    1  0.1535419E-002  0.9190892E+02  0.7546771E-02  0.1425548E+00
          2   -1    0    0  501    0  0.00000000000E+00  0.00000000000E+00  0.48169444186E+03  0.48169444186E+03  0.00000000000E+00 0. -1.
         -2   -1    0    0    0  501 -0.00000000000E+00 -0.00000000000E+00 -0.11253423177E+02  0.11253423177E+02  0.00000000000E+00 0.  1.
         23    2    1    2    0    0  0.55831408290E+01  0.92944508230E+01  0.47296763591E+03  0.48181493764E+03  0.91267142188E+02 0.  0.
         11    1    3    3    0    0  0.42762210220E+01 -0.59852428484E+01 -0.11535561040E+01  0.74457967920E+01  0.00000000000E+00 0.  1.
        -11    1    3    3    0    0  0.13069198070E+01  0.15279693671E+02  0.47412119201E+03  0.47436914085E+03  0.00000000000E+00 0. -1.
         22    1    1    2    0    0 -0.55831408290E+01 -0.92944508230E+01 -0.25266172286E+01  0.11132927389E+02  0.00000000000E+00 0.  1.
<mgrwt>
<rscale>  0 0.53864161E+02</rscale>
<asrwt>0</asrwt>
<pdfrwt beam="1">  1        2 0.74106821E-01 0.91908920E+02</pdfrwt>
<pdfrwt beam="2">  1       -2 0.17312962E-02 0.91908920E+02</pdfrwt>
<totfact> 0.54731837E+04</totfact>
</mgrwt>
</event>
<event>
 6    1  0.1535419E-002  0.9639407E+02  0.7546771E-02  0.1416174E+00
          2   -1    0    0  501    0  0.00000000000E+00  0.00000000000E+00  0.41982233009E+03  0.41982233009E+03  0.00000000000E+00 0. -1.
         -2   -1    0    0    0  501 -0.00000000000E+00 -0.00000000000E+00 -0.89881204524E+01  0.89881204524E+01  0.00000000000E+00 0.  1.
         23    2    1    2    0    0  0.73415584678E+01  0.79943903556E+01  0.40534190745E+03  0.41664598832E+03  0.95781046603E+02 0.  0.
         11    1    3    3    0    0  0.13244198387E+02  0.15446472799E+02  0.12906019628E+02  0.24094971581E+02  0.00000000000E+00 0.  1.
        -11    1    3    3    0    0 -0.59026399194E+01 -0.74520824431E+01  0.39243588782E+03  0.39255101674E+03  0.00000000000E+00 0. -1.
         22    1    1    2    0    0 -0.73415584678E+01 -0.79943903556E+01  0.54923021874E+01  0.12164462225E+02  0.00000000000E+00 0. -1.
<mgrwt>
<rscale>  0 0.55838655E+02</rscale>
<asrwt>0</asrwt>
<pdfrwt beam="1">  1        2 0.64588036E-01 0.96394075E+02</pdfrwt>
<pdfrwt beam="2">  1       -2 0.13827881E-02 0.96394075E+02</pdfrwt>
<totfact> 0.87937787E+04</totfact>
</mgrwt>
</event>
<event>
 6    1  0.1535419E-002  0.9322554E+02  0.7546771E-02  0.1421388E+00
          2   -1    0    0  501    0  0.00000000000E+00  0.00000000000E+00  0.60632623718E+03  0.60632623718E+03  0.00000000000E+00 0. -1.
         -2   -1    0    0    0  501 -0.00000000000E+00 -0.00000000000E+00 -0.45876175323E+01  0.45876175323E+01  0.00000000000E+00 0.  1.
         23    2    1    2    0    0 -0.94093543472E+01 -0.58363882701E+01  0.56118922947E+03  0.56887991104E+03  0.92565666038E+02 0.  0.
         13    1    3    3    0    0  0.39311514405E+02  0.10217723347E+02  0.20169553563E+03  0.20574471106E+03  0.00000000000E+00 0. -1.
        -13    1    3    3    0    0 -0.48720868753E+02 -0.16054111617E+02  0.35949369384E+03  0.36313519998E+03  0.00000000000E+00 0.  1.
         22    1    1    2    0    0  0.94093543472E+01  0.58363882701E+01  0.40549390175E+02  0.42033943675E+02  0.00000000000E+00 0. -1.
<mgrwt>
<rscale>  0 0.54728334E+02</rscale>
<asrwt>0</asrwt>
<pdfrwt beam="1">  1        2 0.93280896E-01 0.93225543E+02</pdfrwt>
<pdfrwt beam="2">  1       -2 0.70578780E-03 0.93225543E+02</pdfrwt>
<totfact> 0.15224115E+05</totfact>
</mgrwt>
</event>
<event>
 6    1  0.1535419E-002  0.1095040E+03  0.7546771E-02  0.1296481E+00
         -2   -1    0    0    0  501 -0.00000000000E+00  0.00000000000E+00  0.41598239386E+02  0.41598239386E+02  0.00000000000E+00 0.  1.
          2   -1    0    0  501    0  0.00000000000E+00 -0.00000000000E+00 -0.20222428952E+03  0.20222428952E+03  0.00000000000E+00 0. -1.
         23    2    1    2    0    0 -0.11320438967E+02 -0.55044835874E+02 -0.15143537248E+03  0.18687909337E+03  0.93984239140E+02 0.  0.
         11    1    3    3    0    0 -0.72555589172E+01 -0.81437377568E+02 -0.10231816702E+03  0.13097212262E+03  0.00000000000E+00 0. -1.
        -11    1    3    3    0    0 -0.40648800498E+01  0.26392541694E+02 -0.49117205461E+02  0.55906970757E+02  0.00000000000E+00 0.  1.
         22    1    1    2    0    0  0.11320438967E+02  0.55044835874E+02 -0.91906776558E+01  0.56943435535E+02  0.00000000000E+00 0.  1.
<mgrwt>
<rscale>  0 0.92683079E+02</rscale>
<asrwt>0</asrwt>
<pdfrwt beam="1">  1        2 0.31111429E-01 0.10950399E+03</pdfrwt>
<pdfrwt beam="2">  1       -2 0.63997291E-02 0.10950399E+03</pdfrwt>
<totfact> 0.20546376E+04</totfact>
</mgrwt>
</event>
<event>
 6    1  0.1535419E-002  0.9262674E+02  0.7546771E-02  0.1420148E+00
         -2   -1    0    0    0  501 -0.00000000000E+00  0.00000000000E+00  0.38159709074E+02  0.38159709074E+02  0.00000000000E+00 0. -1.
          2   -1    0    0  501    0  0.00000000000E+00 -0.00000000000E+00 -0.84046209354E+02  0.84046209354E+02  0.00000000000E+00 0.  1.
         23    2    1    2    0    0  0.50702010284E+00 -0.11494558959E+02 -0.54825174033E+02  0.10763602332E+03  0.91909367602E+02 0.  0.
         13    1    3    3    0    0 -0.33336555202E+01 -0.51914921792E+02 -0.30401273356E+02  0.60253711798E+02  0.00000000000E+00 0.  1.
        -13    1    3    3    0    0  0.38406756231E+01  0.40420362832E+02 -0.24423900677E+02  0.47382311521E+02  0.00000000000E+00 0. -1.
         22    1    1    2    0    0 -0.50702010284E+00  0.11494558959E+02  0.89386737526E+01  0.14569895110E+02  0.00000000000E+00 0.  1.
<mgrwt>
<rscale>  0 0.54989643E+02</rscale>
<asrwt>0</asrwt>
<pdfrwt beam="1">  1        2 0.12930186E-01 0.92626745E+02</pdfrwt>
<pdfrwt beam="2">  1       -2 0.58707245E-02 0.92626745E+02</pdfrwt>
<totfact> 0.61383489E+04</totfact>
</mgrwt>
</event>
<event>
 6    1  0.1535419E-002  0.9264253E+02  0.7546771E-02  0.1393269E+00
          2   -1    0    0  501    0  0.00000000000E+00  0.00000000000E+00  0.84438489495E+02  0.84438489495E+02  0.00000000000E+00 0. -1.
         -2   -1    0    0    0  501 -0.00000000000E+00 -0.00000000000E+00 -0.36250155059E+02  0.36250155059E+02  0.00000000000E+00 0.  1.
         23    2    1    2    0    0 -0.39453508737E+01 -0.17079243340E+02  0.44499499656E+02  0.10277569257E+03  0.90969067093E+02 0.  0.
         13    1    3    3    0    0 -0.35175766628E+02 -0.15061395726E+02  0.57350890774E+02  0.68944215650E+02  0.00000000000E+00 0. -1.
        -13    1    3    3    0    0  0.31230415754E+02 -0.20178476142E+01 -0.12851391118E+02  0.33831476924E+02  0.00000000000E+00 0.  1.
         22    1    1    2    0    0  0.39453508737E+01  0.17079243340E+02  0.36888347803E+01  0.17912951980E+02  0.00000000000E+00 0.  1.
<mgrwt>
<rscale>  0 0.61100838E+02</rscale>
<asrwt>0</asrwt>
<pdfrwt beam="1">  1        2 0.12990537E-01 0.92642525E+02</pdfrwt>
<pdfrwt beam="2">  1       -2 0.55769470E-02 0.92642525E+02</pdfrwt>
<totfact> 0.65925915E+04</totfact>
</mgrwt>
</event>
<event>
 6    1  0.1535419E-002  0.9554774E+02  0.7546771E-02  0.1358344E+00
          2   -1    0    0  501    0  0.00000000000E+00  0.00000000000E+00  0.21085023791E+03  0.21085023791E+03  0.00000000000E+00 0. -1.
         -2   -1    0    0    0  501 -0.00000000000E+00 -0.00000000000E+00 -0.18201627740E+02  0.18201627740E+02  0.00000000000E+00 0.  1.
         23    2    1    2    0    0  0.26417068622E+02  0.10282135347E+02  0.14942629127E+03  0.17736286611E+03  0.91245744735E+02 0.  0.
         13    1    3    3    0    0 -0.22503412041E+01  0.46522617404E+02  0.96163649597E+02  0.10684973313E+03  0.00000000000E+00 0. -1.
        -13    1    3    3    0    0  0.28667409826E+02 -0.36240482057E+02  0.53262641672E+02  0.70513132988E+02  0.00000000000E+00 0.  1.
         22    1    1    2    0    0 -0.26417068622E+02 -0.10282135347E+02  0.43222318905E+02  0.51688999540E+02  0.00000000000E+00 0.  1.
<mgrwt>
<rscale>  0 0.70517060E+02</rscale>
<asrwt>0</asrwt>
<pdfrwt beam="1">  1        2 0.32438496E-01 0.95547735E+02</pdfrwt>
<pdfrwt beam="2">  1       -2 0.28002506E-02 0.95547735E+02</pdfrwt>
<totfact> 0.65692836E+04</totfact>
</mgrwt>
</event>
<event>
 6    1  0.1535419E-002  0.1057838E+03  0.7546771E-02  0.1306544E+00
         -2   -1    0    0    0  501 -0.00000000000E+00  0.00000000000E+00  0.31033098910E+02  0.31033098910E+02  0.00000000000E+00 0.  1.
          2   -1    0    0  501    0  0.00000000000E+00 -0.00000000000E+00 -0.40439942592E+03  0.40439942592E+03  0.00000000000E+00 0. -1.
         23    2    1    2    0    0  0.51208028561E+02 -0.78397006322E+01 -0.36851945719E+03  0.38340161823E+03  0.92230620943E+02 0.  0.
         11    1    3    3    0    0  0.12927922316E+02  0.34904936715E+02 -0.68649919245E+02  0.78091594906E+02  0.00000000000E+00 0.  1.
        -11    1    3    3    0    0  0.38280106245E+02 -0.42744637347E+02 -0.29986953794E+03  0.30531002332E+03  0.00000000000E+00 0. -1.
         22    1    1    2    0    0 -0.51208028561E+02  0.78397006322E+01 -0.48468698275E+01  0.52030906606E+02  0.00000000000E+00 0.  1.
<mgrwt>
<rscale>  0 0.88492519E+02</rscale>
<asrwt>0</asrwt>
<pdfrwt beam="1">  1        2 0.62215296E-01 0.10578379E+03</pdfrwt>
<pdfrwt beam="2">  1       -2 0.47743229E-02 0.10578379E+03</pdfrwt>
<totfact> 0.15279254E+04</totfact>
</mgrwt>
</event>
<event>
 6    1  0.1535419E-002  0.9212762E+02  0.7546771E-02  0.1405683E+00
          2   -1    0    0  501    0  0.00000000000E+00  0.00000000000E+00  0.14947475958E+04  0.14947475958E+04  0.00000000000E+00 0. -1.
         -2   -1    0    0    0  501 -0.00000000000E+00 -0.00000000000E+00 -0.33380118602E+01  0.33380118602E+01  0.00000000000E+00 0.  1.
         23    2    1    2    0    0 -0.14635235813E+02  0.41839683109E+00  0.14649607757E+04  0.14678547519E+04  0.90956765205E+02 0.  0.
         13    1    3    3    0    0 -0.21987791294E+02 -0.39520142305E+02  0.10329295962E+04  0.10339191725E+04  0.00000000000E+00 0. -1.
        -13    1    3    3    0    0  0.73525554815E+01  0.39938539136E+02  0.43203117947E+03  0.43393557933E+03  0.00000000000E+00 0.  1.
         22    1    1    2    0    0  0.14635235813E+02 -0.41839683109E+00  0.26448808264E+02  0.30230855790E+02  0.00000000000E+00 0.  1.
<mgrwt>
<rscale>  0 0.58168340E+02</rscale>
<asrwt>0</asrwt>
<pdfrwt beam="1">  1        2 0.22996063E+00 0.92127620E+02</pdfrwt>
<pdfrwt beam="2">  1       -2 0.51354148E-03 0.92127620E+02</pdfrwt>
<totfact> 0.69754624E+04</totfact>
</mgrwt>
</event>
<event>
 6    1  0.1535419E-002  0.9611977E+02  0.7546771E-02  0.1353529E+00
          4   -1    0    0  501    0  0.00000000000E+00  0.00000000000E+00  0.10935090982E+03  0.10935090982E+03  0.00000000000E+00 0. -1.
         -4   -1    0    0    0  501 -0.00000000000E+00 -0.00000000000E+00 -0.38830432550E+02  0.38830432550E+02  0.00000000000E+00 0.  1.
         23    2    1    2    0    0  0.27920723417E+02 -0.11526195294E+02  0.68257920724E+02  0.11789043390E+03  0.91250154458E+02 0.  0.
         11    1    3    3    0    0  0.46063646312E+02 -0.22588390544E+02  0.54587038505E+01  0.51593530086E+02  0.00000000000E+00 0.  1.
        -11    1    3    3    0    0 -0.18142922895E+02  0.11062195250E+02  0.62799216873E+02  0.66296903810E+02  0.00000000000E+00 0. -1.
         22    1    1    2    0    0 -0.27920723417E+02  0.11526195294E+02  0.22625565473E+01  0.30290908475E+02  0.00000000000E+00 0. -1.
<mgrwt>
<rscale>  0 0.71967083E+02</rscale>
<asrwt>0</asrwt>
<pdfrwt beam="1">  1        4 0.16823217E-01 0.96119772E+02</pdfrwt>
<pdfrwt beam="2">  1       -4 0.59739127E-02 0.96119772E+02</pdfrwt>
<totfact> 0.81510808E+03</totfact>
</mgrwt>
</event>
<event>
 6    1  0.1535419E-002  0.9372273E+02  0.7546771E-02  0.1375894E+00
          4   -1    0    0  501    0  0.00000000000E+00  0.00000000000E+00  0.18378839819E+02  0.18378839819E+02  0.00000000000E+00 0. -1.
         -4   -1    0    0    0  501 -0.00000000000E+00 -0.00000000000E+00 -0.18596269453E+03  0.18596269453E+03  0.00000000000E+00 0.  1.
         23    2    1    2    0    0  0.22387864905E+02 -0.14323344777E+01 -0.12528349514E+03  0.15646055172E+03  0.90998252811E+02 0.  0.
         11    1    3    3    0    0 -0.23692927998E+02  0.23825237661E+02 -0.81171745283E+02  0.87851289228E+02  0.00000000000E+00 0.  1.
        -11    1    3    3    0    0  0.46080792904E+02 -0.25257572139E+02 -0.44111749856E+02  0.68609262497E+02  0.00000000000E+00 0. -1.
         22    1    1    2    0    0 -0.22387864905E+02  0.14323344777E+01 -0.42300359570E+02  0.47880982622E+02  0.00000000000E+00 0. -1.
<mgrwt>
<rscale>  0 0.65555422E+02</rscale>
<asrwt>0</asrwt>
<pdfrwt beam="1">  1        4 0.28275139E-02 0.93722730E+02</pdfrwt>
<pdfrwt beam="2">  1       -4 0.28609645E-01 0.93722730E+02</pdfrwt>
<totfact> 0.10111665E+04</totfact>
</mgrwt>
</event>
<event>
 6    1  0.1535419E-002  0.1081868E+03  0.7546771E-02  0.1291690E+00
          2   -1    0    0  501    0  0.00000000000E+00  0.00000000000E+00  0.31378743488E+03  0.31378743488E+03  0.00000000000E+00 0.  1.
         -2   -1    0    0    0  501 -0.00000000000E+00 -0.00000000000E+00 -0.23982141666E+02  0.23982141666E+02  0.00000000000E+00 0. -1.
         23    2    1    2    0    0 -0.54293576698E+02  0.33333426527E+02  0.20382896782E+03  0.23076098660E+03  0.87438406995E+02 0.  0.
         11    1    3    3    0    0 -0.28958098947E+02  0.79121390465E+01  0.18990677452E+03  0.19226480814E+03  0.00000000000E+00 0.  1.
        -11    1    3    3    0    0 -0.25335477751E+02  0.25421287480E+02  0.13922193305E+02  0.38496178465E+02  0.00000000000E+00 0. -1.
         22    1    1    2    0    0  0.54293576698E+02 -0.33333426527E+02  0.85976325388E+02  0.10700858994E+03  0.00000000000E+00 0.  1.
<mgrwt>
<rscale>  0 0.94772404E+02</rscale>
<asrwt>0</asrwt>
<pdfrwt beam="1">  1        2 0.48274987E-01 0.10818681E+03</pdfrwt>
<pdfrwt beam="2">  1       -2 0.36895605E-02 0.10818681E+03</pdfrwt>
<totfact> 0.29303901E+04</totfact>
</mgrwt>
</event>
<event>
 6    1  0.1535419E-002  0.9262588E+02  0.7546771E-02  0.1408550E+00
         -2   -1    0    0    0  501 -0.00000000000E+00  0.00000000000E+00  0.17417092022E+03  0.17417092022E+03  0.00000000000E+00 0.  1.
          2   -1    0    0  501    0  0.00000000000E+00 -0.00000000000E+00 -0.18071717143E+02  0.18071717143E+02  0.00000000000E+00 0. -1.
         23    2    1    2    0    0  0.11710697780E+02  0.72499862342E+01  0.10834515416E+03  0.14254201432E+03  0.91596128050E+02 0.  0.
         13    1    3    3    0    0 -0.37754183966E+02 -0.11473717221E+02  0.40894023011E+02  0.56827332436E+02  0.00000000000E+00 0. -1.
        -13    1    3    3    0    0  0.49464881746E+02  0.18723703455E+02  0.67451131154E+02  0.85714681888E+02  0.00000000000E+00 0.  1.
         22    1    1    2    0    0 -0.11710697780E+02 -0.72499862342E+01  0.47754048907E+02  0.49700623033E+02  0.00000000000E+00 0. -1.
<mgrwt>
<rscale>  0 0.57518620E+02</rscale>
<asrwt>0</asrwt>
<pdfrwt beam="1">  1        2 0.27802643E-02 0.92625879E+02</pdfrwt>
<pdfrwt beam="2">  1       -2 0.26795525E-01 0.92625879E+02</pdfrwt>
<totfact> 0.37882376E+04</totfact>
</mgrwt>
</event>
<event>
 6    1  0.1535419E-002  0.9255667E+02  0.7546771E-02  0.1406692E+00
         -2   -1    0    0    0  501 -0.00000000000E+00  0.00000000000E+00  0.79451057228E+02  0.79451057228E+02  0.00000000000E+00 0.  1.
          2   -1    0    0  501    0  0.00000000000E+00 -0.00000000000E+00 -0.38366732161E+02  0.38366732161E+02  0.00000000000E+00 0. -1.
         23    2    1    2    0    0 -0.44951266623E+01  0.13482040326E+02  0.24043529923E+02  0.95628596655E+02  0.91459092451E+02 0.  0.
         11    1    3    3    0    0 -0.60631250785E+01 -0.19490528979E+02  0.49759993452E+02  0.53783818700E+02  0.00000000000E+00 0.  1.
        -11    1    3    3    0    0  0.15679984162E+01  0.32972569306E+02 -0.25716463529E+02  0.41844777955E+02  0.00000000000E+00 0. -1.
         22    1    1    2    0    0  0.44951266623E+01 -0.13482040326E+02  0.17040795143E+02  0.22189192734E+02  0.00000000000E+00 0.  1.
<mgrwt>
<rscale>  0 0.57938477E+02</rscale>
<asrwt>0</asrwt>
<pdfrwt beam="1">  1        2 0.59025742E-02 0.92556670E+02</pdfrwt>
<pdfrwt beam="2">  1       -2 0.12223240E-01 0.92556670E+02</pdfrwt>
<totfact> 0.52085409E+04</totfact>
</mgrwt>
</event>
<event>
 6    1  0.1535419E-002  0.1021755E+03  0.7546771E-02  0.1318820E+00
          2   -1    0    0  501    0  0.00000000000E+00  0.00000000000E+00  0.13032830216E+03  0.13032830216E+03  0.00000000000E+00 0. -1.
         -2   -1    0    0    0  501 -0.00000000000E+00 -0.00000000000E+00 -0.46811390324E+02  0.46811390324E+02  0.00000000000E+00 0.  1.
         23    2    1    2    0    0  0.32144384464E+02 -0.32975346880E+02  0.82090181940E+02  0.13106724397E+03  0.91209591139E+02 0.  0.
         11    1    3    3    0    0 -0.11339001774E+02 -0.36738858287E+02  0.78332370133E+02  0.87259823974E+02  0.00000000000E+00 0. -1.
        -11    1    3    3    0    0  0.43483386238E+02  0.37635114075E+01  0.37578118079E+01  0.43807419993E+02  0.00000000000E+00 0.  1.
         22    1    1    2    0    0 -0.32144384464E+02  0.32975346880E+02  0.14267298986E+01  0.46072448520E+02  0.00000000000E+00 0. -1.
<mgrwt>
<rscale>  0 0.83717873E+02</rscale>
<asrwt>0</asrwt>
<pdfrwt beam="1">  1        2 0.20050508E-01 0.10217546E+03</pdfrwt>
<pdfrwt beam="2">  1       -2 0.72017524E-02 0.10217546E+03</pdfrwt>
<totfact> 0.27576612E+04</totfact>
</mgrwt>
</event>
<event>
 6    1  0.1535419E-002  0.9448668E+02  0.7546771E-02  0.1383417E+00
         -4   -1    0    0    0  501 -0.00000000000E+00  0.00000000000E+00  0.52445296400E+02  0.52445296400E+02  0.00000000000E+00 0.  1.
          4   -1    0    0  501    0  0.00000000000E+00 -0.00000000000E+00 -0.12208257407E+03  0.12208257407E+03  0.00000000000E+00 0. -1.
         23    2    1    2    0    0  0.16964232296E+02 -0.93379425257E+01 -0.10059591503E+03  0.13801185241E+03  0.92481084215E+02 0.  0.
         11    1    3    3    0    0  0.24416078111E+02 -0.91007944096E+01 -0.11706704577E+03  0.11993190791E+03  0.00000000000E+00 0. -1.
        -11    1    3    3    0    0 -0.74518458159E+01 -0.23714811611E+00  0.16471130742E+02  0.18079944502E+02  0.00000000000E+00 0.  1.
         22    1    1    2    0    0 -0.16964232296E+02  0.93379425257E+01  0.30958637356E+02  0.36516018060E+02  0.00000000000E+00 0.  1.
<mgrwt>
<rscale>  0 0.63573966E+02</rscale>
<asrwt>0</asrwt>
<pdfrwt beam="1">  1        4 0.18781934E-01 0.94486683E+02</pdfrwt>
<pdfrwt beam="2">  1       -4 0.80685072E-02 0.94486683E+02</pdfrwt>
<totfact> 0.40956237E+03</totfact>
</mgrwt>
</event>
<event>
 6    1  0.1535419E-002  0.9742098E+02  0.7546771E-02  0.1349393E+00
          4   -1    0    0  501    0  0.00000000000E+00  0.00000000000E+00  0.97392079989E+02  0.97392079989E+02  0.00000000000E+00 0. -1.
         -4   -1    0    0    0  501 -0.00000000000E+00 -0.00000000000E+00 -0.45465363597E+02  0.45465363597E+02  0.00000000000E+00 0.  1.
         23    2    1    2    0    0  0.71581182285E+01 -0.30294496208E+02  0.54488234718E+02  0.11162354320E+03  0.92313880413E+02 0.  0.
         13    1    3    3    0    0 -0.30855146914E+02 -0.29801118712E+02  0.59422352113E+02  0.73288216639E+02  0.00000000000E+00 0. -1.
        -13    1    3    3    0    0  0.38013265142E+02 -0.49337749624E+00 -0.49341173944E+01  0.38335326562E+02  0.00000000000E+00 0.  1.
         22    1    1    2    0    0 -0.71581182285E+01  0.30294496208E+02 -0.25615183259E+01  0.31233900385E+02  0.00000000000E+00 0.  1.
<mgrwt>
<rscale>  0 0.73245269E+02</rscale>
<asrwt>0</asrwt>
<pdfrwt beam="1">  1        4 0.14983397E-01 0.97420982E+02</pdfrwt>
<pdfrwt beam="2">  1       -4 0.69946713E-02 0.97420982E+02</pdfrwt>
<totfact> 0.77533246E+03</totfact>
</mgrwt>
</event>
<event>
 6    1  0.1535419E-002  0.9292337E+02  0.7546771E-02  0.1372199E+00
          2   -1    0    0  501    0  0.00000000000E+00  0.00000000000E+00  0.21816854276E+03  0.21816854276E+03  0.00000000000E+00 0. -1.
         -2   -1    0    0    0  501 -0.00000000000E+00 -0.00000000000E+00 -0.28684864035E+02  0.28684864035E+02  0.00000000000E+00 0.  1.
         23    2    1    2    0    0  0.17456036870E+02  0.17134993334E+02  0.19976509135E+03  0.22031986830E+03  0.89646145625E+02 0.  0.
         13    1    3    3    0    0 -0.26165866791E+02 -0.24167053640E+01  0.14612984728E+03  0.14847365192E+03  0.00000000000E+00 0. -1.
        -13    1    3    3    0    0  0.43621903661E+02  0.19551698698E+02  0.53635244072E+02  0.71846216376E+02  0.00000000000E+00 0.  1.
         22    1    1    2    0    0 -0.17456036870E+02 -0.17134993334E+02 -0.10281412622E+02  0.26533538499E+02  0.00000000000E+00 0.  1.
<mgrwt>
<rscale>  0 0.66559571E+02</rscale>
<asrwt>0</asrwt>
<pdfrwt beam="1">  1        2 0.33564390E-01 0.92923370E+02</pdfrwt>
<pdfrwt beam="2">  1       -2 0.44130562E-02 0.92923370E+02</pdfrwt>
<totfact> 0.32430101E+04</totfact>
</mgrwt>
</event>
<event>
 6    1  0.1535419E-002  0.9271890E+02  0.7546771E-02  0.1399905E+00
         -2   -1    0    0    0  501 -0.00000000000E+00  0.00000000000E+00  0.24103362715E+01  0.24103362715E+01  0.00000000000E+00 0.  1.
          2   -1    0    0  501    0  0.00000000000E+00 -0.00000000000E+00 -0.31812014376E+04  0.31812014376E+04  0.00000000000E+00 0. -1.
         23    2    1    2    0    0 -0.39151763315E+01  0.15238377676E+02 -0.31446857649E+04  0.31460523445E+04  0.91374273102E+02 0.  0.
         11    1    3    3    0    0  0.21410360082E+02  0.20713958200E+02 -0.35543840385E+03  0.35668463734E+03  0.00000000000E+00 0.  1.
        -11    1    3    3    0    0 -0.25325536413E+02 -0.54755805237E+01 -0.27892473610E+04  0.27893677072E+04  0.00000000000E+00 0. -1.
         22    1    1    2    0    0  0.39151763315E+01 -0.15238377676E+02 -0.34105336458E+02  0.37559429373E+02  0.00000000000E+00 0. -1.
<mgrwt>
<rscale>  0 0.59508797E+02</rscale>
<asrwt>0</asrwt>
<pdfrwt beam="1">  1        2 0.48941492E+00 0.92718901E+02</pdfrwt>
<pdfrwt beam="2">  1       -2 0.37082148E-03 0.92718901E+02</pdfrwt>
<totfact> 0.14218728E+04</totfact>
</mgrwt>
</event>
<event>
 6    1  0.1535419E-002  0.1107057E+03  0.7546771E-02  0.1302488E+00
          2   -1    0    0  501    0  0.00000000000E+00  0.00000000000E+00  0.12767453255E+04  0.12767453255E+04  0.00000000000E+00 0. -1.
         -2   -1    0    0    0  501 -0.00000000000E+00 -0.00000000000E+00 -0.75171788839E+01  0.75171788839E+01  0.00000000000E+00 0.  1.
         23    2    1    2    0    0  0.48195028502E+02 -0.68585415131E+01  0.11522969458E+04  0.11576026999E+04  0.99428159985E+02 0.  0.
         13    1    3    3    0    0  0.28602675408E+02  0.38429972008E+01  0.79545030474E+02  0.84618517720E+02  0.00000000000E+00 0.  1.
        -13    1    3    3    0    0  0.19592353094E+02 -0.10701538714E+02  0.10727519154E+04  0.10729841821E+04  0.00000000000E+00 0. -1.
         22    1    1    2    0    0 -0.48195028502E+02  0.68585415131E+01  0.11693120079E+03  0.12665980452E+03  0.00000000000E+00 0.  1.
<mgrwt>
<rscale>  0 0.90150171E+02</rscale>
<asrwt>0</asrwt>
<pdfrwt beam="1">  1        2 0.19642219E+00 0.11070573E+03</pdfrwt>
<pdfrwt beam="2">  1       -2 0.11564901E-02 0.11070573E+03</pdfrwt>
<totfact> 0.29279777E+04</totfact>
</mgrwt>
</event>
<event>
 6    1  0.1535419E-002  0.9136401E+02  0.7546771E-02  0.1405117E+00
          3   -1    0    0  501    0  0.00000000000E+00  0.00000000000E+00  0.92399976778E+02  0.92399976778E+02  0.00000000000E+00 0. -1.
         -3   -1    0    0    0  501 -0.00000000000E+00 -0.00000000000E+00 -0.30694744336E+02  0.30694744336E+02  0.00000000000E+00 0.  1.
         23    2    1    2    0    0  0.15120360588E+02  0.87265416869E+00  0.53213787265E+02  0.10573121137E+03  0.90099917159E+02 0.  0.
         13    1    3    3    0    0  0.51711135150E+01  0.11009295014E+02  0.77039124840E+02  0.77993408361E+02  0.00000000000E+00 0. -1.
        -13    1    3    3    0    0  0.99492470730E+01 -0.10136640845E+02 -0.23825337575E+02  0.27737803004E+02  0.00000000000E+00 0.  1.
         22    1    1    2    0    0 -0.15120360588E+02 -0.87265416869E+00  0.84914451772E+01  0.17363509749E+02  0.00000000000E+00 0.  1.
<mgrwt>
<rscale>  0 0.58297834E+02</rscale>
<asrwt>0</asrwt>
<pdfrwt beam="1">  1        3 0.14215381E-01 0.91364008E+02</pdfrwt>
<pdfrwt beam="2">  1       -3 0.47222684E-02 0.91364008E+02</pdfrwt>
<totfact> 0.20753153E+04</totfact>
</mgrwt>
</event>
<event>
 6    1  0.1535419E-002  0.1069949E+03  0.7546771E-02  0.1295692E+00
          2   -1    0    0  501    0  0.00000000000E+00  0.00000000000E+00  0.35443427013E+04  0.35443427013E+04  0.00000000000E+00 0. -1.
         -2   -1    0    0    0  501 -0.00000000000E+00 -0.00000000000E+00 -0.38125161452E+01  0.38125161452E+01  0.00000000000E+00 0.  1.
         23    2    1    2    0    0  0.34674390549E+02  0.50347650978E+02  0.32240433233E+04  0.32258182306E+04  0.87810634165E+02 0.  0.
         13    1    3    3    0    0  0.57588429981E+02  0.55730996887E+02  0.21001811773E+04  0.21017096252E+04  0.00000000000E+00 0. -1.
        -13    1    3    3    0    0 -0.22914039432E+02 -0.53833459085E+01  0.11238621460E+04  0.11241086054E+04  0.00000000000E+00 0.  1.
         22    1    1    2    0    0 -0.34674390549E+02 -0.50347650978E+02  0.31648686192E+03  0.32233698684E+03  0.00000000000E+00 0.  1.
<mgrwt>
<rscale>  0 0.93023048E+02</rscale>
<asrwt>0</asrwt>
<pdfrwt beam="1">  1        2 0.54528086E+00 0.10699489E+03</pdfrwt>
<pdfrwt beam="2">  1       -2 0.58654378E-03 0.10699489E+03</pdfrwt>
<totfact> 0.44565479E+03</totfact>
</mgrwt>
</event>
<event>
 6    1  0.1535419E-002  0.8984741E+02  0.7546771E-02  0.1396506E+00
          2   -1    0    0  501    0  0.00000000000E+00  0.00000000000E+00  0.69790824020E+03  0.69790824020E+03  0.00000000000E+00 0.  1.
         -2   -1    0    0    0  501 -0.00000000000E+00 -0.00000000000E+00 -0.54112422395E+01  0.54112422395E+01  0.00000000000E+00 0. -1.
         23    2    1    2    0    0  0.11871677635E+02 -0.13860010973E+02  0.65967313127E+03  0.66576361927E+03  0.87974541697E+02 0.  0.
         13    1    3    3    0    0  0.37453864076E+02  0.41697002463E+01  0.56058594041E+03  0.56185120354E+03  0.00000000000E+00 0.  1.
        -13    1    3    3    0    0 -0.25582186440E+02 -0.18029711219E+02  0.99087190855E+02  0.10391241572E+03  0.00000000000E+00 0. -1.
         22    1    1    2    0    0 -0.11871677635E+02  0.13860010973E+02  0.32823866688E+02  0.37555863169E+02  0.00000000000E+00 0. -1.
<mgrwt>
<rscale>  0 0.60317129E+02</rscale>
<asrwt>0</asrwt>
<pdfrwt beam="1">  1        2 0.10737043E+00 0.89847407E+02</pdfrwt>
<pdfrwt beam="2">  1       -2 0.83249936E-03 0.89847407E+02</pdfrwt>
<totfact> 0.10215978E+05</totfact>
</mgrwt>
</event>
<event>
 6    1  0.1535419E-002  0.9568159E+02  0.7546771E-02  0.1357449E+00
         -2   -1    0    0    0  501 -0.00000000000E+00  0.00000000000E+00  0.37129025030E+01  0.37129025030E+01  0.00000000000E+00 0.  1.
          2   -1    0    0  501    0  0.00000000000E+00 -0.00000000000E+00 -0.11292437141E+04  0.11292437141E+04  0.00000000000E+00 0. -1.
         23    2    1    2    0    0  0.28353750168E+02  0.41617864191E+01 -0.97792148658E+03  0.98259116696E+03  0.91289166155E+02 0.  0.
         13    1    3    3    0    0  0.18641817741E+02 -0.38743899629E+02 -0.68895949272E+03  0.69029978251E+03  0.00000000000E+00 0. -1.
        -13    1    3    3    0    0  0.97119324267E+01  0.42905686048E+02 -0.28896199386E+03  0.29229138445E+03  0.00000000000E+00 0.  1.
         22    1    1    2    0    0 -0.28353750168E+02 -0.41617864191E+01 -0.14760932506E+03  0.15036544969E+03  0.00000000000E+00 0. -1.
<mgrwt>
<rscale>  0 0.70783347E+02</rscale>
<asrwt>0</asrwt>
<pdfrwt beam="1">  1        2 0.17372959E+00 0.95681594E+02</pdfrwt>
<pdfrwt beam="2">  1       -2 0.57121648E-03 0.95681594E+02</pdfrwt>
<totfact> 0.94273443E+04</totfact>
</mgrwt>
</event>
<event>
 6    1  0.1535419E-002  0.8261027E+02  0.7546771E-02  0.1432587E+00
         -3   -1    0    0    0  501 -0.00000000000E+00  0.00000000000E+00  0.33844062145E+02  0.33844062145E+02  0.00000000000E+00 0.  1.
          3   -1    0    0  501    0  0.00000000000E+00 -0.00000000000E+00 -0.69633856845E+02  0.69633856845E+02  0.00000000000E+00 0. -1.
         23    2    1    2    0    0  0.10109328341E+02 -0.88228486804E+01 -0.35865092167E+02  0.90059765315E+02  0.81513283054E+02 0.  0.
         13    1    3    3    0    0 -0.10462516709E+02  0.95460884653E+01  0.21881603517E+02  0.26065238026E+02  0.00000000000E+00 0.  1.
        -13    1    3    3    0    0  0.20571845050E+02 -0.18368937146E+02 -0.57746695684E+02  0.63994527290E+02  0.00000000000E+00 0. -1.
         22    1    1    2    0    0 -0.10109328341E+02  0.88228486804E+01  0.75297467035E-01  0.13418153676E+02  0.00000000000E+00 0. -1.
<mgrwt>
<rscale>  0 0.52444145E+02</rscale>
<asrwt>0</asrwt>
<pdfrwt beam="1">  1        3 0.10712901E-01 0.82610269E+02</pdfrwt>
<pdfrwt beam="2">  1       -3 0.52067788E-02 0.82610269E+02</pdfrwt>
<totfact> 0.27749179E+04</totfact>
</mgrwt>
</event>
<event>
 6    1  0.1535419E-002  0.9173750E+02  0.7546771E-02  0.1409949E+00
          4   -1    0    0  501    0  0.00000000000E+00  0.00000000000E+00  0.99850994577E+02  0.99850994577E+02  0.00000000000E+00 0.  1.
         -4   -1    0    0    0  501 -0.00000000000E+00 -0.00000000000E+00 -0.30663082236E+02  0.30663082236E+02  0.00000000000E+00 0. -1.
         23    2    1    2    0    0 -0.75699373328E+01 -0.11623119577E+02  0.71680469028E+02  0.11642103957E+03  0.90682787531E+02 0.  0.
         11    1    3    3    0    0 -0.32606623331E+02 -0.78094349841E+01  0.82369611186E+02  0.88932176442E+02  0.00000000000E+00 0.  1.
        -11    1    3    3    0    0  0.25036685998E+02 -0.38136845933E+01 -0.10689142158E+02  0.27488863127E+02  0.00000000000E+00 0. -1.
         22    1    1    2    0    0  0.75699373328E+01  0.11623119577E+02 -0.24925566870E+01  0.14093037244E+02  0.00000000000E+00 0. -1.
<mgrwt>
<rscale>  0 0.57205271E+02</rscale>
<asrwt>0</asrwt>
<pdfrwt beam="1">  1        4 0.15361691E-01 0.91737499E+02</pdfrwt>
<pdfrwt beam="2">  1       -4 0.47173973E-02 0.91737499E+02</pdfrwt>
<totfact> 0.13747278E+04</totfact>
</mgrwt>
</event>
<event>
 6    1  0.1535419E-002  0.9064385E+02  0.7546771E-02  0.1388104E+00
          1   -1    0    0  501    0  0.00000000000E+00  0.00000000000E+00  0.90950652831E+02  0.90950652831E+02  0.00000000000E+00 0. -1.
         -1   -1    0    0    0  501 -0.00000000000E+00 -0.00000000000E+00 -0.34569771082E+02  0.34569771082E+02  0.00000000000E+00 0.  1.
         23    2    1    2    0    0  0.19944192639E+02  0.39537060885E+01  0.52722349312E+02  0.10486158872E+03  0.88334048138E+02 0.  0.
         11    1    3    3    0    0  0.35941776465E+02 -0.21836688298E+02  0.60360032848E+02  0.73566200233E+02  0.00000000000E+00 0. -1.
        -11    1    3    3    0    0 -0.15997583826E+02  0.25790394386E+02 -0.76376835365E+01  0.31295388489E+02  0.00000000000E+00 0.  1.
         22    1    1    2    0    0 -0.19944192639E+02 -0.39537060885E+01  0.36585324373E+01  0.20658835191E+02  0.00000000000E+00 0.  1.
<mgrwt>
<rscale>  0 0.62380721E+02</rscale>
<asrwt>0</asrwt>
<pdfrwt beam="1">  1        1 0.13992408E-01 0.90643845E+02</pdfrwt>
<pdfrwt beam="2">  1       -1 0.53184264E-02 0.90643845E+02</pdfrwt>
<totfact> 0.56226246E+04</totfact>
</mgrwt>
</event>
<event>
 6    1  0.1535419E-002  0.1081240E+03  0.7546771E-02  0.1375505E+00
         -2   -1    0    0    0  501 -0.00000000000E+00  0.00000000000E+00  0.87504494250E+01  0.87504494250E+01  0.00000000000E+00 0.  1.
          2   -1    0    0  501    0  0.00000000000E+00 -0.00000000000E+00 -0.45651643382E+03  0.45651643382E+03  0.00000000000E+00 0. -1.
         23    2    1    2    0    0 -0.92213855079E+01 -0.11453536585E+02 -0.42168508820E+03  0.43532643239E+03  0.10711942717E+03 0.  0.
         11    1    3    3    0    0  0.35581136280E+02 -0.24043329364E+01 -0.53384602160E+02  0.64200574948E+02  0.00000000000E+00 0.  1.
        -11    1    3    3    0    0 -0.44802521788E+02 -0.90492036489E+01 -0.36830048604E+03  0.37112585744E+03  0.00000000000E+00 0. -1.
         22    1    1    2    0    0  0.92213855079E+01  0.11453536585E+02 -0.26080896191E+02  0.29940450851E+02  0.00000000000E+00 0. -1.
<mgrwt>
<rscale>  0 0.65660287E+02</rscale>
<asrwt>0</asrwt>
<pdfrwt beam="1">  1        2 0.70233319E-01 0.10812395E+03</pdfrwt>
<pdfrwt beam="2">  1       -2 0.13462226E-02 0.10812395E+03</pdfrwt>
<totfact> 0.84883183E+04</totfact>
</mgrwt>
</event>
<event>
 6    1  0.1535419E-002  0.9390656E+02  0.7546771E-02  0.1380209E+00
          4   -1    0    0  501    0  0.00000000000E+00  0.00000000000E+00  0.17922915506E+03  0.17922915506E+03  0.00000000000E+00 0. -1.
         -4   -1    0    0    0  501 -0.00000000000E+00 -0.00000000000E+00 -0.18766487746E+02  0.18766487746E+02  0.00000000000E+00 0.  1.
         23    2    1    2    0    0  0.20616238463E+02 -0.26211406201E+01  0.14172813812E+03  0.17001560973E+03  0.91578069168E+02 0.  0.
         13    1    3    3    0    0 -0.45862717219E+01  0.34001941402E+02  0.18427871786E+02  0.38945505081E+02  0.00000000000E+00 0.  1.
        -13    1    3    3    0    0  0.25202510185E+02 -0.36623082022E+02  0.12330026633E+03  0.13107010465E+03  0.00000000000E+00 0. -1.
         22    1    1    2    0    0 -0.20616238463E+02  0.26211406201E+01  0.18734529200E+02  0.27980033074E+02  0.00000000000E+00 0.  1.
<mgrwt>
<rscale>  0 0.64408742E+02</rscale>
<asrwt>0</asrwt>
<pdfrwt beam="1">  1        4 0.27573715E-01 0.93906562E+02</pdfrwt>
<pdfrwt beam="2">  1       -4 0.28871521E-02 0.93906562E+02</pdfrwt>
<totfact> 0.10490287E+04</totfact>
</mgrwt>
</event>
<event>
 6    1  0.1535419E-002  0.9307953E+02  0.7546771E-02  0.1377865E+00
         -3   -1    0    0    0  501 -0.00000000000E+00  0.00000000000E+00  0.19311846400E+02  0.19311846400E+02  0.00000000000E+00 0.  1.
          3   -1    0    0  501    0  0.00000000000E+00 -0.00000000000E+00 -0.18259305680E+03  0.18259305680E+03  0.00000000000E+00 0. -1.
         23    2    1    2    0    0  0.57512461592E+01  0.21415468972E+02 -0.14848526131E+03  0.17524746046E+03  0.90399670517E+02 0.  0.
         11    1    3    3    0    0 -0.10343635156E+02  0.33934550205E+02 -0.12305442436E+02  0.37549545928E+02  0.00000000000E+00 0.  1.
        -11    1    3    3    0    0  0.16094881315E+02 -0.12519081233E+02 -0.13617981887E+03  0.13769791453E+03  0.00000000000E+00 0. -1.
         22    1    1    2    0    0 -0.57512461592E+01 -0.21415468972E+02 -0.14795949092E+02  0.26657442736E+02  0.00000000000E+00 0.  1.
<mgrwt>
<rscale>  0 0.65028402E+02</rscale>
<asrwt>0</asrwt>
<pdfrwt beam="1">  1        3 0.28091239E-01 0.93079534E+02</pdfrwt>
<pdfrwt beam="2">  1       -3 0.29710533E-02 0.93079534E+02</pdfrwt>
<totfact> 0.12989351E+04</totfact>
</mgrwt>
</event>
<event>
 6    1  0.1535419E-002  0.9488087E+02  0.7546771E-02  0.1374680E+00
         -2   -1    0    0    0  501 -0.00000000000E+00  0.00000000000E+00  0.23798887420E+03  0.23798887420E+03  0.00000000000E+00 0.  1.
          2   -1    0    0  501    0  0.00000000000E+00 -0.00000000000E+00 -0.14364857072E+02  0.14364857072E+02  0.00000000000E+00 0. -1.
         23    2    1    2    0    0  0.17756143962E+02  0.13086632603E+02  0.18119675037E+03  0.20453518293E+03  0.92281298805E+02 0.  0.
         13    1    3    3    0    0  0.77202333232E+00  0.51294574644E+02  0.79938578601E+02  0.94983713113E+02  0.00000000000E+00 0. -1.
        -13    1    3    3    0    0  0.16984120630E+02 -0.38207942041E+02  0.10125817177E+03  0.10955146981E+03  0.00000000000E+00 0.  1.
         22    1    1    2    0    0 -0.17756143962E+02 -0.13086632603E+02  0.42427266760E+02  0.47818548347E+02  0.00000000000E+00 0.  1.
<mgrwt>
<rscale>  0 0.65883076E+02</rscale>
<asrwt>0</asrwt>
<pdfrwt beam="1">  1        2 0.22099782E-02 0.94880866E+02</pdfrwt>
<pdfrwt beam="2">  1       -2 0.36613670E-01 0.94880866E+02</pdfrwt>
<totfact> 0.29496685E+04</totfact>
</mgrwt>
</event>
<event>
 6    1  0.1535419E-002  0.9253708E+02  0.7546771E-02  0.1400814E+00
         -2   -1    0    0    0  501 -0.00000000000E+00  0.00000000000E+00  0.18549363384E+02  0.18549363384E+02  0.00000000000E+00 0.  1.
          2   -1    0    0  501    0  0.00000000000E+00 -0.00000000000E+00 -0.15869925173E+03  0.15869925173E+03  0.00000000000E+00 0. -1.
         23    2    1    2    0    0  0.37084316172E+01 -0.15152989320E+02 -0.11439006300E+03  0.14713326766E+03  0.91212643799E+02 0.  0.
         13    1    3    3    0    0  0.28957562051E+02 -0.43540346938E+02 -0.81765155999E+02  0.97055875386E+02  0.00000000000E+00 0.  1.
        -13    1    3    3    0    0 -0.25249130434E+02  0.28387357618E+02 -0.32624907002E+02  0.50077392275E+02  0.00000000000E+00 0. -1.
         22    1    1    2    0    0 -0.37084316172E+01  0.15152989320E+02 -0.25759825341E+02  0.30115347449E+02  0.00000000000E+00 0. -1.
<mgrwt>
<rscale>  0 0.59295160E+02</rscale>
<asrwt>0</asrwt>
<pdfrwt beam="1">  1        2 0.24415270E-01 0.92537084E+02</pdfrwt>
<pdfrwt beam="2">  1       -2 0.28537482E-02 0.92537084E+02</pdfrwt>
<totfact> 0.86409241E+04</totfact>
</mgrwt>
</event>
<event>
 6    1  0.1535419E-002  0.8970592E+02  0.7546771E-02  0.1393515E+00
          1   -1    0    0  501    0  0.00000000000E+00  0.00000000000E+00  0.41267087681E+02  0.41267087681E+02  0.00000000000E+00 0. -1.
         -1   -1    0    0    0  501 -0.00000000000E+00 -0.00000000000E+00 -0.72469588737E+02  0.72469588737E+02  0.00000000000E+00 0.  1.
         23    2    1    2    0    0  0.64058569932E+01 -0.18133650359E+02 -0.21738415810E+02  0.92302283758E+02  0.87620138016E+02 0.  0.
         13    1    3    3    0    0  0.10857286010E+02  0.34847239489E+02 -0.75152191663E+01  0.37265121476E+02  0.00000000000E+00 0.  1.
        -13    1    3    3    0    0 -0.44514290164E+01 -0.52980889848E+02 -0.14223196643E+02  0.55037162282E+02  0.00000000000E+00 0. -1.
         22    1    1    2    0    0 -0.64058569932E+01  0.18133650359E+02 -0.94640852464E+01  0.21434392660E+02  0.00000000000E+00 0.  1.
<mgrwt>
<rscale>  0 0.61040930E+02</rscale>
<asrwt>0</asrwt>
<pdfrwt beam="1">  1        1 0.63487828E-02 0.89705924E+02</pdfrwt>
<pdfrwt beam="2">  1       -1 0.11149167E-01 0.89705924E+02</pdfrwt>
<totfact> 0.52566399E+04</totfact>
</mgrwt>
</event>
<event>
 6    1  0.1535419E-002  0.1081325E+03  0.7546771E-02  0.1392594E+00
         -2   -1    0    0    0  501 -0.00000000000E+00  0.00000000000E+00  0.11234717070E+02  0.11234717070E+02  0.00000000000E+00 0.  1.
          2   -1    0    0  501    0  0.00000000000E+00 -0.00000000000E+00 -0.34976054175E+03  0.34976054175E+03  0.00000000000E+00 0. -1.
         23    2    1    2    0    0 -0.10035249218E+02 -0.48441332735E+01 -0.32906958717E+03  0.34638046214E+03  0.10755677339E+03 0.  0.
         13    1    3    3    0    0  0.25253357616E+02 -0.41120450551E+02 -0.23139625532E+03  0.23637438630E+03  0.00000000000E+00 0. -1.
        -13    1    3    3    0    0 -0.35288606834E+02  0.36276317278E+02 -0.97673331852E+02  0.11000607584E+03  0.00000000000E+00 0.  1.
         22    1    1    2    0    0  0.10035249218E+02  0.48441332735E+01 -0.94562375161E+01  0.14614796680E+02  0.00000000000E+00 0. -1.
<mgrwt>
<rscale>  0 0.61266066E+02</rscale>
<asrwt>0</asrwt>
<pdfrwt beam="1">  1        2 0.53809312E-01 0.10813247E+03</pdfrwt>
<pdfrwt beam="2">  1       -2 0.17284181E-02 0.10813247E+03</pdfrwt>
<totfact> 0.78702835E+04</totfact>
</mgrwt>
</event>
<event>
 6    1  0.1535419E-002  0.9183059E+02  0.7546771E-02  0.1430354E+00
          2   -1    0    0  501    0  0.00000000000E+00  0.00000000000E+00  0.16274198673E+03  0.16274198673E+03  0.00000000000E+00 0.  1.
         -2   -1    0    0    0  501 -0.00000000000E+00 -0.00000000000E+00 -0.37659268674E+02  0.37659268674E+02  0.00000000000E+00 0. -1.
         23    2    1    2    0    0  0.74220543394E+01 -0.68561238998E+01  0.14866799620E+03  0.17474275445E+03  0.91273017991E+02 0.  0.
         13    1    3    3    0    0 -0.23162498190E+02  0.31088377679E+01  0.76552619564E+00  0.23382733481E+02  0.00000000000E+00 0. -1.
        -13    1    3    3    0    0  0.30584552529E+02 -0.99649616677E+01  0.14790247001E+03  0.15136002097E+03  0.00000000000E+00 0.  1.
         22    1    1    2    0    0 -0.74220543394E+01  0.68561238998E+01 -0.23585278149E+02  0.25658500948E+02  0.00000000000E+00 0. -1.
<mgrwt>
<rscale>  0 0.52888981E+02</rscale>
<asrwt>0</asrwt>
<pdfrwt beam="1">  1        2 0.25037228E-01 0.91830589E+02</pdfrwt>
<pdfrwt beam="2">  1       -2 0.57937337E-02 0.91830589E+02</pdfrwt>
<totfact> 0.29594481E+04</totfact>
</mgrwt>
</event>
<event>
 6    1  0.1535419E-002  0.8755303E+02  0.7546771E-02  0.1432717E+00
          2   -1    0    0  501    0  0.00000000000E+00  0.00000000000E+00  0.83445855712E+02  0.83445855712E+02  0.00000000000E+00 0. -1.
         -2   -1    0    0    0  501 -0.00000000000E+00 -0.00000000000E+00 -0.34501930918E+02  0.34501930918E+02  0.00000000000E+00 0.  1.
         23    2    1    2    0    0  0.59838257634E+01 -0.95257909262E+01  0.56677100828E+02  0.10429682054E+03  0.86827335291E+02 0.  0.
         13    1    3    3    0    0  0.50681449293E+01 -0.43854482313E+02  0.82201923722E+01  0.44905158664E+02  0.00000000000E+00 0.  1.
        -13    1    3    3    0    0  0.91568083417E+00  0.34328691387E+02  0.48456908455E+02  0.59391661879E+02  0.00000000000E+00 0. -1.
         22    1    1    2    0    0 -0.59838257634E+01  0.95257909262E+01 -0.77331760335E+01  0.13650966087E+02  0.00000000000E+00 0.  1.
<mgrwt>
<rscale>  0 0.52418526E+02</rscale>
<asrwt>0</asrwt>
<pdfrwt beam="1">  1        2 0.12837824E-01 0.87553030E+02</pdfrwt>
<pdfrwt beam="2">  1       -2 0.53079894E-02 0.87553030E+02</pdfrwt>
<totfact> 0.71365625E+04</totfact>
</mgrwt>
</event>
<event>
 6    1  0.1535419E-002  0.9237365E+02  0.7546771E-02  0.1423614E+00
          2   -1    0    0  501    0  0.00000000000E+00  0.00000000000E+00  0.39861245910E+02  0.39861245910E+02  0.00000000000E+00 0. -1.
         -2   -1    0    0    0  501 -0.00000000000E+00 -0.00000000000E+00 -0.67248869804E+02  0.67248869804E+02  0.00000000000E+00 0.  1.
         23    2    1    2    0    0 -0.20732532462E+01 -0.10802732548E+02 -0.26366648836E+02  0.96062953201E+02  0.91716374750E+02 0.  0.
         13    1    3    3    0    0  0.33107465727E+02  0.33144722342E+01  0.17900857296E+02  0.37782677313E+02  0.00000000000E+00 0. -1.
        -13    1    3    3    0    0 -0.35180718973E+02 -0.14117204782E+02 -0.44267506132E+02  0.58280275887E+02  0.00000000000E+00 0.  1.
         22    1    1    2    0    0  0.20732532462E+01  0.10802732548E+02 -0.10209750583E+01  0.11047162513E+02  0.00000000000E+00 0. -1.
<mgrwt>
<rscale>  0 0.54263535E+02</rscale>
<asrwt>0</asrwt>
<pdfrwt beam="1">  1        2 0.61324995E-02 0.92373648E+02</pdfrwt>
<pdfrwt beam="2">  1       -2 0.10345980E-01 0.92373648E+02</pdfrwt>
<totfact> 0.64462689E+04</totfact>
</mgrwt>
</event>
<event>
 6    1  0.1535419E-002  0.8680714E+02  0.7546771E-02  0.1435843E+00
         -2   -1    0    0    0  501 -0.00000000000E+00  0.00000000000E+00  0.35710367175E+02  0.35710367175E+02  0.00000000000E+00 0.  1.
          2   -1    0    0  501    0  0.00000000000E+00 -0.00000000000E+00 -0.11237408059E+03  0.11237408059E+03  0.00000000000E+00 0. -1.
         23    2    1    2    0    0  0.28042664564E+00 -0.11007062404E+02 -0.93743778903E+02  0.12776296409E+03  0.86106009358E+02 0.  0.
         13    1    3    3    0    0  0.23621185000E+02 -0.16893509150E+02 -0.98959668387E+02  0.10313276395E+03  0.00000000000E+00 0. -1.
        -13    1    3    3    0    0 -0.23340758354E+02  0.58864467462E+01  0.52158894838E+01  0.24630200140E+02  0.00000000000E+00 0.  1.
         22    1    1    2    0    0 -0.28042664564E+00  0.11007062404E+02  0.17080065487E+02  0.20321483679E+02  0.00000000000E+00 0.  1.
<mgrwt>
<rscale>  0 0.51804759E+02</rscale>
<asrwt>0</asrwt>
<pdfrwt beam="1">  1        2 0.17288320E-01 0.86807136E+02</pdfrwt>
<pdfrwt beam="2">  1       -2 0.54939027E-02 0.86807136E+02</pdfrwt>
<totfact> 0.48003872E+04</totfact>
</mgrwt>
</event>
<event>
 6    1  0.1535419E-002  0.9156282E+02  0.7546771E-02  0.1410314E+00
         -4   -1    0    0    0  501 -0.00000000000E+00  0.00000000000E+00  0.73417221338E+02  0.73417221338E+02  0.00000000000E+00 0.  1.
          4   -1    0    0  501    0  0.00000000000E+00 -0.00000000000E+00 -0.57986020129E+02  0.57986020129E+02  0.00000000000E+00 0. -1.
         23    2    1    2    0    0 -0.12190699145E+02  0.66178619296E+01 -0.19677761587E+02  0.93653426754E+02  0.90506026316E+02 0.  0.
         11    1    3    3    0    0 -0.34510001691E+02 -0.13023604969E+02 -0.42425536700E+02  0.56218152472E+02  0.00000000000E+00 0. -1.
        -11    1    3    3    0    0  0.22319302545E+02  0.19641466898E+02  0.22747775113E+02  0.37435274283E+02  0.00000000000E+00 0.  1.
         22    1    1    2    0    0  0.12190699145E+02 -0.66178619296E+01  0.35108962796E+02  0.37749814712E+02  0.00000000000E+00 0.  1.
<mgrwt>
<rscale>  0 0.57123869E+02</rscale>
<asrwt>0</asrwt>
<pdfrwt beam="1">  1        4 0.89209262E-02 0.91562820E+02</pdfrwt>
<pdfrwt beam="2">  1       -4 0.11294957E-01 0.91562820E+02</pdfrwt>
<totfact> 0.82808836E+03</totfact>
</mgrwt>
</event>
<event>
 6    1  0.1535419E-002  0.9056605E+02  0.7546771E-02  0.1424916E+00
          2   -1    0    0  501    0  0.00000000000E+00  0.00000000000E+00  0.64943117251E+02  0.64943117251E+02  0.00000000000E+00 0.  1.
         -2   -1    0    0    0  501 -0.00000000000E+00 -0.00000000000E+00 -0.41803122056E+02  0.41803122056E+02  0.00000000000E+00 0. -1.
         23    2    1    2    0    0 -0.11258602842E+02  0.20392585950E+01  0.27268897318E+02  0.94582253681E+02  0.89840387559E+02 0.  0.
         11    1    3    3    0    0  0.21051051663E+02  0.26612698876E+02 -0.13989649628E+02  0.36702763033E+02  0.00000000000E+00 0. -1.
        -11    1    3    3    0    0 -0.32309654505E+02 -0.24573440281E+02  0.41258546946E+02  0.57879490647E+02  0.00000000000E+00 0.  1.
         22    1    1    2    0    0  0.11258602842E+02 -0.20392585950E+01 -0.41289021236E+01  0.12163985627E+02  0.00000000000E+00 0. -1.
<mgrwt>
<rscale>  0 0.53994266E+02</rscale>
<asrwt>0</asrwt>
<pdfrwt beam="1">  1        2 0.99912489E-02 0.90566053E+02</pdfrwt>
<pdfrwt beam="2">  1       -2 0.64312495E-02 0.90566053E+02</pdfrwt>
<totfact> 0.72602749E+04</totfact>
</mgrwt>
</event>
<event>
 6    1  0.1535419E-002  0.9368082E+02  0.7546771E-02  0.1400541E+00
         -2   -1    0    0    0  501 -0.00000000000E+00  0.00000000000E+00  0.33703717161E+01  0.33703717161E+01  0.00000000000E+00 0.  1.
          2   -1    0    0  501    0  0.00000000000E+00 -0.00000000000E+00 -0.14265852137E+04  0.14265852137E+04  0.00000000000E+00 0. -1.
         23    2    1    2    0    0 -0.65849982154E+01 -0.13589380868E+02 -0.13932959856E+04  0.13964418354E+04  0.92455733437E+02 0.  0.
         11    1    3    3    0    0  0.55959379688E+01  0.32453186843E+02 -0.25070844582E+03  0.25286211394E+03  0.00000000000E+00 0.  1.
        -11    1    3    3    0    0 -0.12180936184E+02 -0.46042567711E+02 -0.11425875398E+04  0.11435797215E+04  0.00000000000E+00 0. -1.
         22    1    1    2    0    0  0.65849982154E+01  0.13589380868E+02 -0.29918856373E+02  0.33513750023E+02  0.00000000000E+00 0.  1.
<mgrwt>
<rscale>  0 0.59359173E+02</rscale>
<asrwt>0</asrwt>
<pdfrwt beam="1">  1        2 0.21947415E+00 0.93680820E+02</pdfrwt>
<pdfrwt beam="2">  1       -2 0.51851989E-03 0.93680820E+02</pdfrwt>
<totfact> 0.74736041E+04</totfact>
</mgrwt>
</event>
<event>
 6    1  0.1535419E-002  0.9300244E+02  0.7546771E-02  0.1410289E+00
          3   -1    0    0  501    0  0.00000000000E+00  0.00000000000E+00  0.40366229785E+02  0.40366229785E+02  0.00000000000E+00 0. -1.
         -3   -1    0    0    0  501 -0.00000000000E+00 -0.00000000000E+00 -0.81324206721E+02  0.81324206721E+02  0.00000000000E+00 0.  1.
         23    2    1    2    0    0  0.89477198188E+01 -0.97618087133E+01 -0.17327919418E+02  0.94602907685E+02  0.92054868159E+02 0.  0.
         13    1    3    3    0    0  0.44062284243E+02  0.40039024456E+01 -0.31500028318E+02  0.54311765866E+02  0.00000000000E+00 0. -1.
        -13    1    3    3    0    0 -0.35114564424E+02 -0.13765711159E+02  0.14172108900E+02  0.40291141819E+02  0.00000000000E+00 0.  1.
         22    1    1    2    0    0 -0.89477198188E+01  0.97618087133E+01 -0.23630057519E+02  0.27087528821E+02  0.00000000000E+00 0.  1.
<mgrwt>
<rscale>  0 0.57129496E+02</rscale>
<asrwt>0</asrwt>
<pdfrwt beam="1">  1        3 0.62101892E-02 0.93002437E+02</pdfrwt>
<pdfrwt beam="2">  1       -3 0.12511416E-01 0.93002437E+02</pdfrwt>
<totfact> 0.16777277E+04</totfact>
</mgrwt>
</event>
<event>
 6    1  0.1535419E-002  0.9286027E+02  0.7546771E-02  0.1421685E+00
          2   -1    0    0  501    0  0.00000000000E+00  0.00000000000E+00  0.33814713602E+02  0.33814713602E+02  0.00000000000E+00 0. -1.
         -2   -1    0    0    0  501 -0.00000000000E+00 -0.00000000000E+00 -0.93317049831E+02  0.93317049831E+02  0.00000000000E+00 0.  1.
         23    2    1    2    0    0 -0.97504367517E+01 -0.54138317639E+01 -0.33292769712E+02  0.98648049346E+02  0.92188114924E+02 0.  0.
         13    1    3    3    0    0 -0.45808249184E+02 -0.21368151988E+02 -0.64689001715E+01  0.50959202134E+02  0.00000000000E+00 0. -1.
        -13    1    3    3    0    0  0.36057812432E+02  0.15954320224E+02 -0.26823869541E+02  0.47688847212E+02  0.00000000000E+00 0.  1.
         22    1    1    2    0    0  0.97504367517E+01  0.54138317639E+01 -0.26209566517E+02  0.28483714087E+02  0.00000000000E+00 0. -1.
<mgrwt>
<rscale>  0 0.54665902E+02</rscale>
<asrwt>0</asrwt>
<pdfrwt beam="1">  1        2 0.52022637E-02 0.92860267E+02</pdfrwt>
<pdfrwt beam="2">  1       -2 0.14356469E-01 0.92860267E+02</pdfrwt>
<totfact> 0.47376694E+04</totfact>
</mgrwt>
</event>
<event>
 6    1  0.1535419E-002  0.9166032E+02  0.7546771E-02  0.1406235E+00
          2   -1    0    0  501    0  0.00000000000E+00  0.00000000000E+00  0.11478262489E+04  0.11478262489E+04  0.00000000000E+00 0. -1.
         -2   -1    0    0    0  501 -0.00000000000E+00 -0.00000000000E+00 -0.34966054134E+01  0.34966054134E+01  0.00000000000E+00 0.  1.
         23    2    1    2    0    0 -0.11970631837E+02  0.85973813732E+01  0.11122410122E+04  0.11160115070E+04  0.90467693033E+02 0.  0.
         13    1    3    3    0    0 -0.32643614760E+02  0.33104172506E+02  0.91510860159E+03  0.91628884340E+03  0.00000000000E+00 0. -1.
        -13    1    3    3    0    0  0.20672982923E+02 -0.24506791133E+02  0.19713241062E+03  0.19972266359E+03  0.00000000000E+00 0.  1.
         22    1    1    2    0    0  0.11970631837E+02 -0.85973813732E+01  0.32088631269E+02  0.35311347323E+02  0.00000000000E+00 0.  1.
<mgrwt>
<rscale>  0 0.58042520E+02</rscale>
<asrwt>0</asrwt>
<pdfrwt beam="1">  1        2 0.17658835E+00 0.91660321E+02</pdfrwt>
<pdfrwt beam="2">  1       -2 0.53794021E-03 0.91660321E+02</pdfrwt>
<totfact> 0.99628911E+04</totfact>
</mgrwt>
</event>
<event>
 6    1  0.1535419E-002  0.9215501E+02  0.7546771E-02  0.1429062E+00
          1   -1    0    0  501    0  0.00000000000E+00  0.00000000000E+00  0.59015121009E+02  0.59015121009E+02  0.00000000000E+00 0. -1.
         -1   -1    0    0    0  501 -0.00000000000E+00 -0.00000000000E+00 -0.58800005462E+02  0.58800005462E+02  0.00000000000E+00 0.  1.
         23    2    1    2    0    0  0.98081165972E+01  0.27841720342E+01  0.21130964852E+02  0.94546617339E+02  0.91589270166E+02 0.  0.
         11    1    3    3    0    0  0.43458160250E+02 -0.15068197124E+02 -0.78778802733E+01  0.46666082485E+02  0.00000000000E+00 0.  1.
        -11    1    3    3    0    0 -0.33650043653E+02  0.17852369158E+02  0.29008845125E+02  0.47880534854E+02  0.00000000000E+00 0. -1.
         22    1    1    2    0    0 -0.98081165972E+01 -0.27841720342E+01 -0.20915849305E+02  0.23268509132E+02  0.00000000000E+00 0. -1.
<mgrwt>
<rscale>  0 0.53148702E+02</rscale>
<asrwt>0</asrwt>
<pdfrwt beam="1">  1        1 0.90792494E-02 0.92155006E+02</pdfrwt>
<pdfrwt beam="2">  1       -1 0.90461547E-02 0.92155006E+02</pdfrwt>
<totfact> 0.44994639E+04</totfact>
</mgrwt>
</event>
<event>
 6    1  0.1535419E-002  0.9279325E+02  0.7546771E-02  0.1415429E+00
         -2   -1    0    0    0  501 -0.00000000000E+00  0.00000000000E+00  0.55781598660E+01  0.55781598660E+01  0.00000000000E+00 0.  1.
          2   -1    0    0  501    0  0.00000000000E+00 -0.00000000000E+00 -0.53117790527E+03  0.53117790527E+03  0.00000000000E+00 0. -1.
         23    2    1    2    0    0 -0.12289644314E+02  0.67826699412E+00 -0.49748485485E+03  0.50606498378E+03  0.91973320088E+02 0.  0.
         11    1    3    3    0    0 -0.90756976647E+01  0.22428750255E+02 -0.32281961593E+02  0.40342808162E+02  0.00000000000E+00 0.  1.
        -11    1    3    3    0    0 -0.32139466490E+01 -0.21750483261E+02 -0.46520289325E+03  0.46572217562E+03  0.00000000000E+00 0. -1.
         22    1    1    2    0    0  0.12289644314E+02 -0.67826699412E+00 -0.28114890562E+02  0.30691081356E+02  0.00000000000E+00 0. -1.
<mgrwt>
<rscale>  0 0.55999896E+02</rscale>
<asrwt>0</asrwt>
<pdfrwt beam="1">  1        2 0.81719683E-01 0.92793249E+02</pdfrwt>
<pdfrwt beam="2">  1       -2 0.85817838E-03 0.92793249E+02</pdfrwt>
<totfact> 0.13367515E+05</totfact>
</mgrwt>
</event>
<event>
 6    1  0.1535419E-002  0.8629867E+02  0.7546771E-02  0.1441243E+00
         -2   -1    0    0    0  501 -0.00000000000E+00  0.00000000000E+00  0.24982496620E+02  0.24982496620E+02  0.00000000000E+00 0.  1.
          2   -1    0    0  501    0  0.00000000000E+00 -0.00000000000E+00 -0.12932025783E+04  0.12932025783E+04  0.00000000000E+00 0. -1.
         23    2    1    2    0    0 -0.10081507458E+02  0.22790813095E+01 -0.12906270856E+04  0.12935090780E+04  0.85677475979E+02 0.  0.
         11    1    3    3    0    0 -0.26156944502E+02 -0.33369604486E+02 -0.45617829888E+03  0.45814447134E+03  0.00000000000E+00 0.  1.
        -11    1    3    3    0    0  0.16075437044E+02  0.35648685795E+02 -0.83444878669E+03  0.83536460667E+03  0.00000000000E+00 0. -1.
         22    1    1    2    0    0  0.10081507458E+02 -0.22790813095E+01  0.22407003845E+02  0.24675996952E+02  0.00000000000E+00 0.  1.
<mgrwt>
<rscale>  0 0.50768023E+02</rscale>
<asrwt>0</asrwt>
<pdfrwt beam="1">  1        2 0.19895426E+00 0.86298673E+02</pdfrwt>
<pdfrwt beam="2">  1       -2 0.38434606E-02 0.86298673E+02</pdfrwt>
<totfact> 0.49959822E+03</totfact>
</mgrwt>
</event>
<event>
 6    1  0.1535419E-002  0.9286570E+02  0.7546771E-02  0.1398435E+00
          2   -1    0    0  501    0  0.00000000000E+00  0.00000000000E+00  0.18009896553E+03  0.18009896553E+03  0.00000000000E+00 0. -1.
         -2   -1    0    0    0  501 -0.00000000000E+00 -0.00000000000E+00 -0.18926095993E+02  0.18926095993E+02  0.00000000000E+00 0.  1.
         23    2    1    2    0    0 -0.12797288303E+02  0.96502742520E+01  0.15708789943E+03  0.18248464551E+03  0.91472068522E+02 0.  0.
         13    1    3    3    0    0 -0.42450063330E+02 -0.61341149722E+01  0.13651266643E+03  0.14309207993E+03  0.00000000000E+00 0. -1.
        -13    1    3    3    0    0  0.29652775027E+02  0.15784389224E+02  0.20575232994E+02  0.39392565577E+02  0.00000000000E+00 0.  1.
         22    1    1    2    0    0  0.12797288303E+02 -0.96502742520E+01  0.40849701104E+01  0.16540416012E+02  0.00000000000E+00 0.  1.
<mgrwt>
<rscale>  0 0.59856548E+02</rscale>
<asrwt>0</asrwt>
<pdfrwt beam="1">  1        2 0.27707532E-01 0.92865697E+02</pdfrwt>
<pdfrwt beam="2">  1       -2 0.29117072E-02 0.92865697E+02</pdfrwt>
<totfact> 0.73191835E+04</totfact>
</mgrwt>
</event>
<event>
 6    1  0.1535419E-002  0.9119898E+02  0.7546771E-02  0.1420585E+00
          1   -1    0    0  501    0  0.00000000000E+00  0.00000000000E+00  0.28977428851E+03  0.28977428851E+03  0.00000000000E+00 0. -1.
         -1   -1    0    0    0  501 -0.00000000000E+00 -0.00000000000E+00 -0.92610274863E+01  0.92610274863E+01  0.00000000000E+00 0.  1.
         23    2    1    2    0    0 -0.46269962991E+00 -0.11964878740E+02  0.23824405416E+03  0.25510288762E+03  0.90409521153E+02 0.  0.
         11    1    3    3    0    0  0.41255402517E+02 -0.19945047503E+02  0.15524995485E+03  0.16187143552E+03  0.00000000000E+00 0. -1.
        -11    1    3    3    0    0 -0.41718102147E+02  0.79801687631E+01  0.82994099315E+02  0.93231452104E+02  0.00000000000E+00 0.  1.
         22    1    1    2    0    0  0.46269962991E+00  0.11964878740E+02  0.42269206864E+02  0.43932428377E+02  0.00000000000E+00 0. -1.
<mgrwt>
<rscale>  0 0.54897262E+02</rscale>
<asrwt>0</asrwt>
<pdfrwt beam="1">  1        1 0.44580653E-01 0.91198980E+02</pdfrwt>
<pdfrwt beam="2">  1       -1 0.14247737E-02 0.91198980E+02</pdfrwt>
<totfact> 0.88643201E+04</totfact>
</mgrwt>
</event>
<event>
 6    1  0.1535419E-002  0.9174721E+02  0.7546771E-02  0.1370676E+00
         -2   -1    0    0    0  501 -0.00000000000E+00  0.00000000000E+00  0.90354316852E+01  0.90354316852E+01  0.00000000000E+00 0.  1.
          2   -1    0    0  501    0  0.00000000000E+00 -0.00000000000E+00 -0.43811075475E+03  0.43811075475E+03  0.00000000000E+00 0. -1.
         23    2    1    2    0    0 -0.22558258130E+02  0.13050414024E+02 -0.38639612801E+03  0.39713916686E+03  0.87967958937E+02 0.  0.
         11    1    3    3    0    0 -0.40897858045E+02 -0.23911145157E+02 -0.25679188943E+03  0.26112535712E+03  0.00000000000E+00 0. -1.
        -11    1    3    3    0    0  0.18339599916E+02  0.36961559181E+02 -0.12960423858E+03  0.13601380974E+03  0.00000000000E+00 0.  1.
         22    1    1    2    0    0  0.22558258130E+02 -0.13050414024E+02 -0.42679195063E+02  0.50007019580E+02  0.00000000000E+00 0.  1.
<mgrwt>
<rscale>  0 0.66979734E+02</rscale>
<asrwt>0</asrwt>
<pdfrwt beam="1">  1        2 0.67401643E-01 0.91747208E+02</pdfrwt>
<pdfrwt beam="2">  1       -2 0.13900666E-02 0.91747208E+02</pdfrwt>
<totfact> 0.82849645E+04</totfact>
</mgrwt>
</event>
<event>
 6    1  0.1535419E-002  0.9252675E+02  0.7546771E-02  0.1405485E+00
          1   -1    0    0  501    0  0.00000000000E+00  0.00000000000E+00  0.22146717781E+03  0.22146717781E+03  0.00000000000E+00 0. -1.
         -1   -1    0    0    0  501 -0.00000000000E+00 -0.00000000000E+00 -0.12933023174E+02  0.12933023174E+02  0.00000000000E+00 0.  1.
         23    2    1    2    0    0 -0.11477655087E+02  0.88569197398E+01  0.18150830139E+03  0.20373135136E+03  0.91383907008E+02 0.  0.
         11    1    3    3    0    0  0.12397527245E+02 -0.93012182502E+01  0.17136882902E+03  0.17206826234E+03  0.00000000000E+00 0. -1.
        -11    1    3    3    0    0 -0.23875182332E+02  0.18158137990E+02  0.10139472367E+02  0.31663089024E+02  0.00000000000E+00 0.  1.
         22    1    1    2    0    0  0.11477655087E+02 -0.88569197398E+01  0.27025853250E+02  0.30668849628E+02  0.00000000000E+00 0. -1.
<mgrwt>
<rscale>  0 0.58213650E+02</rscale>
<asrwt>0</asrwt>
<pdfrwt beam="1">  1        1 0.34071871E-01 0.92526753E+02</pdfrwt>
<pdfrwt beam="2">  1       -1 0.19896960E-02 0.92526753E+02</pdfrwt>
<totfact> 0.76695006E+04</totfact>
</mgrwt>
</event>
<event>
 6    1  0.1535419E-002  0.9133337E+02  0.7546771E-02  0.1392669E+00
         -2   -1    0    0    0  501 -0.00000000000E+00  0.00000000000E+00  0.85358177470E+01  0.85358177470E+01  0.00000000000E+00 0.  1.
          2   -1    0    0  501    0  0.00000000000E+00 -0.00000000000E+00 -0.54750441448E+03  0.54750441448E+03  0.00000000000E+00 0. -1.
         23    2    1    2    0    0  0.10476199316E+02  0.15211738703E+02 -0.52499319466E+03  0.53287863449E+03  0.89446279481E+02 0.  0.
         11    1    3    3    0    0  0.10180266842E+02  0.13733424811E+02 -0.14594286341E+02  0.22477499501E+02  0.00000000000E+00 0.  1.
        -11    1    3    3    0    0  0.29593247410E+00  0.14783138925E+01 -0.51039890832E+03  0.51040113499E+03  0.00000000000E+00 0. -1.
         22    1    1    2    0    0 -0.10476199316E+02 -0.15211738703E+02 -0.13975402072E+02  0.23161597733E+02  0.00000000000E+00 0.  1.
<mgrwt>
<rscale>  0 0.61247720E+02</rscale>
<asrwt>0</asrwt>
<pdfrwt beam="1">  1        2 0.84231492E-01 0.91333371E+02</pdfrwt>
<pdfrwt beam="2">  1       -2 0.13132021E-02 0.91333371E+02</pdfrwt>
<totfact> 0.70598111E+04</totfact>
</mgrwt>
</event>
<event>
 6    1  0.1535419E-002  0.9262089E+02  0.7546771E-02  0.1400578E+00
          1   -1    0    0  501    0  0.00000000000E+00  0.00000000000E+00  0.15427881715E+04  0.15427881715E+04  0.00000000000E+00 0. -1.
         -1   -1    0    0    0  501 -0.00000000000E+00 -0.00000000000E+00 -0.48671842503E+01  0.48671842503E+01  0.00000000000E+00 0.  1.
         23    2    1    2    0    0 -0.89821063102E+01  0.12774188766E+02  0.15237673410E+04  0.15265796865E+04  0.91294970411E+02 0.  0.
         13    1    3    3    0    0  0.11431742508E+02 -0.37850524808E+00  0.23699420234E+02  0.26315214656E+02  0.00000000000E+00 0.  1.
        -13    1    3    3    0    0 -0.20413848818E+02  0.13152694014E+02  0.15000679208E+04  0.15002644718E+04  0.00000000000E+00 0. -1.
         22    1    1    2    0    0  0.89821063102E+01 -0.12774188766E+02  0.14153646283E+02  0.21075669277E+02  0.00000000000E+00 0.  1.
<mgrwt>
<rscale>  0 0.59350431E+02</rscale>
<asrwt>0</asrwt>
<pdfrwt beam="1">  1        1 0.23735164E+00 0.92620893E+02</pdfrwt>
<pdfrwt beam="2">  1       -1 0.74879880E-03 0.92620893E+02</pdfrwt>
<totfact> 0.17993959E+04</totfact>
</mgrwt>
</event>
<event>
 6    1  0.1535419E-002  0.9195313E+02  0.7546771E-02  0.1418985E+00
         -2   -1    0    0    0  501 -0.00000000000E+00  0.00000000000E+00  0.79151636758E+01  0.79151636758E+01  0.00000000000E+00 0.  1.
          2   -1    0    0  501    0  0.00000000000E+00 -0.00000000000E+00 -0.38607768273E+03  0.38607768273E+03  0.00000000000E+00 0. -1.
         23    2    1    2    0    0 -0.75464585972E+01 -0.92952444190E+01 -0.36406120552E+03  0.37549426134E+03  0.91170325903E+02 0.  0.
         13    1    3    3    0    0 -0.25122285082E+02  0.16673172451E+02 -0.40886566317E+02  0.50801921150E+02  0.00000000000E+00 0.  1.
        -13    1    3    3    0    0  0.17575826485E+02 -0.25968416870E+02 -0.32317463921E+03  0.32469234019E+03  0.00000000000E+00 0. -1.
         22    1    1    2    0    0  0.75464585972E+01  0.92952444190E+01 -0.14101313530E+02  0.18498585066E+02  0.00000000000E+00 0. -1.
<mgrwt>
<rscale>  0 0.55236334E+02</rscale>
<asrwt>0</asrwt>
<pdfrwt beam="1">  1        2 0.59396553E-01 0.91953134E+02</pdfrwt>
<pdfrwt beam="2">  1       -2 0.12177178E-02 0.91953134E+02</pdfrwt>
<totfact> 0.11434111E+05</totfact>
</mgrwt>
</event>
<event>
 6    1  0.1535419E-002  0.9054839E+02  0.7546771E-02  0.1427322E+00
         -2   -1    0    0    0  501 -0.00000000000E+00  0.00000000000E+00  0.12372078562E+02  0.12372078562E+02  0.00000000000E+00 0.  1.
          2   -1    0    0  501    0  0.00000000000E+00 -0.00000000000E+00 -0.64948547628E+03  0.64948547628E+03  0.00000000000E+00 0. -1.
         23    2    1    2    0    0 -0.97880249287E+01  0.50982334627E+01 -0.64300361721E+03  0.64934787451E+03  0.89873316236E+02 0.  0.
         13    1    3    3    0    0 -0.24522867579E+02  0.89279302418E+01 -0.52315401342E+02  0.58463494509E+02  0.00000000000E+00 0.  1.
        -13    1    3    3    0    0  0.14734842650E+02 -0.38296967791E+01 -0.59068821586E+03  0.59088438000E+03  0.00000000000E+00 0. -1.
         22    1    1    2    0    0  0.97880249287E+01 -0.50982334627E+01  0.58902194885E+01  0.12509680334E+02  0.00000000000E+00 0.  1.
<mgrwt>
<rscale>  0 0.53501419E+02</rscale>
<asrwt>0</asrwt>
<pdfrwt beam="1">  1        2 0.99920854E-01 0.90548387E+02</pdfrwt>
<pdfrwt beam="2">  1       -2 0.19033965E-02 0.90548387E+02</pdfrwt>
<totfact> 0.34289246E+04</totfact>
</mgrwt>
</event>
<event>
 6    1  0.1535419E-002  0.9043754E+02  0.7546771E-02  0.1431327E+00
         -2   -1    0    0    0  501 -0.00000000000E+00  0.00000000000E+00  0.38566014243E+01  0.38566014243E+01  0.00000000000E+00 0.  1.
          2   -1    0    0  501    0  0.00000000000E+00 -0.00000000000E+00 -0.94649609872E+03  0.94649609872E+03  0.00000000000E+00 0. -1.
         23    2    1    2    0    0 -0.96971653312E+01  0.38231989575E+01 -0.92791705216E+03  0.93231379063E+03  0.89834829781E+02 0.  0.
         13    1    3    3    0    0  0.38160288648E+02 -0.48970634632E+01 -0.53802033444E+03  0.53939416861E+03  0.00000000000E+00 0. -1.
        -13    1    3    3    0    0 -0.47857453979E+02  0.87202624207E+01 -0.38989671772E+03  0.39291962201E+03  0.00000000000E+00 0.  1.
         22    1    1    2    0    0  0.96971653312E+01 -0.38231989575E+01 -0.14722445135E+02  0.18038909515E+02  0.00000000000E+00 0.  1.
<mgrwt>
<rscale>  0 0.52694611E+02</rscale>
<asrwt>0</asrwt>
<pdfrwt beam="1">  1        2 0.14561460E+00 0.90437539E+02</pdfrwt>
<pdfrwt beam="2">  1       -2 0.59332405E-03 0.90437539E+02</pdfrwt>
<totfact> 0.11315372E+05</totfact>
</mgrwt>
</event>
<event>
 6    1  0.1535419E-002  0.9031197E+02  0.7546771E-02  0.1426141E+00
         -2   -1    0    0    0  501 -0.00000000000E+00  0.00000000000E+00  0.26062205266E+01  0.26062205266E+01  0.00000000000E+00 0.  1.
          2   -1    0    0  501    0  0.00000000000E+00 -0.00000000000E+00 -0.11061144674E+04  0.11061144674E+04  0.00000000000E+00 0. -1.
         23    2    1    2    0    0 -0.22493370907E+01 -0.11099285263E+02 -0.10570917295E+04  0.10609425890E+04  0.89599101300E+02 0.  0.
         11    1    3    3    0    0 -0.31868947139E+02  0.54903012810E+01 -0.88184926385E+03  0.88244200793E+03  0.00000000000E+00 0. -1.
        -11    1    3    3    0    0  0.29619610049E+02 -0.16589586544E+02 -0.17524246562E+03  0.17850058106E+03  0.00000000000E+00 0.  1.
         22    1    1    2    0    0  0.22493370907E+01  0.11099285263E+02 -0.46416517372E+02  0.47778098912E+02  0.00000000000E+00 0.  1.
<mgrwt>
<rscale>  0 0.53742482E+02</rscale>
<asrwt>0</asrwt>
<pdfrwt beam="1">  1        2 0.17017131E+00 0.90311974E+02</pdfrwt>
<pdfrwt beam="2">  1       -2 0.40095735E-03 0.90311974E+02</pdfrwt>
<totfact> 0.15827788E+05</totfact>
</mgrwt>
</event>
<event>
 6    1  0.1535419E-002  0.7720311E+02  0.7546771E-02  0.1454224E+00
          2   -1    0    0  501    0  0.00000000000E+00  0.00000000000E+00  0.49277057129E+02  0.49277057129E+02  0.00000000000E+00 0. -1.
         -2   -1    0    0    0  501 -0.00000000000E+00 -0.00000000000E+00 -0.66096918755E+02  0.66096918755E+02  0.00000000000E+00 0.  1.
         23    2    1    2    0    0 -0.36195674397E+01  0.11352545024E+02  0.17399384459E+02  0.79139484725E+02  0.76278030363E+02 0.  0.
         11    1    3    3    0    0  0.17023978870E+02 -0.23906333526E+02  0.23797113637E+02  0.37784007948E+02  0.00000000000E+00 0. -1.
        -11    1    3    3    0    0 -0.20643546309E+02  0.35258878549E+02 -0.63977291785E+01  0.41355476777E+02  0.00000000000E+00 0.  1.
         22    1    1    2    0    0  0.36195674397E+01 -0.11352545024E+02 -0.34219246084E+02  0.36234491159E+02  0.00000000000E+00 0.  1.
<mgrwt>
<rscale>  0 0.48389938E+02</rscale>
<asrwt>0</asrwt>
<pdfrwt beam="1">  1        2 0.75810857E-02 0.77203105E+02</pdfrwt>
<pdfrwt beam="2">  1       -2 0.10168757E-01 0.77203105E+02</pdfrwt>
<totfact> 0.49406893E+04</totfact>
</mgrwt>
</event>
<event>
 6    1  0.1535419E-002  0.9081807E+02  0.7546771E-02  0.1412857E+00
         -2   -1    0    0    0  501 -0.00000000000E+00  0.00000000000E+00  0.20579500529E+01  0.20579500529E+01  0.00000000000E+00 0.  1.
          2   -1    0    0  501    0  0.00000000000E+00 -0.00000000000E+00 -0.35043307335E+04  0.35043307335E+04  0.00000000000E+00 0. -1.
         23    2    1    2    0    0 -0.13497639981E+02 -0.21219655188E+01 -0.34718599985E+04  0.34730476201E+04  0.89784371833E+02 0.  0.
         11    1    3    3    0    0 -0.38356588594E+02  0.41306620676E+01 -0.31263697935E+04  0.31266078066E+04  0.00000000000E+00 0. -1.
        -11    1    3    3    0    0  0.24858948613E+02 -0.62526275864E+01 -0.34549020494E+03  0.34643981351E+03  0.00000000000E+00 0.  1.
         22    1    1    2    0    0  0.13497639981E+02  0.21219655188E+01 -0.30412784986E+02  0.33341063470E+02  0.00000000000E+00 0.  1.
<mgrwt>
<rscale>  0 0.56561258E+02</rscale>
<asrwt>0</asrwt>
<pdfrwt beam="1">  1        2 0.53912522E+00 0.90818073E+02</pdfrwt>
<pdfrwt beam="2">  1       -2 0.31660922E-03 0.90818073E+02</pdfrwt>
<totfact> 0.11220308E+04</totfact>
</mgrwt>
</event>
<event>
 6    1  0.1535419E-002  0.9977179E+02  0.7546771E-02  0.1377178E+00
          2   -1    0    0  501    0  0.00000000000E+00  0.00000000000E+00  0.51312671496E+02  0.51312671496E+02  0.00000000000E+00 0. -1.
         -2   -1    0    0    0  501 -0.00000000000E+00 -0.00000000000E+00 -0.70038010585E+02  0.70038010585E+02  0.00000000000E+00 0.  1.
         23    2    1    2    0    0  0.15756372028E+02  0.91260617694E+01 -0.77092741735E+01  0.10006918897E+03  0.98096184480E+02 0.  0.
         11    1    3    3    0    0  0.10616925796E+01  0.43385392112E+01  0.44958936030E+02  0.45180261648E+02  0.00000000000E+00 0. -1.
        -11    1    3    3    0    0  0.14694679448E+02  0.47875225582E+01 -0.52668210204E+02  0.54888927320E+02  0.00000000000E+00 0.  1.
         22    1    1    2    0    0 -0.15756372028E+02 -0.91260617694E+01 -0.11016064916E+02  0.21281493113E+02  0.00000000000E+00 0. -1.
<mgrwt>
<rscale>  0 0.65211496E+02</rscale>
<asrwt>0</asrwt>
<pdfrwt beam="1">  1        2 0.78942572E-02 0.99771788E+02</pdfrwt>
<pdfrwt beam="2">  1       -2 0.10775079E-01 0.99771788E+02</pdfrwt>
<totfact> 0.44504249E+04</totfact>
</mgrwt>
</event>
<event>
 6    1  0.1535419E-002  0.9569289E+02  0.7546771E-02  0.1399826E+00
         -2   -1    0    0    0  501 -0.00000000000E+00  0.00000000000E+00  0.18119310800E+01  0.18119310800E+01  0.00000000000E+00 0.  1.
          2   -1    0    0  501    0  0.00000000000E+00 -0.00000000000E+00 -0.20756764580E+04  0.20756764580E+04  0.00000000000E+00 0. -1.
         23    2    1    2    0    0  0.12200485076E+02  0.75150904731E+01 -0.19975163558E+04  0.19998071710E+04  0.94613956517E+02 0.  0.
         13    1    3    3    0    0  0.36880462578E+02 -0.87865586204E+01 -0.35394786489E+03  0.35597255961E+03  0.00000000000E+00 0.  1.
        -13    1    3    3    0    0 -0.24679977503E+02  0.16301649093E+02 -0.16435684909E+04  0.16438346113E+04  0.00000000000E+00 0. -1.
         22    1    1    2    0    0 -0.12200485076E+02 -0.75150904731E+01 -0.76348171113E+02  0.77681218149E+02  0.00000000000E+00 0.  1.
<mgrwt>
<rscale>  0 0.59527259E+02</rscale>
<asrwt>0</asrwt>
<pdfrwt beam="1">  1        2 0.31933585E+00 0.95692890E+02</pdfrwt>
<pdfrwt beam="2">  1       -2 0.27875775E-03 0.95692890E+02</pdfrwt>
<totfact> 0.83772155E+04</totfact>
</mgrwt>
</event>
<event>
 6    1  0.1535419E-002  0.9145918E+02  0.7546771E-02  0.1416979E+00
          2   -1    0    0  501    0  0.00000000000E+00  0.00000000000E+00  0.11360974703E+04  0.11360974703E+04  0.00000000000E+00 0. -1.
         -2   -1    0    0    0  501 -0.00000000000E+00 -0.00000000000E+00 -0.25760335043E+01  0.25760335043E+01  0.00000000000E+00 0.  1.
         23    2    1    2    0    0 -0.12368930398E+02  0.21253940079E+01  0.10714260260E+04  0.10753225150E+04  0.90594008442E+02 0.  0.
         13    1    3    3    0    0  0.28712071567E+01  0.24322957622E+02  0.97219066225E+03  0.97249911767E+03  0.00000000000E+00 0. -1.
        -13    1    3    3    0    0 -0.15240137554E+02 -0.22197563614E+02  0.99235363744E+02  0.10282339734E+03  0.00000000000E+00 0.  1.
         22    1    1    2    0    0  0.12368930398E+02 -0.21253940079E+01  0.62095410778E+02  0.63350988774E+02  0.00000000000E+00 0.  1.
<mgrwt>
<rscale>  0 0.55665130E+02</rscale>
<asrwt>0</asrwt>
<pdfrwt beam="1">  1        2 0.17478383E+00 0.91459183E+02</pdfrwt>
<pdfrwt beam="2">  1       -2 0.39631375E-03 0.91459183E+02</pdfrwt>
<totfact> 0.15507402E+05</totfact>
</mgrwt>
</event>
<event>
 6    1  0.1535419E-002  0.9680421E+02  0.7546771E-02  0.1403424E+00
         -2   -1    0    0    0  501 -0.00000000000E+00  0.00000000000E+00  0.98098694695E+01  0.98098694695E+01  0.00000000000E+00 0. -1.
          2   -1    0    0  501    0  0.00000000000E+00 -0.00000000000E+00 -0.30830353421E+03  0.30830353421E+03  0.00000000000E+00 0.  1.
         23    2    1    2    0    0  0.12425793786E+02 -0.40740969540E+01 -0.25816496150E+03  0.27571761471E+03  0.95916928111E+02 0.  0.
         13    1    3    3    0    0 -0.39784304284E+02 -0.73574277026E+01 -0.15301036139E+03  0.15826905352E+03  0.00000000000E+00 0. -1.
        -13    1    3    3    0    0  0.52210098071E+02  0.32833307486E+01 -0.10515460012E+03  0.11744856120E+03  0.00000000000E+00 0.  1.
         22    1    1    2    0    0 -0.12425793786E+02  0.40740969540E+01 -0.40328703235E+02  0.42395788964E+02  0.00000000000E+00 0.  1.
<mgrwt>
<rscale>  0 0.58687387E+02</rscale>
<asrwt>0</asrwt>
<pdfrwt beam="1">  1        2 0.47431303E-01 0.96804213E+02</pdfrwt>
<pdfrwt beam="2">  1       -2 0.15092110E-02 0.96804213E+02</pdfrwt>
<totfact> 0.10743229E+05</totfact>
</mgrwt>
</event>
<event>
 6    1  0.1535419E-002  0.9306429E+02  0.7546771E-02  0.1409344E+00
          2   -1    0    0  501    0  0.00000000000E+00  0.00000000000E+00  0.52429182462E+02  0.52429182462E+02  0.00000000000E+00 0. -1.
         -2   -1    0    0    0  501 -0.00000000000E+00 -0.00000000000E+00 -0.54225740857E+02  0.54225740857E+02  0.00000000000E+00 0.  1.
         23    2    1    2    0    0 -0.12256719584E+02  0.54459739384E+01  0.39364161085E+00  0.93065118937E+02  0.92092755426E+02 0.  0.
         11    1    3    3    0    0 -0.30763832766E+02  0.11118219734E+02 -0.37956275407E+02  0.50106956197E+02  0.00000000000E+00 0.  1.
        -11    1    3    3    0    0  0.18507113182E+02 -0.56722457959E+01  0.38349917018E+02  0.42958162740E+02  0.00000000000E+00 0. -1.
         22    1    1    2    0    0  0.12256719584E+02 -0.54459739384E+01 -0.21902000062E+01  0.13589804383E+02  0.00000000000E+00 0. -1.
<mgrwt>
<rscale>  0 0.57340556E+02</rscale>
<asrwt>0</asrwt>
<pdfrwt beam="1">  1        2 0.80660281E-02 0.93064286E+02</pdfrwt>
<pdfrwt beam="2">  1       -2 0.83424217E-02 0.93064286E+02</pdfrwt>
<totfact> 0.63817300E+04</totfact>
</mgrwt>
</event>
<event>
 6    1  0.1535419E-002  0.9306494E+02  0.7546771E-02  0.1404609E+00
          2   -1    0    0  501    0  0.00000000000E+00  0.00000000000E+00  0.40156315733E+03  0.40156315733E+03  0.00000000000E+00 0. -1.
         -2   -1    0    0    0  501 -0.00000000000E+00 -0.00000000000E+00 -0.13304670539E+02  0.13304670539E+02  0.00000000000E+00 0.  1.
         23    2    1    2    0    0  0.12893097812E+02  0.65138488411E+01  0.38941047252E+03  0.40037682138E+03  0.91937047997E+02 0.  0.
         11    1    3    3    0    0 -0.33758511968E+01 -0.90998331840E+01  0.37137603017E+03  0.37150283865E+03  0.00000000000E+00 0. -1.
        -11    1    3    3    0    0  0.16268949009E+02  0.15613682025E+02  0.18034442344E+02  0.28873982734E+02  0.00000000000E+00 0.  1.
         22    1    1    2    0    0 -0.12893097812E+02 -0.65138488411E+01 -0.11519857267E+01  0.14491006488E+02  0.00000000000E+00 0.  1.
<mgrwt>
<rscale>  0 0.58414417E+02</rscale>
<asrwt>0</asrwt>
<pdfrwt beam="1">  1        2 0.61778938E-01 0.93064940E+02</pdfrwt>
<pdfrwt beam="2">  1       -2 0.20468727E-02 0.93064940E+02</pdfrwt>
<totfact> 0.52315920E+04</totfact>
</mgrwt>
</event>
<event>
 6    1  0.1535419E-002  0.9012697E+02  0.7546771E-02  0.1418811E+00
          4   -1    0    0  501    0  0.00000000000E+00  0.00000000000E+00  0.39491564498E+02  0.39491564498E+02  0.00000000000E+00 0. -1.
         -4   -1    0    0    0  501 -0.00000000000E+00 -0.00000000000E+00 -0.11323527814E+03  0.11323527814E+03  0.00000000000E+00 0.  1.
         23    2    1    2    0    0  0.12365654817E+02  0.31050943138E+01 -0.13480294957E+02  0.91129515900E+02  0.89220621418E+02 0.  0.
         13    1    3    3    0    0 -0.31333431191E+02 -0.18534729850E+02  0.88973828487E+01  0.37476439830E+02  0.00000000000E+00 0. -1.
        -13    1    3    3    0    0  0.43699086008E+02  0.21639824164E+02 -0.22377677806E+02  0.53653076070E+02  0.00000000000E+00 0.  1.
         22    1    1    2    0    0 -0.12365654817E+02 -0.31050943138E+01 -0.60263418681E+02  0.61597326735E+02  0.00000000000E+00 0.  1.
<mgrwt>
<rscale>  0 0.55273223E+02</rscale>
<asrwt>0</asrwt>
<pdfrwt beam="1">  1        4 0.60756254E-02 0.90126968E+02</pdfrwt>
<pdfrwt beam="2">  1       -4 0.17420812E-01 0.90126968E+02</pdfrwt>
<totfact> 0.73237532E+03</totfact>
</mgrwt>
</event>
<event>
 6    1  0.1535419E-002  0.9326705E+02  0.7546771E-02  0.1417123E+00
          2   -1    0    0  501    0  0.00000000000E+00  0.00000000000E+00  0.14806627182E+03  0.14806627182E+03  0.00000000000E+00 0. -1.
         -2   -1    0    0    0  501 -0.00000000000E+00 -0.00000000000E+00 -0.41178901570E+02  0.41178901570E+02  0.00000000000E+00 0.  1.
         23    2    1    2    0    0 -0.71826226449E+01 -0.93724693243E+01  0.13192423683E+03  0.16156344769E+03  0.92516539689E+02 0.  0.
         13    1    3    3    0    0  0.10135453842E+02  0.11958753982E+01  0.13952542371E+03  0.13989818228E+03  0.00000000000E+00 0. -1.
        -13    1    3    3    0    0 -0.17318076487E+02 -0.10568344723E+02 -0.76011868799E+01  0.21665265412E+02  0.00000000000E+00 0.  1.
         22    1    1    2    0    0  0.71826226449E+01  0.93724693243E+01 -0.25036866584E+02  0.27681725699E+02  0.00000000000E+00 0.  1.
<mgrwt>
<rscale>  0 0.55634218E+02</rscale>
<asrwt>0</asrwt>
<pdfrwt beam="1">  1        2 0.22779426E-01 0.93267054E+02</pdfrwt>
<pdfrwt beam="2">  1       -2 0.63352157E-02 0.93267054E+02</pdfrwt>
<totfact> 0.28752784E+04</totfact>
</mgrwt>
</event>
<event>
 6    1  0.1535419E-002  0.1190388E+03  0.7546771E-02  0.1269668E+00
          2   -1    0    0  501    0  0.00000000000E+00  0.00000000000E+00  0.13337727671E+04  0.13337727671E+04  0.00000000000E+00 0. -1.
         -2   -1    0    0    0  501 -0.00000000000E+00 -0.00000000000E+00 -0.69913813353E+01  0.69913813353E+01  0.00000000000E+00 0.  1.
         23    2    1    2    0    0 -0.26377896201E+02 -0.67736661893E+02  0.89967941119E+03  0.90752040011E+03  0.94266563190E+02 0.  0.
         13    1    3    3    0    0  0.33386574671E+01 -0.49715124598E+02  0.17358788920E+03  0.18059760664E+03  0.00000000000E+00 0. -1.
        -13    1    3    3    0    0 -0.29716553668E+02 -0.18021537295E+02  0.72609152199E+03  0.72692279348E+03  0.00000000000E+00 0.  1.
         22    1    1    2    0    0  0.26377896201E+02  0.67736661893E+02  0.42710197460E+03  0.43324374835E+03  0.00000000000E+00 0.  1.
<mgrwt>
<rscale>  0 0.10522943E+03</rscale>
<asrwt>0</asrwt>
<pdfrwt beam="1">  1        2 0.20519561E+00 0.11903879E+03</pdfrwt>
<pdfrwt beam="2">  1       -2 0.10755982E-02 0.11903879E+03</pdfrwt>
<totfact> 0.30448421E+04</totfact>
</mgrwt>
</event>
<event>
 6    1  0.1535419E-002  0.9643289E+02  0.7546771E-02  0.1345458E+00
          2   -1    0    0  501    0  0.00000000000E+00  0.00000000000E+00  0.13592133964E+04  0.13592133964E+04  0.00000000000E+00 0. -1.
         -2   -1    0    0    0  501 -0.00000000000E+00 -0.00000000000E+00 -0.43310531677E+01  0.43310531677E+01  0.00000000000E+00 0.  1.
         23    2    1    2    0    0  0.32096721522E+02  0.12188610390E+02  0.12372976989E+04  0.12410499177E+04  0.90114043049E+02 0.  0.
         11    1    3    3    0    0 -0.29606889859E+02  0.90277169631E+01  0.58964312510E+03  0.59045497929E+03  0.00000000000E+00 0. -1.
        -11    1    3    3    0    0  0.61703611380E+02  0.31608934272E+01  0.64765457381E+03  0.65059493841E+03  0.00000000000E+00 0.  1.
         22    1    1    2    0    0 -0.32096721522E+02 -0.12188610390E+02  0.11758464433E+03  0.12249453187E+03  0.00000000000E+00 0.  1.
<mgrwt>
<rscale>  0 0.74489858E+02</rscale>
<asrwt>0</asrwt>
<pdfrwt beam="1">  1        2 0.20910941E+00 0.96432891E+02</pdfrwt>
<pdfrwt beam="2">  1       -2 0.66631696E-03 0.96432891E+02</pdfrwt>
<totfact> 0.57119498E+04</totfact>
</mgrwt>
</event>
<event>
 6    1  0.1535419E-002  0.9215730E+02  0.7546771E-02  0.1422476E+00
         -4   -1    0    0    0  501 -0.00000000000E+00  0.00000000000E+00  0.18661877992E+03  0.18661877992E+03  0.00000000000E+00 0.  1.
          4   -1    0    0  501    0  0.00000000000E+00 -0.00000000000E+00 -0.18286353420E+02  0.18286353420E+02  0.00000000000E+00 0. -1.
         23    2    1    2    0    0 -0.10589795713E+02 -0.38626153874E+01  0.10136538973E+03  0.13699602066E+03  0.91465315125E+02 0.  0.
         11    1    3    3    0    0 -0.19706181593E+02  0.20945469683E+02 -0.33903184392E+01  0.28957564683E+02  0.00000000000E+00 0. -1.
        -11    1    3    3    0    0  0.91163858797E+01 -0.24808085071E+02  0.10475570816E+03  0.10803845597E+03  0.00000000000E+00 0.  1.
         22    1    1    2    0    0  0.10589795713E+02  0.38626153874E+01  0.66967036771E+02  0.67909112679E+02  0.00000000000E+00 0.  1.
<mgrwt>
<rscale>  0 0.54500430E+02</rscale>
<asrwt>0</asrwt>
<pdfrwt beam="1">  1        4 0.28132853E-02 0.92157297E+02</pdfrwt>
<pdfrwt beam="2">  1       -4 0.28710580E-01 0.92157297E+02</pdfrwt>
<totfact> 0.10074513E+04</totfact>
</mgrwt>
</event>
<event>
 6    1  0.1535419E-002  0.9273875E+02  0.7546771E-02  0.1375849E+00
          2   -1    0    0  501    0  0.00000000000E+00  0.00000000000E+00  0.78182018346E+03  0.78182018346E+03  0.00000000000E+00 0. -1.
         -2   -1    0    0    0  501 -0.00000000000E+00 -0.00000000000E+00 -0.12646363383E+02  0.12646363383E+02  0.00000000000E+00 0.  1.
         23    2    1    2    0    0  0.22831479428E+01  0.23059895960E+02  0.76538893494E+03  0.77098683386E+03  0.89797019410E+02 0.  0.
         11    1    3    3    0    0  0.37211397721E+01 -0.32537508356E+02  0.17941405970E+03  0.18237856548E+03  0.00000000000E+00 0. -1.
        -11    1    3    3    0    0 -0.14379918293E+01  0.55597404316E+02  0.58597487524E+03  0.58860826838E+03  0.00000000000E+00 0.  1.
         22    1    1    2    0    0 -0.22831479428E+01 -0.23059895960E+02  0.37848851397E+01  0.23479712982E+02  0.00000000000E+00 0.  1.
<mgrwt>
<rscale>  0 0.65567685E+02</rscale>
<asrwt>0</asrwt>
<pdfrwt beam="1">  1        2 0.12027999E+00 0.92738753E+02</pdfrwt>
<pdfrwt beam="2">  1       -2 0.19455950E-02 0.92738753E+02</pdfrwt>
<totfact> 0.26789258E+04</totfact>
</mgrwt>
</event>
<event>
 6    1  0.1535419E-002  0.9404376E+02  0.7546771E-02  0.1363804E+00
          3   -1    0    0  501    0  0.00000000000E+00  0.00000000000E+00  0.16364028545E+02  0.16364028545E+02  0.00000000000E+00 0. -1.
         -3   -1    0    0    0  501 -0.00000000000E+00 -0.00000000000E+00 -0.22735287875E+03  0.22735287875E+03  0.00000000000E+00 0.  1.
         23    2    1    2    0    0 -0.11350126313E+02 -0.24637939226E+02 -0.17476719986E+03  0.19846360498E+03  0.90046515417E+02 0.  0.
         11    1    3    3    0    0 -0.25569135696E+02 -0.15719182610E+02 -0.82844447757E+01  0.31136882107E+02  0.00000000000E+00 0. -1.
        -11    1    3    3    0    0  0.14219009382E+02 -0.89187566165E+01 -0.16648275508E+03  0.16732672287E+03  0.00000000000E+00 0.  1.
         22    1    1    2    0    0  0.11350126313E+02  0.24637939226E+02 -0.36221650349E+02  0.45253302317E+02  0.00000000000E+00 0. -1.
<mgrwt>
<rscale>  0 0.68920179E+02</rscale>
<asrwt>0</asrwt>
<pdfrwt beam="1">  1        3 0.25175428E-02 0.94043758E+02</pdfrwt>
<pdfrwt beam="2">  1       -3 0.34977366E-01 0.94043758E+02</pdfrwt>
<totfact> 0.11190251E+04</totfact>
</mgrwt>
</event>
<event>
 6    1  0.1535419E-002  0.1013410E+03  0.7546771E-02  0.1332330E+00
          1   -1    0    0  501    0  0.00000000000E+00  0.00000000000E+00  0.20756965680E+03  0.20756965680E+03  0.00000000000E+00 0. -1.
         -1   -1    0    0    0  501 -0.00000000000E+00 -0.00000000000E+00 -0.23456233579E+02  0.23456233579E+02  0.00000000000E+00 0.  1.
         23    2    1    2    0    0  0.29680195605E+02  0.22346568485E+02  0.14669788094E+03  0.17829823219E+03  0.94285249084E+02 0.  0.
         13    1    3    3    0    0 -0.39812553382E+01  0.32401914068E+02  0.13840303272E+03  0.14220103338E+03  0.00000000000E+00 0. -1.
        -13    1    3    3    0    0  0.33661450944E+02 -0.10055345583E+02  0.82948482175E+01  0.36097198802E+02  0.00000000000E+00 0.  1.
         22    1    1    2    0    0 -0.29680195605E+02 -0.22346568485E+02  0.37415542284E+02  0.52727658194E+02  0.00000000000E+00 0. -1.
<mgrwt>
<rscale>  0 0.78856011E+02</rscale>
<asrwt>0</asrwt>
<pdfrwt beam="1">  1        1 0.31933792E-01 0.10134097E+03</pdfrwt>
<pdfrwt beam="2">  1       -1 0.36086515E-02 0.10134097E+03</pdfrwt>
<totfact> 0.35682635E+04</totfact>
</mgrwt>
</event>
<event>
 6    1  0.1535419E-002  0.1144817E+03  0.7546771E-02  0.1292887E+00
          2   -1    0    0  501    0  0.00000000000E+00  0.00000000000E+00  0.10142930346E+03  0.10142930346E+03  0.00000000000E+00 0. -1.
         -2   -1    0    0    0  501 -0.00000000000E+00 -0.00000000000E+00 -0.94957166154E+02  0.94957166154E+02  0.00000000000E+00 0.  1.
         23    2    1    2    0    0 -0.66766178061E+01 -0.52153456429E+02 -0.44810774580E+02  0.12293922804E+03  0.10169310709E+03 0.  0.
         11    1    3    3    0    0  0.28698720163E+02  0.55404201980E+01  0.14792418739E+02  0.32758639274E+02  0.00000000000E+00 0. -1.
        -11    1    3    3    0    0 -0.35375337969E+02 -0.57693876627E+02 -0.59603193320E+02  0.90180588768E+02  0.00000000000E+00 0.  1.
         22    1    1    2    0    0  0.66766178061E+01  0.52153456429E+02  0.51282911885E+02  0.73447241570E+02  0.00000000000E+00 0. -1.
<mgrwt>
<rscale>  0 0.94244316E+02</rscale>
<asrwt>0</asrwt>
<pdfrwt beam="1">  1        2 0.15604508E-01 0.11448165E+03</pdfrwt>
<pdfrwt beam="2">  1       -2 0.14608795E-01 0.11448165E+03</pdfrwt>
<totfact> 0.12251364E+04</totfact>
</mgrwt>
</event>
<event>
 6    1  0.1535419E-002  0.9496290E+02  0.7546771E-02  0.1341500E+00
          4   -1    0    0  501    0  0.00000000000E+00  0.00000000000E+00  0.12969702899E+04  0.12969702899E+04  0.00000000000E+00 0. -1.
         -4   -1    0    0    0  501 -0.00000000000E+00 -0.00000000000E+00 -0.47048434058E+01  0.47048434058E+01  0.00000000000E+00 0.  1.
         23    2    1    2    0    0 -0.39289239533E+01  0.38288946931E+02  0.11611546048E+04  0.11650313164E+04  0.86812855875E+02 0.  0.
         13    1    3    3    0    0  0.18654079545E+02  0.39400623681E+02  0.26271568512E+03  0.26630793273E+03  0.00000000000E+00 0.  1.
        -13    1    3    3    0    0 -0.22583003498E+02 -0.11116767493E+01  0.89843891969E+03  0.89872338363E+03  0.00000000000E+00 0. -1.
         22    1    1    2    0    0  0.39289239533E+01 -0.38288946931E+02  0.13111084171E+03  0.13664381696E+03  0.00000000000E+00 0.  1.
<mgrwt>
<rscale>  0 0.75770899E+02</rscale>
<asrwt>0</asrwt>
<pdfrwt beam="1">  1        4 0.19953361E+00 0.94962897E+02</pdfrwt>
<pdfrwt beam="2">  1       -4 0.72382309E-03 0.94962897E+02</pdfrwt>
<totfact> 0.10834518E+03</totfact>
</mgrwt>
</event>
<event>
 6    1  0.1535419E-002  0.6057613E+02  0.7546771E-02  0.1517161E+00
         -1   -1    0    0    0  501 -0.00000000000E+00  0.00000000000E+00  0.32418402158E+02  0.32418402158E+02  0.00000000000E+00 0. -1.
          1   -1    0    0  501    0  0.00000000000E+00 -0.00000000000E+00 -0.38654176546E+02  0.38654176546E+02  0.00000000000E+00 0.  1.
         23    2    1    2    0    0  0.92912533088E+01 -0.42223284501E+01 -0.47931504900E+01  0.60765464205E+02  0.59710232816E+02 0.  0.
         11    1    3    3    0    0  0.11495904253E+02  0.17569784539E+02  0.19077080659E+02  0.28368788304E+02  0.00000000000E+00 0. -1.
        -11    1    3    3    0    0 -0.22046509447E+01 -0.21792112989E+02 -0.23870231149E+02  0.32396675901E+02  0.00000000000E+00 0.  1.
         22    1    1    2    0    0 -0.92912533088E+01  0.42223284501E+01 -0.14426238980E+01  0.10307114499E+02  0.00000000000E+00 0. -1.
<mgrwt>
<rscale>  0 0.38809351E+02</rscale>
<asrwt>0</asrwt>
<pdfrwt beam="1">  1        1 0.59467964E-02 0.60576129E+02</pdfrwt>
<pdfrwt beam="2">  1       -1 0.49874465E-02 0.60576129E+02</pdfrwt>
<totfact> 0.17617126E+05</totfact>
</mgrwt>
</event>
<event>
 6    1  0.1535419E-002  0.9539208E+02  0.7546771E-02  0.1370033E+00
         -2   -1    0    0    0  501 -0.00000000000E+00  0.00000000000E+00  0.98845290680E+01  0.98845290680E+01  0.00000000000E+00 0.  1.
          2   -1    0    0  501    0  0.00000000000E+00 -0.00000000000E+00 -0.42108093130E+03  0.42108093130E+03  0.00000000000E+00 0. -1.
         23    2    1    2    0    0 -0.12809515539E+02  0.19623793795E+02 -0.38090053047E+03  0.39266380483E+03  0.92468765206E+02 0.  0.
         11    1    3    3    0    0  0.22126878471E+02  0.13013989343E+02 -0.32752638533E+03  0.32853081402E+03  0.00000000000E+00 0. -1.
        -11    1    3    3    0    0 -0.34936394010E+02  0.66098044525E+01 -0.53374145140E+02  0.64132990814E+02  0.00000000000E+00 0.  1.
         22    1    1    2    0    0  0.12809515539E+02 -0.19623793795E+02 -0.30295871763E+02  0.38301655540E+02  0.00000000000E+00 0. -1.
<mgrwt>
<rscale>  0 0.67158083E+02</rscale>
<asrwt>0</asrwt>
<pdfrwt beam="1">  1        2 0.64781683E-01 0.95392083E+02</pdfrwt>
<pdfrwt beam="2">  1       -2 0.15206967E-02 0.95392083E+02</pdfrwt>
<totfact> 0.76423653E+04</totfact>
</mgrwt>
</event>
<event>
 6    1  0.1535419E-002  0.9456370E+02  0.7546771E-02  0.1413930E+00
         -2   -1    0    0    0  501 -0.00000000000E+00  0.00000000000E+00  0.35690293280E+01  0.35690293280E+01  0.00000000000E+00 0.  1.
          2   -1    0    0  501    0  0.00000000000E+00 -0.00000000000E+00 -0.80256833694E+03  0.80256833694E+03  0.00000000000E+00 0. -1.
         23    2    1    2    0    0 -0.11343228805E+02  0.36081115080E+01 -0.73281996344E+03  0.73889606272E+03  0.93811541786E+02 0.  0.
         11    1    3    3    0    0  0.18939267652E+02 -0.36334962062E+02 -0.23363600009E+03  0.23720182518E+03  0.00000000000E+00 0.  1.
        -11    1    3    3    0    0 -0.30282496457E+02  0.39943073570E+02 -0.49918396335E+03  0.50169423754E+03  0.00000000000E+00 0. -1.
         22    1    1    2    0    0  0.11343228805E+02 -0.36081115080E+01 -0.66179344167E+02  0.67241303548E+02  0.00000000000E+00 0.  1.
<mgrwt>
<rscale>  0 0.56326102E+02</rscale>
<asrwt>0</asrwt>
<pdfrwt beam="1">  1        2 0.12347195E+00 0.94563696E+02</pdfrwt>
<pdfrwt beam="2">  1       -2 0.54908191E-03 0.94563696E+02</pdfrwt>
<totfact> 0.15646022E+05</totfact>
</mgrwt>
</event>
<event>
 6    1  0.1535419E-002  0.9331804E+02  0.7546771E-02  0.1384148E+00
          4   -1    0    0  501    0  0.00000000000E+00  0.00000000000E+00  0.26009275670E+03  0.26009275670E+03  0.00000000000E+00 0. -1.
         -4   -1    0    0    0  501 -0.00000000000E+00 -0.00000000000E+00 -0.26872186519E+02  0.26872186519E+02  0.00000000000E+00 0.  1.
         23    2    1    2    0    0  0.12822825216E+02  0.15171189322E+02  0.24616227930E+03  0.26325676601E+03  0.91179313827E+02 0.  0.
         13    1    3    3    0    0  0.10639907231E+02  0.41413369797E+02  0.52023861700E+02  0.67340604467E+02  0.00000000000E+00 0.  1.
        -13    1    3    3    0    0  0.21829179850E+01 -0.26242180475E+02  0.19413841760E+03  0.19591616154E+03  0.00000000000E+00 0. -1.
         22    1    1    2    0    0 -0.12822825216E+02 -0.15171189322E+02 -0.12941709112E+02  0.23708177211E+02  0.00000000000E+00 0.  1.
<mgrwt>
<rscale>  0 0.63385870E+02</rscale>
<asrwt>0</asrwt>
<pdfrwt beam="1">  1        4 0.40014269E-01 0.93318043E+02</pdfrwt>
<pdfrwt beam="2">  1       -4 0.41341827E-02 0.93318043E+02</pdfrwt>
<totfact> 0.29419433E+03</totfact>
</mgrwt>
</event>
<event>
 6    1  0.1535419E-002  0.9681801E+02  0.7546771E-02  0.1350517E+00
         -2   -1    0    0    0  501 -0.00000000000E+00  0.00000000000E+00  0.15874564935E+02  0.15874564935E+02  0.00000000000E+00 0.  1.
          2   -1    0    0  501    0  0.00000000000E+00 -0.00000000000E+00 -0.25843033712E+03  0.25843033712E+03  0.00000000000E+00 0. -1.
         23    2    1    2    0    0 -0.13564417406E+02  0.27998203684E+02 -0.17730151896E+03  0.20201375188E+03  0.91683338157E+02 0.  0.
         11    1    3    3    0    0 -0.35972015565E+02 -0.52021775916E+01 -0.14796851988E+03  0.15236709432E+03  0.00000000000E+00 0. -1.
        -11    1    3    3    0    0  0.22407598159E+02  0.33200381276E+02 -0.29332999072E+02  0.49646657558E+02  0.00000000000E+00 0.  1.
         22    1    1    2    0    0  0.13564417406E+02 -0.27998203684E+02 -0.65254253232E+02  0.72291150178E+02  0.00000000000E+00 0. -1.
<mgrwt>
<rscale>  0 0.72894629E+02</rscale>
<asrwt>0</asrwt>
<pdfrwt beam="1">  1        2 0.39758512E-01 0.96818011E+02</pdfrwt>
<pdfrwt beam="2">  1       -2 0.24422409E-02 0.96818011E+02</pdfrwt>
<totfact> 0.64707222E+04</totfact>
</mgrwt>
</event>
<event>
 6    1  0.1535419E-002  0.9522062E+02  0.7546771E-02  0.1382141E+00
          2   -1    0    0  501    0  0.00000000000E+00  0.00000000000E+00  0.36489665764E+03  0.36489665764E+03  0.00000000000E+00 0.  1.
         -2   -1    0    0    0  501 -0.00000000000E+00 -0.00000000000E+00 -0.89981590376E+01  0.89981590376E+01  0.00000000000E+00 0. -1.
         23    2    1    2    0    0 -0.16254743182E+02 -0.10436243243E+02  0.30044749211E+03  0.31517560372E+03  0.93240730468E+02 0.  0.
         11    1    3    3    0    0 -0.42594651181E+02 -0.19501476670E+02  0.26948490091E+03  0.27352645890E+03  0.00000000000E+00 0.  1.
        -11    1    3    3    0    0  0.26339907999E+02  0.90652334270E+01  0.30962591202E+02  0.41649144822E+02  0.00000000000E+00 0. -1.
         22    1    1    2    0    0  0.16254743182E+02  0.10436243243E+02  0.55451006492E+02  0.58719212954E+02  0.00000000000E+00 0. -1.
<mgrwt>
<rscale>  0 0.63904439E+02</rscale>
<asrwt>0</asrwt>
<pdfrwt beam="1">  1        2 0.56137936E-01 0.95220616E+02</pdfrwt>
<pdfrwt beam="2">  1       -2 0.13843324E-02 0.95220616E+02</pdfrwt>
<totfact> 0.10160216E+05</totfact>
</mgrwt>
</event>
<event>
 6    1  0.1535419E-002  0.9093469E+02  0.7546771E-02  0.1402623E+00
          4   -1    0    0  501    0  0.00000000000E+00  0.00000000000E+00  0.27838843136E+02  0.27838843136E+02  0.00000000000E+00 0. -1.
         -4   -1    0    0    0  501 -0.00000000000E+00 -0.00000000000E+00 -0.14116346241E+03  0.14116346241E+03  0.00000000000E+00 0.  1.
         23    2    1    2    0    0 -0.73392856147E+01 -0.14190863956E+02 -0.50166210293E+02  0.10385454766E+03  0.89520236151E+02 0.  0.
         11    1    3    3    0    0 -0.40324718828E+02 -0.28181104179E+02 -0.46743580147E+02  0.67861770285E+02  0.00000000000E+00 0.  1.
        -11    1    3    3    0    0  0.32985433213E+02  0.13990240223E+02 -0.34226301459E+01  0.35992777371E+02  0.00000000000E+00 0. -1.
         22    1    1    2    0    0  0.73392856147E+01  0.14190863956E+02 -0.63158408977E+02  0.65147757887E+02  0.00000000000E+00 0.  1.
<mgrwt>
<rscale>  0 0.58873115E+02</rscale>
<asrwt>0</asrwt>
<pdfrwt beam="1">  1        4 0.42828989E-02 0.90934693E+02</pdfrwt>
<pdfrwt beam="2">  1       -4 0.21717456E-01 0.90934693E+02</pdfrwt>
<totfact> 0.86693185E+03</totfact>
</mgrwt>
</event>
<event>
 6    1  0.1535419E-002  0.9735851E+02  0.7546771E-02  0.1393886E+00
         -2   -1    0    0    0  501 -0.00000000000E+00  0.00000000000E+00  0.12214505569E+02  0.12214505569E+02  0.00000000000E+00 0.  1.
          2   -1    0    0  501    0  0.00000000000E+00 -0.00000000000E+00 -0.61327510918E+03  0.61327510918E+03  0.00000000000E+00 0. -1.
         23    2    1    2    0    0  0.11540473774E+02 -0.95113849894E+01 -0.60263808212E+03  0.61045174861E+03  0.96203068486E+02 0.  0.
         11    1    3    3    0    0  0.51750060363E+02  0.66112302854E+01 -0.26894958726E+03  0.27396287632E+03  0.00000000000E+00 0.  1.
        -11    1    3    3    0    0 -0.40209586590E+02 -0.16122615275E+02 -0.33368849486E+03  0.33648887230E+03  0.00000000000E+00 0. -1.
         22    1    1    2    0    0 -0.11540473774E+02  0.95113849894E+01  0.15774785110E+01  0.15037866131E+02  0.00000000000E+00 0.  1.
<mgrwt>
<rscale>  0 0.60950364E+02</rscale>
<asrwt>0</asrwt>
<pdfrwt beam="1">  1        2 0.94350042E-01 0.97358509E+02</pdfrwt>
<pdfrwt beam="2">  1       -2 0.18791542E-02 0.97358509E+02</pdfrwt>
<totfact> 0.37573124E+04</totfact>
</mgrwt>
</event>
<event>
 6    1  0.1535419E-002  0.9668602E+02  0.7546771E-02  0.1351967E+00
          2   -1    0    0  501    0  0.00000000000E+00  0.00000000000E+00  0.29539740972E+03  0.29539740972E+03  0.00000000000E+00 0. -1.
         -2   -1    0    0    0  501 -0.00000000000E+00 -0.00000000000E+00 -0.21505461480E+02  0.21505461480E+02  0.00000000000E+00 0.  1.
         23    2    1    2    0    0  0.24149589303E+02 -0.18591461682E+02  0.95402391289E+02  0.13583004869E+03  0.91756965691E+02 0.  0.
         13    1    3    3    0    0  0.14165547642E+02 -0.52308271842E+02  0.30945957495E+02  0.62405691474E+02  0.00000000000E+00 0. -1.
        -13    1    3    3    0    0  0.99840416611E+01  0.33716810160E+02  0.64456433795E+02  0.73424357218E+02  0.00000000000E+00 0.  1.
         22    1    1    2    0    0 -0.24149589303E+02  0.18591461682E+02  0.17848955695E+03  0.18107282251E+03  0.00000000000E+00 0.  1.
<mgrwt>
<rscale>  0 0.72446209E+02</rscale>
<asrwt>0</asrwt>
<pdfrwt beam="1">  1        2 0.45445752E-01 0.96686017E+02</pdfrwt>
<pdfrwt beam="2">  1       -2 0.33085328E-02 0.96686017E+02</pdfrwt>
<totfact> 0.36165640E+04</totfact>
</mgrwt>
</event>
<event>
 6    1  0.1535419E-002  0.9535630E+02  0.7546771E-02  0.1354056E+00
         -4   -1    0    0    0  501 -0.00000000000E+00  0.00000000000E+00  0.70976589992E+02  0.70976589992E+02  0.00000000000E+00 0. -1.
          4   -1    0    0  501    0  0.00000000000E+00 -0.00000000000E+00 -0.58746365726E+02  0.58746365726E+02  0.00000000000E+00 0.  1.
         23    2    1    2    0    0  0.16431656630E+02 -0.25887567952E+02  0.21382042527E+02  0.97724185561E+02  0.90292077099E+02 0.  0.
         13    1    3    3    0    0  0.53460803693E+02 -0.16042653065E+02  0.20301582878E+02  0.59393421489E+02  0.00000000000E+00 0. -1.
        -13    1    3    3    0    0 -0.37029147062E+02 -0.98449148870E+01  0.10804596493E+01  0.38330764072E+02  0.00000000000E+00 0.  1.
         22    1    1    2    0    0 -0.16431656630E+02  0.25887567952E+02 -0.91518182609E+01  0.31998770157E+02  0.00000000000E+00 0. -1.
<mgrwt>
<rscale>  0 0.71806308E+02</rscale>
<asrwt>0</asrwt>
<pdfrwt beam="1">  1        4 0.90379024E-02 0.95356304E+02</pdfrwt>
<pdfrwt beam="2">  1       -4 0.10919475E-01 0.95356304E+02</pdfrwt>
<totfact> 0.86802712E+03</totfact>
</mgrwt>
</event>
<event>
 6    1  0.1535419E-002  0.9259357E+02  0.7546771E-02  0.1394633E+00
          2   -1    0    0  501    0  0.00000000000E+00  0.00000000000E+00  0.13041779701E+04  0.13041779701E+04  0.00000000000E+00 0. -1.
         -2   -1    0    0    0  501 -0.00000000000E+00 -0.00000000000E+00 -0.26788099333E+01  0.26788099333E+01  0.00000000000E+00 0.  1.
         23    2    1    2    0    0 -0.32742668036E+01 -0.16863450872E+02  0.12229927065E+04  0.12264928573E+04  0.90986110121E+02 0.  0.
         11    1    3    3    0    0  0.26774506722E+02 -0.23433498765E+02  0.10615507756E+04  0.10621469071E+04  0.00000000000E+00 0. -1.
        -11    1    3    3    0    0 -0.30048773526E+02  0.65700478934E+01  0.16144193087E+03  0.16434595025E+03  0.00000000000E+00 0.  1.
         22    1    1    2    0    0  0.32742668036E+01  0.16863450872E+02  0.78506453748E+02  0.80363922742E+02  0.00000000000E+00 0. -1.
<mgrwt>
<rscale>  0 0.60768873E+02</rscale>
<asrwt>0</asrwt>
<pdfrwt beam="1">  1        2 0.20064226E+00 0.92593569E+02</pdfrwt>
<pdfrwt beam="2">  1       -2 0.41212565E-03 0.92593569E+02</pdfrwt>
<totfact> 0.11929252E+05</totfact>
</mgrwt>
</event>
<event>
 6    1  0.1535419E-002  0.9292244E+02  0.7546771E-02  0.1384982E+00
         -2   -1    0    0    0  501 -0.00000000000E+00  0.00000000000E+00  0.12038885246E+02  0.12038885246E+02  0.00000000000E+00 0.  1.
          2   -1    0    0  501    0  0.00000000000E+00 -0.00000000000E+00 -0.27061483625E+03  0.27061483625E+03  0.00000000000E+00 0. -1.
         23    2    1    2    0    0 -0.10781030486E+02 -0.16665991460E+02 -0.22790306814E+03  0.24611864749E+03  0.90777719091E+02 0.  0.
         11    1    3    3    0    0 -0.41256401111E+02 -0.37443113886E+02 -0.14701839811E+03  0.15722113978E+03  0.00000000000E+00 0.  1.
        -11    1    3    3    0    0  0.30475370625E+02  0.20777122426E+02 -0.80884670037E+02  0.88897507715E+02  0.00000000000E+00 0. -1.
         22    1    1    2    0    0  0.10781030486E+02  0.16665991460E+02 -0.30672882858E+02  0.36535074004E+02  0.00000000000E+00 0. -1.
<mgrwt>
<rscale>  0 0.63172133E+02</rscale>
<asrwt>0</asrwt>
<pdfrwt beam="1">  1        2 0.41633048E-01 0.92922442E+02</pdfrwt>
<pdfrwt beam="2">  1       -2 0.18521364E-02 0.92922442E+02</pdfrwt>
<totfact> 0.91303021E+04</totfact>
</mgrwt>
</event>
<event>
 6    1  0.1535419E-002  0.7547990E+02  0.7546771E-02  0.1457871E+00
         -2   -1    0    0    0  501 -0.00000000000E+00  0.00000000000E+00  0.97658186684E+02  0.97658186684E+02  0.00000000000E+00 0.  1.
          2   -1    0    0  501    0  0.00000000000E+00 -0.00000000000E+00 -0.39981884475E+02  0.39981884475E+02  0.00000000000E+00 0. -1.
         23    2    1    2    0    0  0.99656787223E+01  0.68432524172E+01  0.81402460646E+02  0.11101160049E+03  0.74505503071E+02 0.  0.
         13    1    3    3    0    0  0.79921977352E+01  0.32642198208E+02  0.99954386425E+01  0.35061333718E+02  0.00000000000E+00 0. -1.
        -13    1    3    3    0    0  0.19734809871E+01 -0.25798945790E+02  0.71407022003E+02  0.75950266770E+02  0.00000000000E+00 0.  1.
         22    1    1    2    0    0 -0.99656787223E+01 -0.68432524172E+01 -0.23726158437E+02  0.26628470670E+02  0.00000000000E+00 0. -1.
<mgrwt>
<rscale>  0 0.47749784E+02</rscale>
<asrwt>0</asrwt>
<pdfrwt beam="1">  1        2 0.61510592E-02 0.75479897E+02</pdfrwt>
<pdfrwt beam="2">  1       -2 0.15024336E-01 0.75479897E+02</pdfrwt>
<totfact> 0.34539705E+04</totfact>
</mgrwt>
</event>
<event>
 6    1  0.1535419E-002  0.9284578E+02  0.7546771E-02  0.1419943E+00
          2   -1    0    0  501    0  0.00000000000E+00  0.00000000000E+00  0.13419565857E+02  0.13419565857E+02  0.00000000000E+00 0. -1.
         -2   -1    0    0    0  501 -0.00000000000E+00 -0.00000000000E+00 -0.21996199551E+03  0.21996199551E+03  0.00000000000E+00 0.  1.
         23    2    1    2    0    0  0.11143726668E+02  0.26761703432E+01 -0.15585131476E+03  0.18141105376E+03  0.92135734559E+02 0.  0.
         11    1    3    3    0    0  0.49695180779E+02 -0.11456314930E+02 -0.74479295747E+02  0.90266403714E+02  0.00000000000E+00 0. -1.
        -11    1    3    3    0    0 -0.38551454111E+02  0.14132485274E+02 -0.81372019011E+02  0.91144650047E+02  0.00000000000E+00 0.  1.
         22    1    1    2    0    0 -0.11143726668E+02 -0.26761703432E+01 -0.50691114896E+02  0.51970507609E+02  0.00000000000E+00 0.  1.
<mgrwt>
<rscale>  0 0.55032990E+02</rscale>
<asrwt>0</asrwt>
<pdfrwt beam="1">  1        2 0.20645488E-02 0.92845776E+02</pdfrwt>
<pdfrwt beam="2">  1       -2 0.33840304E-01 0.92845776E+02</pdfrwt>
<totfact> 0.37239750E+04</totfact>
</mgrwt>
</event>
<event>
 6    1  0.1535419E-002  0.9461346E+02  0.7546771E-02  0.1376502E+00
         -2   -1    0    0    0  501 -0.00000000000E+00  0.00000000000E+00  0.12892602353E+02  0.12892602353E+02  0.00000000000E+00 0.  1.
          2   -1    0    0  501    0  0.00000000000E+00 -0.00000000000E+00 -0.12185891113E+04  0.12185891113E+04  0.00000000000E+00 0. -1.
         23    2    1    2    0    0  0.33188787465E+01 -0.21332963848E+02 -0.12061816049E+04  0.12098866767E+04  0.92117295331E+02 0.  0.
         11    1    3    3    0    0  0.24171326808E+02 -0.17031816391E+01 -0.10885315927E+04  0.10888012593E+04  0.00000000000E+00 0. -1.
        -11    1    3    3    0    0 -0.20852448062E+02 -0.19629782209E+02 -0.11765001222E+03  0.12108541743E+03  0.00000000000E+00 0.  1.
         22    1    1    2    0    0 -0.33188787465E+01  0.21332963848E+02  0.48509598014E+00  0.21595036948E+02  0.00000000000E+00 0.  1.
<mgrwt>
<rscale>  0 0.65392174E+02</rscale>
<asrwt>0</asrwt>
<pdfrwt beam="1">  1        2 0.18747529E+00 0.94613458E+02</pdfrwt>
<pdfrwt beam="2">  1       -2 0.19834768E-02 0.94613458E+02</pdfrwt>
<totfact> 0.14366598E+04</totfact>
</mgrwt>
</event>
<event>
 6    1  0.1535419E-002  0.9794232E+02  0.7546771E-02  0.1337250E+00
          2   -1    0    0  501    0  0.00000000000E+00  0.00000000000E+00  0.36496462149E+03  0.36496462149E+03  0.00000000000E+00 0. -1.
         -2   -1    0    0    0  501 -0.00000000000E+00 -0.00000000000E+00 -0.13733229871E+02  0.13733229871E+02  0.00000000000E+00 0.  1.
         23    2    1    2    0    0  0.45775766288E+01  0.37487955863E+02  0.29604681657E+03  0.31182754131E+03  0.90368118698E+02 0.  0.
         11    1    3    3    0    0  0.28834095938E+02  0.36203656394E+02  0.27732190429E+03  0.28115751533E+03  0.00000000000E+00 0. -1.
        -11    1    3    3    0    0 -0.24256519310E+02  0.12842994686E+01  0.18724912280E+02  0.30670025987E+02  0.00000000000E+00 0.  1.
         22    1    1    2    0    0 -0.45775766288E+01 -0.37487955863E+02  0.55184575045E+02  0.66870310045E+02  0.00000000000E+00 0.  1.
<mgrwt>
<rscale>  0 0.77179896E+02</rscale>
<asrwt>0</asrwt>
<pdfrwt beam="1">  1        2 0.56148396E-01 0.97942319E+02</pdfrwt>
<pdfrwt beam="2">  1       -2 0.21128049E-02 0.97942319E+02</pdfrwt>
<totfact> 0.55629313E+04</totfact>
</mgrwt>
</event>
<event>
 6    1  0.1535419E-002  0.9507390E+02  0.7546771E-02  0.1355703E+00
          4   -1    0    0  501    0  0.00000000000E+00  0.00000000000E+00  0.19321321426E+03  0.19321321426E+03  0.00000000000E+00 0. -1.
         -4   -1    0    0    0  501 -0.00000000000E+00 -0.00000000000E+00 -0.20304876812E+02  0.20304876812E+02  0.00000000000E+00 0.  1.
         23    2    1    2    0    0  0.28986522342E+02  0.80556287756E+01  0.12741643823E+03  0.15897797257E+03  0.90188332932E+02 0.  0.
         13    1    3    3    0    0 -0.10290859230E+02 -0.35131243973E+02  0.52499238927E+02  0.64002157578E+02  0.00000000000E+00 0. -1.
        -13    1    3    3    0    0  0.39277381571E+02  0.43186872749E+02  0.74917199305E+02  0.94975814988E+02  0.00000000000E+00 0.  1.
         22    1    1    2    0    0 -0.28986522342E+02 -0.80556287756E+01  0.45491899215E+02  0.54540118506E+02  0.00000000000E+00 0. -1.
<mgrwt>
<rscale>  0 0.71307262E+02</rscale>
<asrwt>0</asrwt>
<pdfrwt beam="1">  1        4 0.29725109E-01 0.95073903E+02</pdfrwt>
<pdfrwt beam="2">  1       -4 0.31238273E-02 0.95073903E+02</pdfrwt>
<totfact> 0.80975051E+03</totfact>
</mgrwt>
</event>
<event>
 6    1  0.1535419E-002  0.9232768E+02  0.7546771E-02  0.1411515E+00
          2   -1    0    0  501    0  0.00000000000E+00  0.00000000000E+00  0.54974834545E+03  0.54974834545E+03  0.00000000000E+00 0. -1.
         -2   -1    0    0    0  501 -0.00000000000E+00 -0.00000000000E+00 -0.50842114506E+01  0.50842114506E+01  0.00000000000E+00 0.  1.
         23    2    1    2    0    0  0.10762104353E+02  0.77774885808E+01  0.48482223447E+03  0.49353520657E+03  0.91367876549E+02 0.  0.
         13    1    3    3    0    0  0.24933800120E+02 -0.36770032522E+02  0.19751918641E+03  0.20245384334E+03  0.00000000000E+00 0.  1.
        -13    1    3    3    0    0 -0.14171695767E+02  0.44547521103E+02  0.28730304806E+03  0.29108136323E+03  0.00000000000E+00 0. -1.
         22    1    1    2    0    0 -0.10762104353E+02 -0.77774885808E+01  0.59841899523E+02  0.61297350328E+02  0.00000000000E+00 0. -1.
<mgrwt>
<rscale>  0 0.56857041E+02</rscale>
<asrwt>0</asrwt>
<pdfrwt beam="1">  1        2 0.84576621E-01 0.92327683E+02</pdfrwt>
<pdfrwt beam="2">  1       -2 0.78218681E-03 0.92327683E+02</pdfrwt>
<totfact> 0.14662668E+05</totfact>
</mgrwt>
</event>
<event>
 6    1  0.1535419E-002  0.9242158E+02  0.7546771E-02  0.1394543E+00
          2   -1    0    0  501    0  0.00000000000E+00  0.00000000000E+00  0.20921440628E+03  0.20921440628E+03  0.00000000000E+00 0. -1.
         -2   -1    0    0    0  501 -0.00000000000E+00 -0.00000000000E+00 -0.30714560190E+02  0.30714560190E+02  0.00000000000E+00 0.  1.
         23    2    1    2    0    0  0.10889005339E+02 -0.13442451811E+02  0.19514357945E+03  0.21592305452E+03  0.90788099029E+02 0.  0.
         11    1    3    3    0    0  0.57898539572E+01  0.10727824040E+02 -0.57766958121E+01  0.13489953002E+02  0.00000000000E+00 0.  1.
        -11    1    3    3    0    0  0.50991513818E+01 -0.24170275851E+02  0.20092027526E+03  0.20243310152E+03  0.00000000000E+00 0. -1.
         22    1    1    2    0    0 -0.10889005339E+02  0.13442451811E+02 -0.16643733364E+02  0.24005911944E+02  0.00000000000E+00 0. -1.
<mgrwt>
<rscale>  0 0.60790811E+02</rscale>
<asrwt>0</asrwt>
<pdfrwt beam="1">  1        2 0.32186831E-01 0.92421582E+02</pdfrwt>
<pdfrwt beam="2">  1       -2 0.47253171E-02 0.92421582E+02</pdfrwt>
<totfact> 0.30624166E+04</totfact>
</mgrwt>
</event>
<event>
 6    1  0.1535419E-002  0.9635990E+02  0.7546771E-02  0.1346961E+00
         -4   -1    0    0    0  501 -0.00000000000E+00  0.00000000000E+00  0.15824331912E+03  0.15824331912E+03  0.00000000000E+00 0.  1.
          4   -1    0    0  501    0  0.00000000000E+00 -0.00000000000E+00 -0.32966755967E+02  0.32966755967E+02  0.00000000000E+00 0. -1.
         23    2    1    2    0    0  0.21902783133E+01 -0.33463585802E+02  0.49469140954E+02  0.10831632288E+03  0.90336155566E+02 0.  0.
         11    1    3    3    0    0 -0.39577834958E+02 -0.25020726198E+02  0.55989169171E+01  0.47157074019E+02  0.00000000000E+00 0. -1.
        -11    1    3    3    0    0  0.41768113272E+02 -0.84428596043E+01  0.43870224036E+02  0.61159248864E+02  0.00000000000E+00 0.  1.
         22    1    1    2    0    0 -0.21902783133E+01  0.33463585802E+02  0.75807422199E+02  0.82893752202E+02  0.00000000000E+00 0.  1.
<mgrwt>
<rscale>  0 0.74011199E+02</rscale>
<asrwt>0</asrwt>
<pdfrwt beam="1">  1        4 0.50718087E-02 0.96359898E+02</pdfrwt>
<pdfrwt beam="2">  1       -4 0.24345126E-01 0.96359898E+02</pdfrwt>
<totfact> 0.54772930E+03</totfact>
</mgrwt>
</event>
<event>
 6    1  0.1535419E-002  0.9107107E+02  0.7546771E-02  0.1430259E+00
         -2   -1    0    0    0  501 -0.00000000000E+00  0.00000000000E+00  0.12345513173E+02  0.12345513173E+02  0.00000000000E+00 0. -1.
          2   -1    0    0  501    0  0.00000000000E+00 -0.00000000000E+00 -0.83920829242E+03  0.83920829242E+03  0.00000000000E+00 0.  1.
         23    2    1    2    0    0 -0.72305760147E+01 -0.74390120011E+01 -0.83400262109E+03  0.83896025683E+03  0.90478287080E+02 0.  0.
         13    1    3    3    0    0 -0.45323105055E+01 -0.88296971913E+01 -0.83551144412E+03  0.83557039120E+03  0.00000000000E+00 0.  1.
        -13    1    3    3    0    0 -0.26982655092E+01  0.13906851902E+01  0.15088230339E+01  0.33898656322E+01  0.00000000000E+00 0. -1.
         22    1    1    2    0    0  0.72305760147E+01  0.74390120011E+01  0.71398418368E+01  0.12593548766E+02  0.00000000000E+00 0. -1.
<mgrwt>
<rscale>  0 0.52908084E+02</rscale>
<asrwt>0</asrwt>
<pdfrwt beam="1">  1        2 0.12910895E+00 0.91071074E+02</pdfrwt>
<pdfrwt beam="2">  1       -2 0.18993099E-02 0.91071074E+02</pdfrwt>
<totfact> 0.25376091E+04</totfact>
</mgrwt>
</event>
<event>
 6    1  0.1535419E-002  0.9897649E+02  0.7546771E-02  0.1335847E+00
         -1   -1    0    0    0  501 -0.00000000000E+00  0.00000000000E+00  0.82251945727E+01  0.82251945727E+01  0.00000000000E+00 0.  1.
          1   -1    0    0  501    0  0.00000000000E+00 -0.00000000000E+00 -0.17884680291E+04  0.17884680291E+04  0.00000000000E+00 0. -1.
         23    2    1    2    0    0  0.13364350589E+01 -0.37476634227E+02 -0.17354712605E+04  0.17382913571E+04  0.91597282715E+02 0.  0.
         11    1    3    3    0    0 -0.70018101253E+01 -0.39350772093E+02 -0.17211492289E+04  0.17216132483E+04  0.00000000000E+00 0. -1.
        -11    1    3    3    0    0  0.83382451842E+01  0.18741378659E+01 -0.14322031521E+02  0.16678108777E+02  0.00000000000E+00 0.  1.
         22    1    1    2    0    0 -0.13364350589E+01  0.37476634227E+02 -0.44771574062E+02  0.58401866542E+02  0.00000000000E+00 0.  1.
<mgrwt>
<rscale>  0 0.77652991E+02</rscale>
<asrwt>0</asrwt>
<pdfrwt beam="1">  1        1 0.27514912E+00 0.98976494E+02</pdfrwt>
<pdfrwt beam="2">  1       -1 0.12654137E-02 0.98976494E+02</pdfrwt>
<totfact> 0.60225564E+03</totfact>
</mgrwt>
</event>
<event>
 6    1  0.1535419E-002  0.9672212E+02  0.7546771E-02  0.1377323E+00
         -2   -1    0    0    0  501 -0.00000000000E+00  0.00000000000E+00  0.11351741757E+03  0.11351741757E+03  0.00000000000E+00 0.  1.
          2   -1    0    0  501    0  0.00000000000E+00 -0.00000000000E+00 -0.29983642088E+02  0.29983642088E+02  0.00000000000E+00 0. -1.
         23    2    1    2    0    0 -0.19400475338E+02 -0.45989060417E+01  0.68206210498E+02  0.11835224997E+03  0.94644807271E+02 0.  0.
         11    1    3    3    0    0  0.10289874832E+02  0.16977495573E+02 -0.16642703209E+02  0.25905529334E+02  0.00000000000E+00 0. -1.
        -11    1    3    3    0    0 -0.29690350170E+02 -0.21576401615E+02  0.84848913706E+02  0.92446720640E+02  0.00000000000E+00 0.  1.
         22    1    1    2    0    0  0.19400475338E+02  0.45989060417E+01  0.15327564983E+02  0.25148809682E+02  0.00000000000E+00 0.  1.
<mgrwt>
<rscale>  0 0.65172647E+02</rscale>
<asrwt>0</asrwt>
<pdfrwt beam="1">  1        2 0.46128681E-02 0.96722117E+02</pdfrwt>
<pdfrwt beam="2">  1       -2 0.17464218E-01 0.96722117E+02</pdfrwt>
<totfact> 0.40443538E+04</totfact>
</mgrwt>
</event>
<event>
 6    1  0.1535419E-002  0.1028129E+03  0.7546771E-02  0.1393261E+00
          4   -1    0    0  501    0  0.00000000000E+00  0.00000000000E+00  0.27164085665E+03  0.27164085665E+03  0.00000000000E+00 0. -1.
         -4   -1    0    0    0  501 -0.00000000000E+00 -0.00000000000E+00 -0.12549335970E+02  0.12549335970E+02  0.00000000000E+00 0.  1.
         23    2    1    2    0    0  0.11709507646E+02 -0.52347843800E+01  0.24098938563E+03  0.26200454793E+03  0.10200972314E+03 0.  0.
         11    1    3    3    0    0  0.34284381129E+02 -0.44483198871E+02  0.15430069780E+03  0.16420377313E+03  0.00000000000E+00 0. -1.
        -11    1    3    3    0    0 -0.22574873483E+02  0.39248414491E+02  0.86688687829E+02  0.97800774795E+02  0.00000000000E+00 0.  1.
         22    1    1    2    0    0 -0.11709507646E+02  0.52347843800E+01  0.18102135057E+02  0.22185644693E+02  0.00000000000E+00 0.  1.
<mgrwt>
<rscale>  0 0.61102879E+02</rscale>
<asrwt>0</asrwt>
<pdfrwt beam="1">  1        4 0.41790897E-01 0.10281293E+03</pdfrwt>
<pdfrwt beam="2">  1       -4 0.19306673E-02 0.10281293E+03</pdfrwt>
<totfact> 0.90467349E+03</totfact>
</mgrwt>
</event>
<event>
 6    1  0.1535419E-002  0.9426267E+02  0.7546771E-02  0.1402984E+00
          1   -1    0    0  501    0  0.00000000000E+00  0.00000000000E+00  0.13649272971E+04  0.13649272971E+04  0.00000000000E+00 0.  1.
         -1   -1    0    0    0  501 -0.00000000000E+00 -0.00000000000E+00 -0.27723928940E+01  0.27723928940E+01  0.00000000000E+00 0. -1.
         23    2    1    2    0    0 -0.66967633397E+01 -0.12591711191E+02  0.13164705425E+04  0.13198409527E+04  0.93177536731E+02 0.  0.
         13    1    3    3    0    0 -0.37165397000E+02 -0.28625380625E+02  0.40289940439E+03  0.40562126326E+03  0.00000000000E+00 0. -1.
        -13    1    3    3    0    0  0.30468633661E+02  0.16033669434E+02  0.91357113814E+03  0.91421968948E+03  0.00000000000E+00 0.  1.
         22    1    1    2    0    0  0.66967633397E+01  0.12591711191E+02  0.45684361718E+02  0.47858737295E+02  0.00000000000E+00 0. -1.
<mgrwt>
<rscale>  0 0.58789274E+02</rscale>
<asrwt>0</asrwt>
<pdfrwt beam="1">  1        1 0.20998828E+00 0.94262671E+02</pdfrwt>
<pdfrwt beam="2">  1       -1 0.42652307E-03 0.94262671E+02</pdfrwt>
<totfact> 0.51614782E+04</totfact>
</mgrwt>
</event>
<event>
 6    1  0.1535419E-002  0.9235736E+02  0.7546771E-02  0.1407651E+00
          1   -1    0    0  501    0  0.00000000000E+00  0.00000000000E+00  0.13947007260E+02  0.13947007260E+02  0.00000000000E+00 0. -1.
         -1   -1    0    0    0  501 -0.00000000000E+00 -0.00000000000E+00 -0.20339837198E+03  0.20339837198E+03  0.00000000000E+00 0.  1.
         23    2    1    2    0    0  0.79769947165E+01 -0.11615190185E+02 -0.16150483624E+03  0.18604755916E+03  0.91276158182E+02 0.  0.
         11    1    3    3    0    0 -0.27013657478E+02 -0.42327033594E+01 -0.80827877152E+01  0.28512890511E+02  0.00000000000E+00 0. -1.
        -11    1    3    3    0    0  0.34990652194E+02 -0.73824868255E+01 -0.15342204852E+03  0.15753466864E+03  0.00000000000E+00 0.  1.
         22    1    1    2    0    0 -0.79769947165E+01  0.11615190185E+02 -0.27946528479E+02  0.31297820080E+02  0.00000000000E+00 0.  1.
<mgrwt>
<rscale>  0 0.57721290E+02</rscale>
<asrwt>0</asrwt>
<pdfrwt beam="1">  1        1 0.21456934E-02 0.92357361E+02</pdfrwt>
<pdfrwt beam="2">  1       -1 0.31292058E-01 0.92357361E+02</pdfrwt>
<totfact> 0.45060076E+04</totfact>
</mgrwt>
</event>
<event>
 6    1  0.1535419E-002  0.9370115E+02  0.7546771E-02  0.1402163E+00
          2   -1    0    0  501    0  0.00000000000E+00  0.00000000000E+00  0.35023185900E+02  0.35023185900E+02  0.00000000000E+00 0. -1.
         -2   -1    0    0    0  501 -0.00000000000E+00 -0.00000000000E+00 -0.84143072393E+02  0.84143072393E+02  0.00000000000E+00 0.  1.
         23    2    1    2    0    0 -0.11524487267E+02  0.91401844341E+01 -0.44631295925E+02  0.10378756447E+03  0.92539446645E+02 0.  0.
         13    1    3    3    0    0  0.10799829694E+01 -0.29908330406E+02 -0.53963914901E+02  0.61707201381E+02  0.00000000000E+00 0.  1.
        -13    1    3    3    0    0 -0.12604470236E+02  0.39048514840E+02  0.93326189764E+01  0.42080363093E+02  0.00000000000E+00 0. -1.
         22    1    1    2    0    0  0.11524487267E+02 -0.91401844341E+01 -0.44885905688E+01  0.15378693818E+02  0.00000000000E+00 0.  1.
<mgrwt>
<rscale>  0 0.58980033E+02</rscale>
<asrwt>0</asrwt>
<pdfrwt beam="1">  1        2 0.53881825E-02 0.93701152E+02</pdfrwt>
<pdfrwt beam="2">  1       -2 0.12945088E-01 0.93701152E+02</pdfrwt>
<totfact> 0.53522238E+04</totfact>
</mgrwt>
</event>
<event>
 6    1  0.1535419E-002  0.9244217E+02  0.7546771E-02  0.1423775E+00
         -2   -1    0    0    0  501 -0.00000000000E+00  0.00000000000E+00  0.43024525754E+02  0.43024525754E+02  0.00000000000E+00 0.  1.
          2   -1    0    0  501    0  0.00000000000E+00 -0.00000000000E+00 -0.67788058663E+02  0.67788058663E+02  0.00000000000E+00 0. -1.
         23    2    1    2    0    0 -0.66041473838E+00 -0.10928569708E+02 -0.31845027157E+02  0.97773514501E+02  0.91791527930E+02 0.  0.
         11    1    3    3    0    0 -0.36193552630E+02 -0.34312953980E+02 -0.18455173985E+02  0.53178430869E+02  0.00000000000E+00 0. -1.
        -11    1    3    3    0    0  0.35533137892E+02  0.23384384272E+02 -0.13389853172E+02  0.44595083633E+02  0.00000000000E+00 0.  1.
         22    1    1    2    0    0  0.66041473838E+00  0.10928569708E+02  0.70814942479E+01  0.13039069916E+02  0.00000000000E+00 0. -1.
<mgrwt>
<rscale>  0 0.54230212E+02</rscale>
<asrwt>0</asrwt>
<pdfrwt beam="1">  1        2 0.10428932E-01 0.92442168E+02</pdfrwt>
<pdfrwt beam="2">  1       -2 0.66191578E-02 0.92442168E+02</pdfrwt>
<totfact> 0.66202955E+04</totfact>
</mgrwt>
</event>
<event>
 6    1  0.1535419E-002  0.8893936E+02  0.7546771E-02  0.1416282E+00
          4   -1    0    0  501    0  0.00000000000E+00  0.00000000000E+00  0.86049700342E+02  0.86049700342E+02  0.00000000000E+00 0. -1.
         -4   -1    0    0    0  501 -0.00000000000E+00 -0.00000000000E+00 -0.33425790095E+02  0.33425790095E+02  0.00000000000E+00 0.  1.
         23    2    1    2    0    0  0.11686440424E+02  0.73307551631E+01  0.56220969797E+02  0.10521885344E+03  0.87862943345E+02 0.  0.
         11    1    3    3    0    0 -0.32274274418E+02  0.94367572210E+01  0.50735993549E+02  0.60867250779E+02  0.00000000000E+00 0. -1.
        -11    1    3    3    0    0  0.43960714843E+02 -0.21060020579E+01  0.54849762486E+01  0.44351602661E+02  0.00000000000E+00 0.  1.
         22    1    1    2    0    0 -0.11686440424E+02 -0.73307551631E+01 -0.35970595495E+01  0.14256636997E+02  0.00000000000E+00 0. -1.
<mgrwt>
<rscale>  0 0.55815397E+02</rscale>
<asrwt>0</asrwt>
<pdfrwt beam="1">  1        4 0.13238415E-01 0.88939360E+02</pdfrwt>
<pdfrwt beam="2">  1       -4 0.51424293E-02 0.88939360E+02</pdfrwt>
<totfact> 0.15333260E+04</totfact>
</mgrwt>
</event>
<event>
 6    1  0.1535419E-002  0.9136719E+02  0.7546771E-02  0.1411228E+00
         -2   -1    0    0    0  501 -0.00000000000E+00  0.00000000000E+00  0.40015781950E+02  0.40015781950E+02  0.00000000000E+00 0.  1.
          2   -1    0    0  501    0  0.00000000000E+00 -0.00000000000E+00 -0.69301423946E+02  0.69301423946E+02  0.00000000000E+00 0. -1.
         23    2    1    2    0    0 -0.84168529271E+01  0.10889143116E+02 -0.27639073974E+02  0.95456180059E+02  0.90324675756E+02 0.  0.
         11    1    3    3    0    0  0.21359352546E+02  0.39168682212E+02  0.22415995618E+01  0.44670262771E+02  0.00000000000E+00 0. -1.
        -11    1    3    3    0    0 -0.29776205473E+02 -0.28279539096E+02 -0.29880673535E+02  0.50785917288E+02  0.00000000000E+00 0.  1.
         22    1    1    2    0    0  0.84168529271E+01 -0.10889143116E+02 -0.16465680218E+01  0.13861025837E+02  0.00000000000E+00 0. -1.
<mgrwt>
<rscale>  0 0.56920674E+02</rscale>
<asrwt>0</asrwt>
<pdfrwt beam="1">  1        2 0.10661757E-01 0.91367193E+02</pdfrwt>
<pdfrwt beam="2">  1       -2 0.61562742E-02 0.91367193E+02</pdfrwt>
<totfact> 0.71781401E+04</totfact>
</mgrwt>
</event>
<event>
 6    1  0.1535419E-002  0.1205490E+03  0.7546771E-02  0.1263545E+00
          1   -1    0    0  501    0  0.00000000000E+00  0.00000000000E+00  0.13667871051E+03  0.13667871051E+03  0.00000000000E+00 0. -1.
         -1   -1    0    0    0  501 -0.00000000000E+00 -0.00000000000E+00 -0.12294756793E+03  0.12294756793E+03  0.00000000000E+00 0.  1.
         23    2    1    2    0    0  0.64626154722E+02  0.45165971622E+02  0.89604949024E+02  0.15020352316E+03  0.91189619004E+02 0.  0.
         11    1    3    3    0    0  0.82180992245E+02  0.19574509864E+02  0.83088564536E+02  0.11849298072E+03  0.00000000000E+00 0. -1.
        -11    1    3    3    0    0 -0.17554837522E+02  0.25591461758E+02  0.65163844882E+01  0.31710542445E+02  0.00000000000E+00 0.  1.
         22    1    1    2    0    0 -0.64626154722E+02 -0.45165971622E+02 -0.75873806453E+02  0.10942275528E+03  0.00000000000E+00 0.  1.
<mgrwt>
<rscale>  0 0.10840914E+03</rscale>
<asrwt>0</asrwt>
<pdfrwt beam="1">  1        1 0.21027494E-01 0.12054896E+03</pdfrwt>
<pdfrwt beam="2">  1       -1 0.18915011E-01 0.12054896E+03</pdfrwt>
<totfact> 0.50088579E+03</totfact>
</mgrwt>
</event>
<event>
 6    1  0.1535419E-002  0.9226977E+02  0.7546771E-02  0.1414503E+00
         -1   -1    0    0    0  501 -0.00000000000E+00  0.00000000000E+00  0.26367178349E+02  0.26367178349E+02  0.00000000000E+00 0.  1.
          1   -1    0    0  501    0  0.00000000000E+00 -0.00000000000E+00 -0.12511135577E+03  0.12511135577E+03  0.00000000000E+00 0. -1.
         23    2    1    2    0    0  0.78501780754E+01 -0.99829345513E+01 -0.10281035313E+03  0.13814369017E+03  0.91391608723E+02 0.  0.
         11    1    3    3    0    0 -0.15091752639E+02 -0.15915206436E+02  0.91045503686E+01  0.23747581583E+02  0.00000000000E+00 0.  1.
        -11    1    3    3    0    0  0.22941930714E+02  0.59322718846E+01 -0.11191490350E+03  0.11439610859E+03  0.00000000000E+00 0. -1.
         22    1    1    2    0    0 -0.78501780754E+01  0.99829345513E+01  0.40661757157E+01  0.13334843944E+02  0.00000000000E+00 0. -1.
<mgrwt>
<rscale>  0 0.56200940E+02</rscale>
<asrwt>0</asrwt>
<pdfrwt beam="1">  1        1 0.19247901E-01 0.92269770E+02</pdfrwt>
<pdfrwt beam="2">  1       -1 0.40564890E-02 0.92269770E+02</pdfrwt>
<totfact> 0.55800281E+04</totfact>
</mgrwt>
</event>
<event>
 6    1  0.1535419E-002  0.9320783E+02  0.7546771E-02  0.1388686E+00
          2   -1    0    0  501    0  0.00000000000E+00  0.00000000000E+00  0.59636569212E+03  0.59636569212E+03  0.00000000000E+00 0. -1.
         -2   -1    0    0    0  501 -0.00000000000E+00 -0.00000000000E+00 -0.61917512984E+01  0.61917512984E+01  0.00000000000E+00 0.  1.
         23    2    1    2    0    0  0.55753168953E+01 -0.17666849754E+02  0.55530091709E+03  0.56306909675E+03  0.91348220837E+02 0.  0.
         13    1    3    3    0    0  0.36318495111E+01 -0.73180808275E+01  0.51787347147E+00  0.81861365003E+01  0.00000000000E+00 0.  1.
        -13    1    3    3    0    0  0.19434673842E+01 -0.10348768927E+02  0.55478304362E+03  0.55488296025E+03  0.00000000000E+00 0. -1.
         22    1    1    2    0    0 -0.55753168953E+01  0.17666849754E+02  0.34873023726E+02  0.39488346667E+02  0.00000000000E+00 0.  1.
<mgrwt>
<rscale>  0 0.62234754E+02</rscale>
<asrwt>0</asrwt>
<pdfrwt beam="1">  1        2 0.91748522E-01 0.93207828E+02</pdfrwt>
<pdfrwt beam="2">  1       -2 0.95257760E-03 0.93207828E+02</pdfrwt>
<totfact> 0.10155741E+05</totfact>
</mgrwt>
</event>
<event>
 6    1  0.1535419E-002  0.8825763E+02  0.7546771E-02  0.1397815E+00
         -1   -1    0    0    0  501 -0.00000000000E+00  0.00000000000E+00  0.12447166848E+02  0.12447166848E+02  0.00000000000E+00 0.  1.
          1   -1    0    0  501    0  0.00000000000E+00 -0.00000000000E+00 -0.23086066996E+03  0.23086066996E+03  0.00000000000E+00 0. -1.
         23    2    1    2    0    0  0.17938965850E+02 -0.58110693307E+01 -0.17589433250E+03  0.19679488279E+03  0.86219688366E+02 0.  0.
         11    1    3    3    0    0 -0.33416362920E+02 -0.11008656113E+02 -0.89334363097E+02  0.96012875439E+02  0.00000000000E+00 0. -1.
        -11    1    3    3    0    0  0.51355328770E+02  0.51975867821E+01 -0.86559969406E+02  0.10078200735E+03  0.00000000000E+00 0.  1.
         22    1    1    2    0    0 -0.17938965850E+02  0.58110693307E+01 -0.42519170607E+02  0.46512954020E+02  0.00000000000E+00 0. -1.
<mgrwt>
<rscale>  0 0.60004056E+02</rscale>
<asrwt>0</asrwt>
<pdfrwt beam="1">  1        1 0.35517023E-01 0.88257632E+02</pdfrwt>
<pdfrwt beam="2">  1       -1 0.19149489E-02 0.88257632E+02</pdfrwt>
<totfact> 0.76452843E+04</totfact>
</mgrwt>
</event>
<event>
 6    1  0.1535419E-002  0.9288923E+02  0.7546771E-02  0.1414329E+00
          1   -1    0    0  501    0  0.00000000000E+00  0.00000000000E+00  0.27857586597E+02  0.27857586597E+02  0.00000000000E+00 0. -1.
         -1   -1    0    0    0  501 -0.00000000000E+00 -0.00000000000E+00 -0.10487480551E+03  0.10487480551E+03  0.00000000000E+00 0.  1.
         23    2    1    2    0    0  0.98286056945E+01 -0.76926053912E+01 -0.56517191382E+02  0.10873179219E+03  0.92046901327E+02 0.  0.
         11    1    3    3    0    0 -0.31637617529E+02 -0.25892290114E+02 -0.67329632258E+01  0.41432865265E+02  0.00000000000E+00 0. -1.
        -11    1    3    3    0    0  0.41466223223E+02  0.18199684722E+02 -0.49784228156E+02  0.67298926927E+02  0.00000000000E+00 0.  1.
         22    1    1    2    0    0 -0.98286056945E+01  0.76926053912E+01 -0.20500027533E+02  0.24000599919E+02  0.00000000000E+00 0. -1.
<mgrwt>
<rscale>  0 0.56238947E+02</rscale>
<asrwt>0</asrwt>
<pdfrwt beam="1">  1        1 0.42857826E-02 0.92889234E+02</pdfrwt>
<pdfrwt beam="2">  1       -1 0.16134585E-01 0.92889234E+02</pdfrwt>
<totfact> 0.50826164E+04</totfact>
</mgrwt>
</event>
<event>
 6    1  0.1535419E-002  0.9203094E+02  0.7546771E-02  0.1424492E+00
          2   -1    0    0  501    0  0.00000000000E+00  0.00000000000E+00  0.68733740965E+03  0.68733740965E+03  0.00000000000E+00 0. -1.
         -2   -1    0    0    0  501 -0.00000000000E+00 -0.00000000000E+00 -0.42186853856E+01  0.42186853856E+01  0.00000000000E+00 0.  1.
         23    2    1    2    0    0  0.12750105630E+01  0.10900511670E+02  0.65389432614E+03  0.66033891624E+03  0.91374218072E+02 0.  0.
         13    1    3    3    0    0 -0.33838336024E+02 -0.42293725007E+01  0.51932298049E+03  0.52044142671E+03  0.00000000000E+00 0. -1.
        -13    1    3    3    0    0  0.35113346587E+02  0.15129884171E+02  0.13457134565E+03  0.13989748952E+03  0.00000000000E+00 0.  1.
         22    1    1    2    0    0 -0.12750105630E+01 -0.10900511670E+02  0.29224398123E+02  0.31217178800E+02  0.00000000000E+00 0.  1.
<mgrwt>
<rscale>  0 0.54081635E+02</rscale>
<asrwt>0</asrwt>
<pdfrwt beam="1">  1        2 0.10574413E+00 0.92030943E+02</pdfrwt>
<pdfrwt beam="2">  1       -2 0.64902907E-03 0.92030943E+02</pdfrwt>
<totfact> 0.14818261E+05</totfact>
</mgrwt>
</event>
<event>
 6    1  0.1535419E-002  0.9279609E+02  0.7546771E-02  0.1412555E+00
          3   -1    0    0  501    0  0.00000000000E+00  0.00000000000E+00  0.51693858001E+03  0.51693858001E+03  0.00000000000E+00 0. -1.
         -3   -1    0    0    0  501 -0.00000000000E+00 -0.00000000000E+00 -0.13725031536E+02  0.13725031536E+02  0.00000000000E+00 0.  1.
         23    2    1    2    0    0 -0.69150183854E+01  0.10852579894E+02  0.50839255418E+03  0.51679212749E+03  0.91899499063E+02 0.  0.
         11    1    3    3    0    0 -0.17581195637E+02 -0.22920740793E+02  0.55965802076E+02  0.62981186084E+02  0.00000000000E+00 0.  1.
        -11    1    3    3    0    0  0.10666177252E+02  0.33773320686E+02  0.45242675210E+03  0.45381094141E+03  0.00000000000E+00 0. -1.
         22    1    1    2    0    0  0.69150183854E+01 -0.10852579894E+02 -0.51790057059E+01  0.13871484049E+02  0.00000000000E+00 0.  1.
<mgrwt>
<rscale>  0 0.56627641E+02</rscale>
<asrwt>0</asrwt>
<pdfrwt beam="1">  1        3 0.79528997E-01 0.92796088E+02</pdfrwt>
<pdfrwt beam="2">  1       -3 0.21115437E-02 0.92796088E+02</pdfrwt>
<totfact> 0.28181013E+03</totfact>
</mgrwt>
</event>
<event>
 6    1  0.1535419E-002  0.9469169E+02  0.7546771E-02  0.1399500E+00
         -2   -1    0    0    0  501 -0.00000000000E+00  0.00000000000E+00  0.71178499105E+01  0.71178499105E+01  0.00000000000E+00 0. -1.
          2   -1    0    0  501    0  0.00000000000E+00 -0.00000000000E+00 -0.44644349661E+03  0.44644349661E+03  0.00000000000E+00 0.  1.
         23    2    1    2    0    0 -0.49427800438E+01  0.14019603380E+02 -0.40859770116E+03  0.41942651108E+03  0.93517572948E+02 0.  0.
         11    1    3    3    0    0  0.18081526230E+02  0.40229620441E+02 -0.10579701130E+03  0.11462273576E+03  0.00000000000E+00 0. -1.
        -11    1    3    3    0    0 -0.23024306274E+02 -0.26210017061E+02 -0.30280068986E+03  0.30480377532E+03  0.00000000000E+00 0.  1.
         22    1    1    2    0    0  0.49427800438E+01 -0.14019603380E+02 -0.30727945545E+02  0.34134835446E+02  0.00000000000E+00 0. -1.
<mgrwt>
<rscale>  0 0.59604373E+02</rscale>
<asrwt>0</asrwt>
<pdfrwt beam="1">  1        2 0.68683659E-01 0.94691693E+02</pdfrwt>
<pdfrwt beam="2">  1       -2 0.10950531E-02 0.94691693E+02</pdfrwt>
<totfact> 0.11451082E+05</totfact>
</mgrwt>
</event>
<event>
 6    1  0.1535419E-002  0.9499504E+02  0.7546771E-02  0.1366190E+00
         -2   -1    0    0    0  501 -0.00000000000E+00  0.00000000000E+00  0.39053806565E+01  0.39053806565E+01  0.00000000000E+00 0.  1.
          2   -1    0    0  501    0  0.00000000000E+00 -0.00000000000E+00 -0.10010118431E+04  0.10010118431E+04  0.00000000000E+00 0. -1.
         23    2    1    2    0    0 -0.25246497662E+02 -0.15340347825E+01 -0.87988040697E+03  0.88499355224E+03  0.91565921811E+02 0.  0.
         11    1    3    3    0    0 -0.47269844885E+02 -0.31842745276E+02 -0.48397865639E+03  0.48732303301E+03  0.00000000000E+00 0. -1.
        -11    1    3    3    0    0  0.22023347223E+02  0.30308710493E+02 -0.39590175058E+03  0.39767051924E+03  0.00000000000E+00 0.  1.
         22    1    1    2    0    0  0.25246497662E+02  0.15340347825E+01 -0.11722605543E+03  0.11992367147E+03  0.00000000000E+00 0.  1.
<mgrwt>
<rscale>  0 0.68237959E+02</rscale>
<asrwt>0</asrwt>
<pdfrwt beam="1">  1        2 0.15400177E+00 0.94995036E+02</pdfrwt>
<pdfrwt beam="2">  1       -2 0.60082799E-03 0.94995036E+02</pdfrwt>
<totfact> 0.10384531E+05</totfact>
</mgrwt>
</event>
<event>
 6    1  0.1535419E-002  0.9748139E+02  0.7546771E-02  0.1343837E+00
          1   -1    0    0  501    0  0.00000000000E+00  0.00000000000E+00  0.17507226538E+03  0.17507226538E+03  0.00000000000E+00 0. -1.
         -1   -1    0    0    0  501 -0.00000000000E+00 -0.00000000000E+00 -0.27830007780E+02  0.27830007780E+02  0.00000000000E+00 0.  1.
         23    2    1    2    0    0  0.28364954626E+02  0.19065640286E+02  0.13517374159E+03  0.16665702010E+03  0.91293771112E+02 0.  0.
         13    1    3    3    0    0 -0.16381606728E+02 -0.24316774977E+02  0.19349443095E+02  0.35129240418E+02  0.00000000000E+00 0.  1.
        -13    1    3    3    0    0  0.44746561354E+02  0.43382415263E+02  0.11582429850E+03  0.13152777969E+03  0.00000000000E+00 0. -1.
         22    1    1    2    0    0 -0.28364954626E+02 -0.19065640286E+02  0.12068516009E+02  0.36245253056E+02  0.00000000000E+00 0.  1.
<mgrwt>
<rscale>  0 0.75010985E+02</rscale>
<asrwt>0</asrwt>
<pdfrwt beam="1">  1        1 0.26934194E-01 0.97481393E+02</pdfrwt>
<pdfrwt beam="2">  1       -1 0.42815398E-02 0.97481393E+02</pdfrwt>
<totfact> 0.34160029E+04</totfact>
</mgrwt>
</event>
<event>
 6    1  0.1535419E-002  0.9100154E+02  0.7546771E-02  0.1425745E+00
         -2   -1    0    0    0  501 -0.00000000000E+00  0.00000000000E+00  0.49265291103E+03  0.49265291103E+03  0.00000000000E+00 0.  1.
          2   -1    0    0  501    0  0.00000000000E+00 -0.00000000000E+00 -0.53675718910E+01  0.53675718910E+01  0.00000000000E+00 0. -1.
         23    2    1    2    0    0  0.10970191967E+02 -0.19170078630E+01  0.44992337127E+03  0.45903411769E+03  0.90317557301E+02 0.  0.
         11    1    3    3    0    0  0.63630509043E+01  0.12084224228E+02  0.44216752349E+03  0.44237838523E+03  0.00000000000E+00 0.  1.
        -11    1    3    3    0    0  0.46071410627E+01 -0.14001232091E+02  0.77558477773E+01  0.16655732454E+02  0.00000000000E+00 0. -1.
         22    1    1    2    0    0 -0.10970191967E+02  0.19170078630E+01  0.37361967870E+02  0.38986365233E+02  0.00000000000E+00 0.  1.
<mgrwt>
<rscale>  0 0.53823639E+02</rscale>
<asrwt>0</asrwt>
<pdfrwt beam="1">  1        2 0.82578068E-03 0.91001545E+02</pdfrwt>
<pdfrwt beam="2">  1       -2 0.75792720E-01 0.91001545E+02</pdfrwt>
<totfact> 0.26368311E+04</totfact>
</mgrwt>
</event>
<event>
 6    1  0.1535419E-002  0.9201243E+02  0.7546771E-02  0.1383682E+00
          2   -1    0    0  501    0  0.00000000000E+00  0.00000000000E+00  0.20312182360E+04  0.20312182360E+04  0.00000000000E+00 0. -1.
         -2   -1    0    0    0  501 -0.00000000000E+00 -0.00000000000E+00 -0.26215607181E+01  0.26215607181E+01  0.00000000000E+00 0.  1.
         23    2    1    2    0    0 -0.10370429026E+02  0.18121449408E+02  0.19594609891E+04  0.19616201607E+04  0.89612243732E+02 0.  0.
         13    1    3    3    0    0  0.90841802044E+01  0.83338598122E-01  0.17957838521E+04  0.17958068306E+04  0.00000000000E+00 0. -1.
        -13    1    3    3    0    0 -0.19454609230E+02  0.18038110810E+02  0.16367713704E+03  0.16581333013E+03  0.00000000000E+00 0.  1.
         22    1    1    2    0    0  0.10370429026E+02 -0.18121449408E+02  0.69135686212E+02  0.72219636075E+02  0.00000000000E+00 0. -1.
<mgrwt>
<rscale>  0 0.63505641E+02</rscale>
<asrwt>0</asrwt>
<pdfrwt beam="1">  1        2 0.31249386E+00 0.92012428E+02</pdfrwt>
<pdfrwt beam="2">  1       -2 0.40331866E-03 0.92012428E+02</pdfrwt>
<totfact> 0.52494324E+04</totfact>
</mgrwt>
</event>
<event>
 6    1  0.1535419E-002  0.9336993E+02  0.7546771E-02  0.1400214E+00
          2   -1    0    0  501    0  0.00000000000E+00  0.00000000000E+00  0.17676776238E+04  0.17676776238E+04  0.00000000000E+00 0. -1.
         -2   -1    0    0    0  501 -0.00000000000E+00 -0.00000000000E+00 -0.19605304093E+01  0.19605304093E+01  0.00000000000E+00 0.  1.
         23    2    1    2    0    0  0.16539003714E+01 -0.15241714132E+02  0.16776727912E+04  0.16802690075E+04  0.92102649154E+02 0.  0.
         11    1    3    3    0    0  0.22017744716E+02 -0.39447431065E+02  0.46629616326E+03  0.46847944754E+03  0.00000000000E+00 0.  1.
        -11    1    3    3    0    0 -0.20363844344E+02  0.24205716933E+02  0.12113766279E+04  0.12117895599E+04  0.00000000000E+00 0. -1.
         22    1    1    2    0    0 -0.16539003714E+01  0.15241714132E+02  0.88044302196E+02  0.89369146719E+02  0.00000000000E+00 0.  1.
<mgrwt>
<rscale>  0 0.59435948E+02</rscale>
<asrwt>0</asrwt>
<pdfrwt beam="1">  1        2 0.27194913E+00 0.93369927E+02</pdfrwt>
<pdfrwt beam="2">  1       -2 0.30162147E-03 0.93369927E+02</pdfrwt>
<totfact> 0.10695946E+05</totfact>
</mgrwt>
</event>
<event>
 6    1  0.1535419E-002  0.9477361E+02  0.7546771E-02  0.1422876E+00
          1   -1    0    0  501    0  0.00000000000E+00  0.00000000000E+00  0.19019940891E+02  0.19019940891E+02  0.00000000000E+00 0. -1.
         -1   -1    0    0    0  501 -0.00000000000E+00 -0.00000000000E+00 -0.14556989304E+03  0.14556989304E+03  0.00000000000E+00 0.  1.
         23    2    1    2    0    0  0.84547395662E+01 -0.58845436333E+01 -0.11125682337E+03  0.14615100906E+03  0.94212134182E+02 0.  0.
         11    1    3    3    0    0  0.76619510597E+01 -0.49752668137E+02 -0.51492427446E+02  0.72010440667E+02  0.00000000000E+00 0.  1.
        -11    1    3    3    0    0  0.79278850650E+00  0.43868124503E+02 -0.59764395929E+02  0.74140568394E+02  0.00000000000E+00 0. -1.
         22    1    1    2    0    0 -0.84547395662E+01  0.58845436333E+01 -0.15293128774E+02  0.18438824870E+02  0.00000000000E+00 0.  1.
<mgrwt>
<rscale>  0 0.54417094E+02</rscale>
<asrwt>0</asrwt>
<pdfrwt beam="1">  1        1 0.29261446E-02 0.94773608E+02</pdfrwt>
<pdfrwt beam="2">  1       -1 0.22395369E-01 0.94773608E+02</pdfrwt>
<totfact> 0.51072380E+04</totfact>
</mgrwt>
</event>
<event>
 6    1  0.1535419E-002  0.9192557E+02  0.7546771E-02  0.1398935E+00
          2   -1    0    0  501    0  0.00000000000E+00  0.00000000000E+00  0.49049555655E+01  0.49049555655E+01  0.00000000000E+00 0. -1.
         -2   -1    0    0    0  501 -0.00000000000E+00 -0.00000000000E+00 -0.59834397976E+03  0.59834397976E+03  0.00000000000E+00 0.  1.
         23    2    1    2    0    0  0.61759691576E+01 -0.15186372968E+02 -0.49852692068E+03  0.50693135691E+03  0.90451873687E+02 0.  0.
         13    1    3    3    0    0  0.23098088371E+02  0.74798337065E+01 -0.45078940237E+03  0.45144274818E+03  0.00000000000E+00 0.  1.
        -13    1    3    3    0    0 -0.16922119213E+02 -0.22666206674E+02 -0.47737518316E+02  0.55488608728E+02  0.00000000000E+00 0. -1.
         22    1    1    2    0    0 -0.61759691576E+01  0.15186372968E+02 -0.94912103516E+02  0.96317578421E+02  0.00000000000E+00 0.  1.
<mgrwt>
<rscale>  0 0.59737843E+02</rscale>
<asrwt>0</asrwt>
<pdfrwt beam="1">  1        2 0.75460853E-03 0.91925568E+02</pdfrwt>
<pdfrwt beam="2">  1       -2 0.92052923E-01 0.91925568E+02</pdfrwt>
<totfact> 0.19517575E+04</totfact>
</mgrwt>
</event>
<event>
 6    1  0.1535419E-002  0.9357305E+02  0.7546771E-02  0.1376101E+00
         -1   -1    0    0    0  501 -0.00000000000E+00  0.00000000000E+00  0.72440696132E+01  0.72440696132E+01  0.00000000000E+00 0.  1.
          1   -1    0    0  501    0  0.00000000000E+00 -0.00000000000E+00 -0.48466534006E+03  0.48466534006E+03  0.00000000000E+00 0. -1.
         23    2    1    2    0    0  0.13811830721E+02 -0.17717611439E+02 -0.41891093946E+03  0.42923454027E+03  0.90836308465E+02 0.  0.
         13    1    3    3    0    0 -0.76400321362E+01 -0.52294605028E+02 -0.24226038420E+03  0.24795803992E+03  0.00000000000E+00 0.  1.
        -13    1    3    3    0    0  0.21451862857E+02  0.34576993590E+02 -0.17665055526E+03  0.18127650035E+03  0.00000000000E+00 0. -1.
         22    1    1    2    0    0 -0.13811830721E+02  0.17717611439E+02 -0.58510330984E+02  0.62674869404E+02  0.00000000000E+00 0. -1.
<mgrwt>
<rscale>  0 0.65499825E+02</rscale>
<asrwt>0</asrwt>
<pdfrwt beam="1">  1        1 0.74563894E-01 0.93573048E+02</pdfrwt>
<pdfrwt beam="2">  1       -1 0.11144723E-02 0.93573048E+02</pdfrwt>
<totfact> 0.66543068E+04</totfact>
</mgrwt>
</event>
<event>
 6    1  0.1535419E-002  0.9236930E+02  0.7546771E-02  0.1360115E+00
          2   -1    0    0  501    0  0.00000000000E+00  0.00000000000E+00  0.19107219073E+02  0.19107219073E+02  0.00000000000E+00 0.  1.
         -2   -1    0    0    0  501 -0.00000000000E+00 -0.00000000000E+00 -0.28337064200E+03  0.28337064200E+03  0.00000000000E+00 0. -1.
         23    2    1    2    0    0 -0.30189199985E+02 -0.40079515854E+01 -0.10294656493E+03  0.13831154252E+03  0.87204564634E+02 0.  0.
         11    1    3    3    0    0 -0.38361150415E+02  0.57112322141E+01 -0.11465638352E+03  0.12103835061E+03  0.00000000000E+00 0. -1.
        -11    1    3    3    0    0  0.81719504298E+01 -0.97191837995E+01  0.11709818594E+02  0.17273191919E+02  0.00000000000E+00 0.  1.
         22    1    1    2    0    0  0.30189199985E+02  0.40079515854E+01 -0.16131685800E+03  0.16416631855E+03  0.00000000000E+00 0.  1.
<mgrwt>
<rscale>  0 0.69993408E+02</rscale>
<asrwt>0</asrwt>
<pdfrwt beam="1">  1        2 0.29395724E-02 0.92369300E+02</pdfrwt>
<pdfrwt beam="2">  1       -2 0.43595480E-01 0.92369300E+02</pdfrwt>
<totfact> 0.14460760E+04</totfact>
</mgrwt>
</event>
<event>
 6    1  0.1535419E-002  0.8910897E+02  0.7546771E-02  0.1410121E+00
         -2   -1    0    0    0  501 -0.00000000000E+00  0.00000000000E+00  0.98931636860E+01  0.98931636860E+01  0.00000000000E+00 0.  1.
          2   -1    0    0  501    0  0.00000000000E+00 -0.00000000000E+00 -0.32402914085E+03  0.32402914085E+03  0.00000000000E+00 0. -1.
         23    2    1    2    0    0  0.50247208718E+01  0.14233521887E+02 -0.30099794030E+03  0.31391108324E+03  0.87821222668E+02 0.  0.
         11    1    3    3    0    0  0.35366812067E+02 -0.41935376588E+00 -0.25185267623E+03  0.25432411954E+03  0.00000000000E+00 0. -1.
        -11    1    3    3    0    0 -0.30342091195E+02  0.14652875653E+02 -0.49145264070E+02  0.59586963705E+02  0.00000000000E+00 0.  1.
         22    1    1    2    0    0 -0.50247208718E+01 -0.14233521887E+02 -0.13138036866E+02  0.20011221298E+02  0.00000000000E+00 0.  1.
<mgrwt>
<rscale>  0 0.57166952E+02</rscale>
<asrwt>0</asrwt>
<pdfrwt beam="1">  1        2 0.49850632E-01 0.89108968E+02</pdfrwt>
<pdfrwt beam="2">  1       -2 0.15220253E-02 0.89108968E+02</pdfrwt>
<totfact> 0.99527039E+04</totfact>
</mgrwt>
</event>
<event>
 6    1  0.1535419E-002  0.1011645E+03  0.7546771E-02  0.1333144E+00
         -2   -1    0    0    0  501 -0.00000000000E+00  0.00000000000E+00  0.50881389636E+02  0.50881389636E+02  0.00000000000E+00 0.  1.
          2   -1    0    0  501    0  0.00000000000E+00 -0.00000000000E+00 -0.11728290755E+03  0.11728290755E+03  0.00000000000E+00 0. -1.
         23    2    1    2    0    0  0.12901778231E+02  0.34483070708E+02 -0.79939765869E+02  0.12893647282E+03  0.94226905970E+02 0.  0.
         11    1    3    3    0    0  0.38213273257E+02  0.53428805274E+02 -0.36309862332E+02  0.75055296872E+02  0.00000000000E+00 0. -1.
        -11    1    3    3    0    0 -0.25311495026E+02 -0.18945734565E+02 -0.43629903537E+02  0.53881175946E+02  0.00000000000E+00 0.  1.
         22    1    1    2    0    0 -0.12901778231E+02 -0.34483070708E+02  0.13538247955E+02  0.39227824368E+02  0.00000000000E+00 0.  1.
<mgrwt>
<rscale>  0 0.78575099E+02</rscale>
<asrwt>0</asrwt>
<pdfrwt beam="1">  1        2 0.18043524E-01 0.10116446E+03</pdfrwt>
<pdfrwt beam="2">  1       -2 0.78279062E-02 0.10116446E+03</pdfrwt>
<totfact> 0.27316556E+04</totfact>
</mgrwt>
</event>
<event>
 6    1  0.1535419E-002  0.9600851E+02  0.7546771E-02  0.1371603E+00
         -2   -1    0    0    0  501 -0.00000000000E+00  0.00000000000E+00  0.20318340927E+03  0.20318340927E+03  0.00000000000E+00 0.  1.
          2   -1    0    0  501    0  0.00000000000E+00 -0.00000000000E+00 -0.24944335212E+02  0.24944335212E+02  0.00000000000E+00 0. -1.
         23    2    1    2    0    0  0.17493276229E+02 -0.13986203338E+02  0.73208581093E+02  0.12073578459E+03  0.93359545509E+02 0.  0.
         13    1    3    3    0    0  0.31118612493E+02  0.24044371701E+02  0.69899863046E+02  0.80202809850E+02  0.00000000000E+00 0.  1.
        -13    1    3    3    0    0 -0.13625336264E+02 -0.38030575039E+02  0.33087180473E+01  0.40532974739E+02  0.00000000000E+00 0. -1.
         22    1    1    2    0    0 -0.17493276229E+02  0.13986203338E+02  0.10503049297E+03  0.10739195990E+03  0.00000000000E+00 0.  1.
<mgrwt>
<rscale>  0 0.66723692E+02</rscale>
<asrwt>0</asrwt>
<pdfrwt beam="1">  1        2 0.38375902E-02 0.96008507E+02</pdfrwt>
<pdfrwt beam="2">  1       -2 0.31258985E-01 0.96008507E+02</pdfrwt>
<totfact> 0.18902025E+04</totfact>
</mgrwt>
</event>
<event>
 6    1  0.1535419E-002  0.9349027E+02  0.7546771E-02  0.1366332E+00
          2   -1    0    0  501    0  0.00000000000E+00  0.00000000000E+00  0.14304960217E+04  0.14304960217E+04  0.00000000000E+00 0. -1.
         -2   -1    0    0    0  501 -0.00000000000E+00 -0.00000000000E+00 -0.29987125076E+01  0.29987125076E+01  0.00000000000E+00 0.  1.
         23    2    1    2    0    0  0.21816401869E+02  0.14992286534E+02  0.12955163242E+04  0.12988852826E+04  0.89664414359E+02 0.  0.
         11    1    3    3    0    0  0.11153977987E+01  0.50953038791E+01  0.12187983203E+04  0.12188094813E+04  0.00000000000E+00 0. -1.
        -11    1    3    3    0    0  0.20701004070E+02  0.98969826544E+01  0.76718003877E+02  0.80075801301E+02  0.00000000000E+00 0.  1.
         22    1    1    2    0    0 -0.21816401869E+02 -0.14992286534E+02  0.13198098505E+03  0.13460945161E+03  0.00000000000E+00 0.  1.
<mgrwt>
<rscale>  0 0.68197460E+02</rscale>
<asrwt>0</asrwt>
<pdfrwt beam="1">  1        2 0.22007577E+00 0.93490274E+02</pdfrwt>
<pdfrwt beam="2">  1       -2 0.46134153E-03 0.93490274E+02</pdfrwt>
<totfact> 0.87609549E+04</totfact>
</mgrwt>
</event>
<event>
 6    1  0.1535419E-002  0.9692469E+02  0.7546771E-02  0.1348067E+00
          2   -1    0    0  501    0  0.00000000000E+00  0.00000000000E+00  0.12403516109E+03  0.12403516109E+03  0.00000000000E+00 0. -1.
         -2   -1    0    0    0  501 -0.00000000000E+00 -0.00000000000E+00 -0.34196687239E+02  0.34196687239E+02  0.00000000000E+00 0.  1.
         23    2    1    2    0    0 -0.60546921392E+00 -0.32328103754E+02  0.75505689746E+02  0.12286376122E+03  0.91372434313E+02 0.  0.
         11    1    3    3    0    0  0.27833359105E+02 -0.41064569352E+02  0.78607153177E+02  0.92952026690E+02  0.00000000000E+00 0. -1.
        -11    1    3    3    0    0 -0.28438828319E+02  0.87364655986E+01 -0.31014634306E+01  0.29911734532E+02  0.00000000000E+00 0.  1.
         22    1    1    2    0    0  0.60546921392E+00  0.32328103754E+02  0.14332784102E+02  0.35368087104E+02  0.00000000000E+00 0.  1.
<mgrwt>
<rscale>  0 0.73661388E+02</rscale>
<asrwt>0</asrwt>
<pdfrwt beam="1">  1        2 0.19082332E-01 0.96924685E+02</pdfrwt>
<pdfrwt beam="2">  1       -2 0.52610289E-02 0.96924685E+02</pdfrwt>
<totfact> 0.46483170E+04</totfact>
</mgrwt>
</event>
<event>
 6    1  0.1535419E-002  0.9534286E+02  0.7546771E-02  0.1378830E+00
          2   -1    0    0  501    0  0.00000000000E+00  0.00000000000E+00  0.20903904110E+03  0.20903904110E+03  0.00000000000E+00 0. -1.
         -2   -1    0    0    0  501 -0.00000000000E+00 -0.00000000000E+00 -0.16379382857E+02  0.16379382857E+02  0.00000000000E+00 0.  1.
         23    2    1    2    0    0 -0.11353118768E+02 -0.16839720077E+02  0.17059284205E+03  0.19542819464E+03  0.93154667198E+02 0.  0.
         13    1    3    3    0    0  0.33435201888E+02  0.10843981075E+02  0.33438555543E+02  0.48514344762E+02  0.00000000000E+00 0.  1.
        -13    1    3    3    0    0 -0.44788320656E+02 -0.27683701152E+02  0.13715428651E+03  0.14691384987E+03  0.00000000000E+00 0. -1.
         22    1    1    2    0    0  0.11353118768E+02  0.16839720077E+02  0.22066816193E+02  0.29990229324E+02  0.00000000000E+00 0.  1.
<mgrwt>
<rscale>  0 0.64772419E+02</rscale>
<asrwt>0</asrwt>
<pdfrwt beam="1">  1        2 0.32159851E-01 0.95342863E+02</pdfrwt>
<pdfrwt beam="2">  1       -2 0.25199052E-02 0.95342863E+02</pdfrwt>
<totfact> 0.77234090E+04</totfact>
</mgrwt>
</event>
<event>
 6    1  0.1535419E-002  0.9695188E+02  0.7546771E-02  0.1363494E+00
         -1   -1    0    0    0  501 -0.00000000000E+00  0.00000000000E+00  0.95543892376E+01  0.95543892376E+01  0.00000000000E+00 0.  1.
          1   -1    0    0  501    0  0.00000000000E+00 -0.00000000000E+00 -0.39010260704E+03  0.39010260704E+03  0.00000000000E+00 0. -1.
         23    2    1    2    0    0  0.24139321347E+02 -0.60539156644E+01 -0.31290946737E+03  0.32758510654E+03  0.93703311194E+02 0.  0.
         13    1    3    3    0    0 -0.23533828265E+02  0.37942502621E+00 -0.23391343500E+03  0.23509461948E+03  0.00000000000E+00 0. -1.
        -13    1    3    3    0    0  0.47673149612E+02 -0.64333406906E+01 -0.78996032370E+02  0.92490487060E+02  0.00000000000E+00 0.  1.
         22    1    1    2    0    0 -0.24139321347E+02  0.60539156644E+01 -0.67638750435E+02  0.72071889738E+02  0.00000000000E+00 0.  1.
<mgrwt>
<rscale>  0 0.69009644E+02</rscale>
<asrwt>0</asrwt>
<pdfrwt beam="1">  1        1 0.60015776E-01 0.96951881E+02</pdfrwt>
<pdfrwt beam="2">  1       -1 0.14699063E-02 0.96951881E+02</pdfrwt>
<totfact> 0.59343706E+04</totfact>
</mgrwt>
</event>
<event>
 6    1  0.1535419E-002  0.1016912E+03  0.7546771E-02  0.1321536E+00
         -3   -1    0    0    0  501 -0.00000000000E+00  0.00000000000E+00  0.29097649171E+02  0.29097649171E+02  0.00000000000E+00 0.  1.
          3   -1    0    0  501    0  0.00000000000E+00 -0.00000000000E+00 -0.20642733501E+03  0.20642733501E+03  0.00000000000E+00 0. -1.
         23    2    1    2    0    0  0.15670432155E+02  0.41648489908E+02 -0.15590172181E+03  0.18613554403E+03  0.91438147041E+02 0.  0.
         13    1    3    3    0    0 -0.31553888569E+02 -0.84742811203E+01 -0.45466687434E+02  0.55988221891E+02  0.00000000000E+00 0.  1.
        -13    1    3    3    0    0  0.47224320724E+02  0.50122771028E+02 -0.11043503438E+03  0.13014732214E+03  0.00000000000E+00 0. -1.
         22    1    1    2    0    0 -0.15670432155E+02 -0.41648489908E+02 -0.21427964027E+02  0.49389440145E+02  0.00000000000E+00 0.  1.
<mgrwt>
<rscale>  0 0.82708462E+02</rscale>
<asrwt>0</asrwt>
<pdfrwt beam="1">  1        3 0.31758050E-01 0.10169117E+03</pdfrwt>
<pdfrwt beam="2">  1       -3 0.44765616E-02 0.10169117E+03</pdfrwt>
<totfact> 0.56151051E+03</totfact>
</mgrwt>
</event>
<event>
 6    1  0.1535419E-002  0.9150699E+02  0.7546771E-02  0.1430757E+00
         -1   -1    0    0    0  501 -0.00000000000E+00  0.00000000000E+00  0.10978614829E+03  0.10978614829E+03  0.00000000000E+00 0.  1.
          1   -1    0    0  501    0  0.00000000000E+00 -0.00000000000E+00 -0.24783253905E+02  0.24783253905E+02  0.00000000000E+00 0. -1.
         23    2    1    2    0    0 -0.79790770234E+01  0.62727087040E+01  0.65336288206E+02  0.11243824897E+03  0.90942381370E+02 0.  0.
         13    1    3    3    0    0  0.14535875597E+01 -0.32849079544E+02  0.64256558610E+02  0.72180885753E+02  0.00000000000E+00 0.  1.
        -13    1    3    3    0    0 -0.94326645831E+01  0.39121788248E+02  0.10797295964E+01  0.40257363213E+02  0.00000000000E+00 0. -1.
         22    1    1    2    0    0  0.79790770234E+01 -0.62727087040E+01  0.19666606175E+02  0.22131153225E+02  0.00000000000E+00 0.  1.
<mgrwt>
<rscale>  0 0.52808273E+02</rscale>
<asrwt>0</asrwt>
<pdfrwt beam="1">  1        1 0.38128084E-02 0.91506990E+02</pdfrwt>
<pdfrwt beam="2">  1       -1 0.16890176E-01 0.91506990E+02</pdfrwt>
<totfact> 0.55354832E+04</totfact>
</mgrwt>
</event>
<event>
 6    1  0.1535419E-002  0.9490090E+02  0.7546771E-02  0.1382405E+00
          2   -1    0    0  501    0  0.00000000000E+00  0.00000000000E+00  0.27328144064E+02  0.27328144064E+02  0.00000000000E+00 0. -1.
         -2   -1    0    0    0  501 -0.00000000000E+00 -0.00000000000E+00 -0.16755578724E+03  0.16755578724E+03  0.00000000000E+00 0.  1.
         23    2    1    2    0    0  0.19170273835E+02 -0.31596022995E+01 -0.59863050821E+02  0.11220412609E+03  0.92890788417E+02 0.  0.
         11    1    3    3    0    0  0.84121865219E+01  0.32430029456E+02  0.83395165409E+01  0.34525631475E+02  0.00000000000E+00 0.  1.
        -11    1    3    3    0    0  0.10758087313E+02 -0.35589631755E+02 -0.68202567361E+02  0.77678494616E+02  0.00000000000E+00 0. -1.
         22    1    1    2    0    0 -0.19170273835E+02  0.31596022995E+01 -0.80364592360E+02  0.82679805217E+02  0.00000000000E+00 0.  1.
<mgrwt>
<rscale>  0 0.63835881E+02</rscale>
<asrwt>0</asrwt>
<pdfrwt beam="1">  1        2 0.42043298E-02 0.94900901E+02</pdfrwt>
<pdfrwt beam="2">  1       -2 0.25777814E-01 0.94900901E+02</pdfrwt>
<totfact> 0.23551053E+04</totfact>
</mgrwt>
</event>
<event>
 6    1  0.1535419E-002  0.8874283E+02  0.7546771E-02  0.1433602E+00
          2   -1    0    0  501    0  0.00000000000E+00  0.00000000000E+00  0.13784782428E+04  0.13784782428E+04  0.00000000000E+00 0. -1.
         -2   -1    0    0    0  501 -0.00000000000E+00 -0.00000000000E+00 -0.58159874701E+01  0.58159874701E+01  0.00000000000E+00 0.  1.
         23    2    1    2    0    0  0.10487264913E+02  0.19086644000E+01  0.13705591985E+04  0.13734292142E+04  0.88100306874E+02 0.  0.
         13    1    3    3    0    0 -0.99317499975E+01 -0.24791918286E+02  0.11511861101E+04  0.11514958701E+04  0.00000000000E+00 0. -1.
        -13    1    3    3    0    0  0.20419014910E+02  0.26700582686E+02  0.21937308847E+03  0.22193334412E+03  0.00000000000E+00 0.  1.
         22    1    1    2    0    0 -0.10487264913E+02 -0.19086644000E+01  0.21030567581E+01  0.10865016009E+02  0.00000000000E+00 0.  1.
<mgrwt>
<rscale>  0 0.52243773E+02</rscale>
<asrwt>0</asrwt>
<pdfrwt beam="1">  1        2 0.21207332E+00 0.88742830E+02</pdfrwt>
<pdfrwt beam="2">  1       -2 0.89476840E-03 0.88742830E+02</pdfrwt>
<totfact> 0.36530190E+04</totfact>
</mgrwt>
</event>
<event>
 6    1  0.1535419E-002  0.1132271E+03  0.7546771E-02  0.1283242E+00
          3   -1    0    0  501    0  0.00000000000E+00  0.00000000000E+00  0.16451669195E+03  0.16451669195E+03  0.00000000000E+00 0. -1.
         -3   -1    0    0    0  501 -0.00000000000E+00 -0.00000000000E+00 -0.78056194055E+02  0.78056194055E+02  0.00000000000E+00 0.  1.
         23    2    1    2    0    0  0.34452803113E+02  0.55286363962E+02  0.12357092066E+03  0.16760115026E+03  0.92610989925E+02 0.  0.
         11    1    3    3    0    0 -0.18253737558E+02  0.57438541512E+02  0.70938848682E+02  0.93084398468E+02  0.00000000000E+00 0.  1.
        -11    1    3    3    0    0  0.52706540670E+02 -0.21521775507E+01  0.52632071977E+02  0.74516751796E+02  0.00000000000E+00 0. -1.
         22    1    1    2    0    0 -0.34452803113E+02 -0.55286363962E+02 -0.37110422763E+02  0.74971735741E+02  0.00000000000E+00 0.  1.
<mgrwt>
<rscale>  0 0.98611887E+02</rscale>
<asrwt>0</asrwt>
<pdfrwt beam="1">  1        3 0.25310260E-01 0.11322709E+03</pdfrwt>
<pdfrwt beam="2">  1       -3 0.12008645E-01 0.11322709E+03</pdfrwt>
<totfact> 0.17711823E+03</totfact>
</mgrwt>
</event>
<event>
 6    1  0.1535419E-002  0.9291977E+02  0.7546771E-02  0.1396488E+00
         -4   -1    0    0    0  501 -0.00000000000E+00  0.00000000000E+00  0.16384705041E+02  0.16384705041E+02  0.00000000000E+00 0.  1.
          4   -1    0    0  501    0  0.00000000000E+00 -0.00000000000E+00 -0.18818060164E+03  0.18818060164E+03  0.00000000000E+00 0. -1.
         23    2    1    2    0    0 -0.95435145754E+01 -0.13463484824E+02 -0.15681286410E+03  0.18227550280E+03  0.91442552899E+02 0.  0.
         11    1    3    3    0    0 -0.46650978629E+02 -0.24832761423E+02 -0.10488352355E+03  0.11744587417E+03  0.00000000000E+00 0.  1.
        -11    1    3    3    0    0  0.37107464054E+02  0.11369276599E+02 -0.51929340550E+02  0.64829628634E+02  0.00000000000E+00 0. -1.
         22    1    1    2    0    0  0.95435145754E+01  0.13463484824E+02 -0.14983032500E+02  0.22289803879E+02  0.00000000000E+00 0. -1.
<mgrwt>
<rscale>  0 0.60321323E+02</rscale>
<asrwt>0</asrwt>
<pdfrwt beam="1">  1        4 0.28950862E-01 0.92919775E+02</pdfrwt>
<pdfrwt beam="2">  1       -4 0.25207238E-02 0.92919775E+02</pdfrwt>
<totfact> 0.11782206E+04</totfact>
</mgrwt>
</event>
<event>
 6    1  0.1535419E-002  0.1059584E+03  0.7546771E-02  0.1299837E+00
          1   -1    0    0  501    0  0.00000000000E+00  0.00000000000E+00  0.35831743403E+03  0.35831743403E+03  0.00000000000E+00 0. -1.
         -1   -1    0    0    0  501 -0.00000000000E+00 -0.00000000000E+00 -0.34538567951E+02  0.34538567951E+02  0.00000000000E+00 0.  1.
         23    2    1    2    0    0  0.10126700849E+02  0.57411143715E+02  0.31691117124E+03  0.33415545066E+03  0.88479292825E+02 0.  0.
         11    1    3    3    0    0  0.69751773865E+01 -0.56340716357E+01  0.20859703593E+03  0.20878965315E+03  0.00000000000E+00 0. -1.
        -11    1    3    3    0    0  0.31515234620E+01  0.63045215351E+02  0.10831413531E+03  0.12536579751E+03  0.00000000000E+00 0.  1.
         22    1    1    2    0    0 -0.10126700849E+02 -0.57411143715E+02  0.68676948405E+01  0.58700551319E+02  0.00000000000E+00 0.  1.
<mgrwt>
<rscale>  0 0.91256492E+02</rscale>
<asrwt>0</asrwt>
<pdfrwt beam="1">  1        1 0.55125757E-01 0.10595836E+03</pdfrwt>
<pdfrwt beam="2">  1       -1 0.53136261E-02 0.10595836E+03</pdfrwt>
<totfact> 0.10411863E+04</totfact>
</mgrwt>
</event>
<event>
 6    1  0.1535419E-002  0.9245141E+02  0.7546771E-02  0.1372808E+00
          2   -1    0    0  501    0  0.00000000000E+00  0.00000000000E+00  0.16815858268E+03  0.16815858268E+03  0.00000000000E+00 0. -1.
         -2   -1    0    0    0  501 -0.00000000000E+00 -0.00000000000E+00 -0.23211411816E+02  0.23211411816E+02  0.00000000000E+00 0.  1.
         23    2    1    2    0    0 -0.23174358058E+02  0.82194111924E+01  0.13747618770E+03  0.16567125559E+03  0.89121563907E+02 0.  0.
         13    1    3    3    0    0 -0.62517852617E+01 -0.27355128067E+02  0.63699915552E+01  0.28774374762E+02  0.00000000000E+00 0.  1.
        -13    1    3    3    0    0 -0.16922572797E+02  0.35574539259E+02  0.13110619615E+03  0.13689688083E+03  0.00000000000E+00 0. -1.
         22    1    1    2    0    0  0.23174358058E+02 -0.82194111924E+01  0.74709831623E+01  0.25698738902E+02  0.00000000000E+00 0.  1.
<mgrwt>
<rscale>  0 0.66392577E+02</rscale>
<asrwt>0</asrwt>
<pdfrwt beam="1">  1        2 0.25870550E-01 0.92451407E+02</pdfrwt>
<pdfrwt beam="2">  1       -2 0.35709865E-02 0.92451407E+02</pdfrwt>
<totfact> 0.58497109E+04</totfact>
</mgrwt>
</event>
<event>
 6    1  0.1535419E-002  0.9477735E+02  0.7546771E-02  0.1371948E+00
         -2   -1    0    0    0  501 -0.00000000000E+00  0.00000000000E+00  0.52855740915E+01  0.52855740915E+01  0.00000000000E+00 0. -1.
          2   -1    0    0  501    0  0.00000000000E+00 -0.00000000000E+00 -0.71297615559E+03  0.71297615559E+03  0.00000000000E+00 0.  1.
         23    2    1    2    0    0 -0.12825801758E+02  0.19270906732E+02 -0.63329671128E+03  0.64034949083E+03  0.91906892285E+02 0.  0.
         13    1    3    3    0    0  0.24809352569E+02  0.79475769632E+01 -0.56514938429E+02  0.62230267717E+02  0.00000000000E+00 0. -1.
        -13    1    3    3    0    0 -0.37635154327E+02  0.11323329769E+02 -0.57678177285E+03  0.57811922311E+03  0.00000000000E+00 0.  1.
         22    1    1    2    0    0  0.12825801758E+02 -0.19270906732E+02 -0.74393870222E+02  0.77912238856E+02  0.00000000000E+00 0.  1.
<mgrwt>
<rscale>  0 0.66628610E+02</rscale>
<asrwt>0</asrwt>
<pdfrwt beam="1">  1        2 0.10968858E+00 0.94777349E+02</pdfrwt>
<pdfrwt beam="2">  1       -2 0.81316567E-03 0.94777349E+02</pdfrwt>
<totfact> 0.10375936E+05</totfact>
</mgrwt>
</event>
<event>
 6    1  0.1535419E-002  0.9215344E+02  0.7546771E-02  0.1394432E+00
         -2   -1    0    0    0  501 -0.00000000000E+00  0.00000000000E+00  0.23179248982E+02  0.23179248982E+02  0.00000000000E+00 0.  1.
          2   -1    0    0  501    0  0.00000000000E+00 -0.00000000000E+00 -0.22325324063E+03  0.22325324063E+03  0.00000000000E+00 0. -1.
         23    2    1    2    0    0 -0.14679546651E+01 -0.17419889204E+02 -0.20780191854E+03  0.22731892676E+03  0.90480106544E+02 0.  0.
         13    1    3    3    0    0  0.10522702328E+02  0.35524605210E+02 -0.69799110272E+02  0.79023038630E+02  0.00000000000E+00 0.  1.
        -13    1    3    3    0    0 -0.11990656993E+02 -0.52944494415E+02 -0.13800280827E+03  0.14829588813E+03  0.00000000000E+00 0. -1.
         22    1    1    2    0    0  0.14679546651E+01  0.17419889204E+02  0.77279268983E+01  0.19113562853E+02  0.00000000000E+00 0.  1.
<mgrwt>
<rscale>  0 0.60817584E+02</rscale>
<asrwt>0</asrwt>
<pdfrwt beam="1">  1        2 0.34346652E-01 0.92153443E+02</pdfrwt>
<pdfrwt beam="2">  1       -2 0.35660384E-02 0.92153443E+02</pdfrwt>
<totfact> 0.43251939E+04</totfact>
</mgrwt>
</event>
<event>
 6    1  0.1535419E-002  0.9296029E+02  0.7546771E-02  0.1384024E+00
          2   -1    0    0  501    0  0.00000000000E+00  0.00000000000E+00  0.35766374916E+03  0.35766374916E+03  0.00000000000E+00 0. -1.
         -2   -1    0    0    0  501 -0.00000000000E+00 -0.00000000000E+00 -0.12942831821E+02  0.12942831821E+02  0.00000000000E+00 0.  1.
         23    2    1    2    0    0 -0.12566160142E+02 -0.15732342254E+02  0.33607347432E+03  0.34869326895E+03  0.90753516143E+02 0.  0.
         11    1    3    3    0    0  0.17852515546E+02 -0.44555092701E+02  0.22293311062E+03  0.22804175145E+03  0.00000000000E+00 0. -1.
        -11    1    3    3    0    0 -0.30418675688E+02  0.28822750447E+02  0.11314036371E+03  0.12065151749E+03  0.00000000000E+00 0.  1.
         22    1    1    2    0    0  0.12566160142E+02  0.15732342254E+02  0.86474430148E+01  0.21913312032E+02  0.00000000000E+00 0.  1.
<mgrwt>
<rscale>  0 0.63417713E+02</rscale>
<asrwt>0</asrwt>
<pdfrwt beam="1">  1        2 0.55025185E-01 0.92960291E+02</pdfrwt>
<pdfrwt beam="2">  1       -2 0.19912052E-02 0.92960291E+02</pdfrwt>
<totfact> 0.61464115E+04</totfact>
</mgrwt>
</event>
<event>
 6    1  0.1535419E-002  0.9089437E+02  0.7546771E-02  0.1400403E+00
         -2   -1    0    0    0  501 -0.00000000000E+00  0.00000000000E+00  0.11570659814E+02  0.11570659814E+02  0.00000000000E+00 0.  1.
          2   -1    0    0  501    0  0.00000000000E+00 -0.00000000000E+00 -0.40136358907E+03  0.40136358907E+03  0.00000000000E+00 0. -1.
         23    2    1    2    0    0  0.14918541271E+02 -0.72084917055E+01 -0.38514590307E+03  0.39572610898E+03  0.89371480107E+02 0.  0.
         13    1    3    3    0    0  0.45093763128E+02  0.18296829979E+02 -0.25918188381E+03  0.26371095987E+03  0.00000000000E+00 0. -1.
        -13    1    3    3    0    0 -0.30175221857E+02 -0.25505321685E+02 -0.12596401926E+03  0.13201514911E+03  0.00000000000E+00 0.  1.
         22    1    1    2    0    0 -0.14918541271E+02  0.72084917055E+01 -0.46470261860E+01  0.17208139896E+02  0.00000000000E+00 0.  1.
<mgrwt>
<rscale>  0 0.59391668E+02</rscale>
<asrwt>0</asrwt>
<pdfrwt beam="1">  1        2 0.61748244E-01 0.90894371E+02</pdfrwt>
<pdfrwt beam="2">  1       -2 0.17801015E-02 0.90894371E+02</pdfrwt>
<totfact> 0.63761804E+04</totfact>
</mgrwt>
</event>
<event>
 6    1  0.1535419E-002  0.9600922E+02  0.7546771E-02  0.1384908E+00
          2   -1    0    0  501    0  0.00000000000E+00  0.00000000000E+00  0.24579899298E+04  0.24579899298E+04  0.00000000000E+00 0. -1.
         -2   -1    0    0    0  501 -0.00000000000E+00 -0.00000000000E+00 -0.18238089342E+01  0.18238089342E+01  0.00000000000E+00 0.  1.
         23    2    1    2    0    0  0.17964118903E+02 -0.13808070786E+01  0.23613489922E+04  0.23632999880E+04  0.94303520757E+02 0.  0.
         13    1    3    3    0    0  0.34658312541E+02 -0.15636421853E+02  0.39440988980E+03  0.39623838468E+03  0.00000000000E+00 0.  1.
        -13    1    3    3    0    0 -0.16694193638E+02  0.14255614775E+02  0.19669391024E+04  0.19670616033E+04  0.00000000000E+00 0. -1.
         22    1    1    2    0    0 -0.17964118903E+02  0.13808070786E+01  0.94817128653E+02  0.96513750741E+02  0.00000000000E+00 0.  1.
<mgrwt>
<rscale>  0 0.63191109E+02</rscale>
<asrwt>0</asrwt>
<pdfrwt beam="1">  1        2 0.37814965E+00 0.96009219E+02</pdfrwt>
<pdfrwt beam="2">  1       -2 0.28058796E-03 0.96009219E+02</pdfrwt>
<totfact> 0.52843605E+04</totfact>
</mgrwt>
</event>
<event>
 6    1  0.1535419E-002  0.9391343E+02  0.7546771E-02  0.1388845E+00
          1   -1    0    0  501    0  0.00000000000E+00  0.00000000000E+00  0.36548412714E+03  0.36548412714E+03  0.00000000000E+00 0. -1.
         -1   -1    0    0    0  501 -0.00000000000E+00 -0.00000000000E+00 -0.11478783243E+02  0.11478783243E+02  0.00000000000E+00 0.  1.
         23    2    1    2    0    0  0.46623900845E+01  0.17452775202E+02  0.34341060420E+03  0.35602047134E+03  0.92159620759E+02 0.  0.
         13    1    3    3    0    0 -0.14386484230E+02  0.32069024638E+02  0.32180987829E+03  0.32372363373E+03  0.00000000000E+00 0. -1.
        -13    1    3    3    0    0  0.19048874314E+02 -0.14616249436E+02  0.21600725902E+02  0.32296837612E+02  0.00000000000E+00 0.  1.
         22    1    1    2    0    0 -0.46623900845E+01 -0.17452775202E+02  0.10594739702E+02  0.20942439039E+02  0.00000000000E+00 0.  1.
<mgrwt>
<rscale>  0 0.62194806E+02</rscale>
<asrwt>0</asrwt>
<pdfrwt beam="1">  1        1 0.56228318E-01 0.93913433E+02</pdfrwt>
<pdfrwt beam="2">  1       -1 0.17659669E-02 0.93913433E+02</pdfrwt>
<totfact> 0.49344033E+04</totfact>
</mgrwt>
</event>
<event>
 6    1  0.1535419E-002  0.9263855E+02  0.7546771E-02  0.1410059E+00
         -2   -1    0    0    0  501 -0.00000000000E+00  0.00000000000E+00  0.36909248966E+01  0.36909248966E+01  0.00000000000E+00 0.  1.
          2   -1    0    0  501    0  0.00000000000E+00 -0.00000000000E+00 -0.10031523499E+04  0.10031523499E+04  0.00000000000E+00 0. -1.
         23    2    1    2    0    0  0.72684996716E+01 -0.11313074527E+02 -0.97051177893E+03  0.97492308134E+03  0.91657431426E+02 0.  0.
         11    1    3    3    0    0 -0.90931146325E+01  0.35865886520E+02 -0.58840565131E+03  0.58956785618E+03  0.00000000000E+00 0. -1.
        -11    1    3    3    0    0  0.16361614304E+02 -0.47178961047E+02 -0.38210612762E+03  0.38535522516E+03  0.00000000000E+00 0.  1.
         22    1    1    2    0    0 -0.72684996716E+01  0.11313074527E+02 -0.28949646055E+02  0.31920193443E+02  0.00000000000E+00 0. -1.
<mgrwt>
<rscale>  0 0.57180593E+02</rscale>
<asrwt>0</asrwt>
<pdfrwt beam="1">  1        2 0.15433099E+00 0.92638553E+02</pdfrwt>
<pdfrwt beam="2">  1       -2 0.56783513E-03 0.92638553E+02</pdfrwt>
<totfact> 0.11173340E+05</totfact>
</mgrwt>
</event>
<event>
 6    1  0.1535419E-002  0.6923579E+02  0.7546771E-02  0.1425761E+00
         -2   -1    0    0    0  501 -0.00000000000E+00  0.00000000000E+00  0.22596884724E+02  0.22596884724E+02  0.00000000000E+00 0.  1.
          2   -1    0    0  501    0  0.00000000000E+00 -0.00000000000E+00 -0.13198171921E+03  0.13198171921E+03  0.00000000000E+00 0. -1.
         23    2    1    2    0    0 -0.19288722757E+02  0.16342523981E+02 -0.10919741776E+03  0.12929683104E+03  0.64455112711E+02 0.  0.
         13    1    3    3    0    0  0.12399147330E+02  0.31664205616E+02 -0.55649130350E+02  0.65216458663E+02  0.00000000000E+00 0. -1.
        -13    1    3    3    0    0 -0.31687870087E+02 -0.15321681635E+02 -0.53548287410E+02  0.64080372372E+02  0.00000000000E+00 0.  1.
         22    1    1    2    0    0  0.19288722757E+02 -0.16342523981E+02 -0.18741672157E+00  0.25281772895E+02  0.00000000000E+00 0.  1.
<mgrwt>
<rscale>  0 0.53820395E+02</rscale>
<asrwt>0</asrwt>
<pdfrwt beam="1">  1        2 0.20304880E-01 0.69235789E+02</pdfrwt>
<pdfrwt beam="2">  1       -2 0.34764438E-02 0.69235789E+02</pdfrwt>
<totfact> 0.75955159E+04</totfact>
</mgrwt>
</event>
<event>
 6    1  0.1535419E-002  0.9267655E+02  0.7546771E-02  0.1402292E+00
          1   -1    0    0  501    0  0.00000000000E+00  0.00000000000E+00  0.27399991286E+03  0.27399991286E+03  0.00000000000E+00 0. -1.
         -1   -1    0    0    0  501 -0.00000000000E+00 -0.00000000000E+00 -0.11429628552E+02  0.11429628552E+02  0.00000000000E+00 0.  1.
         23    2    1    2    0    0 -0.24795689604E+01  0.14967435171E+02  0.24641837306E+03  0.26326974415E+03  0.91426315820E+02 0.  0.
         13    1    3    3    0    0 -0.42685843950E+02  0.20831666766E+02  0.91275196948E+02  0.10289412613E+03  0.00000000000E+00 0.  1.
        -13    1    3    3    0    0  0.40206274990E+02 -0.58642315955E+01  0.15514317611E+03  0.16037561802E+03  0.00000000000E+00 0. -1.
         22    1    1    2    0    0  0.24795689604E+01 -0.14967435171E+02  0.16151911249E+02  0.22159797265E+02  0.00000000000E+00 0.  1.
<mgrwt>
<rscale>  0 0.58950034E+02</rscale>
<asrwt>0</asrwt>
<pdfrwt beam="1">  1        1 0.42153828E-01 0.92676554E+02</pdfrwt>
<pdfrwt beam="2">  1       -1 0.17584046E-02 0.92676554E+02</pdfrwt>
<totfact> 0.70544223E+04</totfact>
</mgrwt>
</event>
<event>
 6    1  0.1535419E-002  0.9227680E+02  0.7546771E-02  0.1417962E+00
          2   -1    0    0  501    0  0.00000000000E+00  0.00000000000E+00  0.52034665085E+03  0.52034665085E+03  0.00000000000E+00 0. -1.
         -2   -1    0    0    0  501 -0.00000000000E+00 -0.00000000000E+00 -0.52893415577E+01  0.52893415577E+01  0.00000000000E+00 0.  1.
         23    2    1    2    0    0 -0.10257764130E+02 -0.62954841130E+01  0.47159125309E+03  0.48053440832E+03  0.91488538878E+02 0.  0.
         11    1    3    3    0    0 -0.18512135424E+01 -0.48629183662E+02  0.27350327272E+03  0.27779896451E+03  0.00000000000E+00 0. -1.
        -11    1    3    3    0    0 -0.84065505878E+01  0.42333699549E+02  0.19808798037E+03  0.20273544381E+03  0.00000000000E+00 0.  1.
         22    1    1    2    0    0  0.10257764130E+02  0.62954841130E+01  0.43466056200E+02  0.45101584082E+02  0.00000000000E+00 0.  1.
<mgrwt>
<rscale>  0 0.55454401E+02</rscale>
<asrwt>0</asrwt>
<pdfrwt beam="1">  1        2 0.80053291E-01 0.92276799E+02</pdfrwt>
<pdfrwt beam="2">  1       -2 0.81374526E-03 0.92276799E+02</pdfrwt>
<totfact> 0.14724683E+05</totfact>
</mgrwt>
</event>
<event>
 6    1  0.1535419E-002  0.9516350E+02  0.7546771E-02  0.1364470E+00
         -2   -1    0    0    0  501 -0.00000000000E+00  0.00000000000E+00  0.28985520970E+01  0.28985520970E+01  0.00000000000E+00 0. -1.
          2   -1    0    0  501    0  0.00000000000E+00 -0.00000000000E+00 -0.19003816911E+04  0.19003816911E+04  0.00000000000E+00 0.  1.
         23    2    1    2    0    0 -0.87619515820E+01  0.24363201846E+02 -0.17969044356E+04  0.17994225859E+04  0.91573765790E+02 0.  0.
         11    1    3    3    0    0 -0.81874934049E+01 -0.22240031197E+02 -0.13271875919E+04  0.13273991706E+04  0.00000000000E+00 0.  1.
        -11    1    3    3    0    0 -0.57445817716E+00  0.46603233043E+02 -0.46971684371E+03  0.47202341530E+03  0.00000000000E+00 0. -1.
         22    1    1    2    0    0  0.87619515820E+01 -0.24363201846E+02 -0.10057870331E+03  0.10385765721E+03  0.00000000000E+00 0.  1.
<mgrwt>
<rscale>  0 0.68728915E+02</rscale>
<asrwt>0</asrwt>
<pdfrwt beam="1">  1        2 0.29236681E+00 0.95163501E+02</pdfrwt>
<pdfrwt beam="2">  1       -2 0.44593049E-03 0.95163501E+02</pdfrwt>
<totfact> 0.53227237E+04</totfact>
</mgrwt>
</event>
<event>
 6    1  0.1535419E-002  0.9123026E+02  0.7546771E-02  0.1392847E+00
          4   -1    0    0  501    0  0.00000000000E+00  0.00000000000E+00  0.57703168219E+02  0.57703168219E+02  0.00000000000E+00 0.  1.
         -4   -1    0    0    0  501 -0.00000000000E+00 -0.00000000000E+00 -0.61382093396E+02  0.61382093396E+02  0.00000000000E+00 0. -1.
         23    2    1    2    0    0  0.13254726136E+02  0.12877418886E+02  0.15403052303E+02  0.92521422535E+02  0.89338927269E+02 0.  0.
         11    1    3    3    0    0 -0.17628124261E+02  0.53146757336E+01  0.45286954602E+02  0.48886652577E+02  0.00000000000E+00 0.  1.
        -11    1    3    3    0    0  0.30882850398E+02  0.75627431525E+01 -0.29883902299E+02  0.43634769958E+02  0.00000000000E+00 0. -1.
         22    1    1    2    0    0 -0.13254726136E+02 -0.12877418886E+02 -0.19081977480E+02  0.26563839079E+02  0.00000000000E+00 0. -1.
<mgrwt>
<rscale>  0 0.61204098E+02</rscale>
<asrwt>0</asrwt>
<pdfrwt beam="1">  1        4 0.88774105E-02 0.91230256E+02</pdfrwt>
<pdfrwt beam="2">  1       -4 0.94433990E-02 0.91230256E+02</pdfrwt>
<totfact> 0.11254934E+04</totfact>
</mgrwt>
</event>
<event>
 6    1  0.1535419E-002  0.9315532E+02  0.7546771E-02  0.1364692E+00
         -1   -1    0    0    0  501 -0.00000000000E+00  0.00000000000E+00  0.35894161399E+02  0.35894161399E+02  0.00000000000E+00 0.  1.
          1   -1    0    0  501    0  0.00000000000E+00 -0.00000000000E+00 -0.31932652490E+03  0.31932652490E+03  0.00000000000E+00 0. -1.
         23    2    1    2    0    0  0.99584547080E+01  0.25633034077E+02 -0.30586228744E+03  0.31973372047E+03  0.89003875573E+02 0.  0.
         13    1    3    3    0    0 -0.69710328377E+01 -0.22422248627E+02 -0.25041183611E+02  0.34328026582E+02  0.00000000000E+00 0.  1.
        -13    1    3    3    0    0  0.16929487546E+02  0.48055282704E+02 -0.28082110383E+03  0.28540569389E+03  0.00000000000E+00 0. -1.
         22    1    1    2    0    0 -0.99584547080E+01 -0.25633034077E+02  0.22429923941E+02  0.35486965835E+02  0.00000000000E+00 0.  1.
<mgrwt>
<rscale>  0 0.68665248E+02</rscale>
<asrwt>0</asrwt>
<pdfrwt beam="1">  1        1 0.49127159E-01 0.93155317E+02</pdfrwt>
<pdfrwt beam="2">  1       -1 0.55221785E-02 0.93155317E+02</pdfrwt>
<totfact> 0.11214624E+04</totfact>
</mgrwt>
</event>
<event>
 6    1  0.1535419E-002  0.9065139E+02  0.7546771E-02  0.1427837E+00
          2   -1    0    0  501    0  0.00000000000E+00  0.00000000000E+00  0.10742718270E+03  0.10742718270E+03  0.00000000000E+00 0. -1.
         -2   -1    0    0    0  501 -0.00000000000E+00 -0.00000000000E+00 -0.24112784894E+02  0.24112784894E+02  0.00000000000E+00 0.  1.
         23    2    1    2    0    0  0.10388419965E+02  0.33419396400E+01  0.71486803279E+02  0.11544711756E+03  0.89992144546E+02 0.  0.
         13    1    3    3    0    0  0.13607054072E+02  0.26735832072E+02 -0.91979822437E+01  0.31377691350E+02  0.00000000000E+00 0.  1.
        -13    1    3    3    0    0 -0.32186341064E+01 -0.23393892432E+02  0.80684785522E+02  0.84069426211E+02  0.00000000000E+00 0. -1.
         22    1    1    2    0    0 -0.10388419965E+02 -0.33419396400E+01  0.11827594531E+02  0.16092850038E+02  0.00000000000E+00 0. -1.
<mgrwt>
<rscale>  0 0.53396681E+02</rscale>
<asrwt>0</asrwt>
<pdfrwt beam="1">  1        2 0.16527259E-01 0.90651387E+02</pdfrwt>
<pdfrwt beam="2">  1       -2 0.37096593E-02 0.90651387E+02</pdfrwt>
<totfact> 0.90849808E+04</totfact>
</mgrwt>
</event>
<event>
 6    1  0.1535419E-002  0.8854177E+02  0.7546771E-02  0.1410546E+00
          1   -1    0    0  501    0  0.00000000000E+00  0.00000000000E+00  0.10662488202E+04  0.10662488202E+04  0.00000000000E+00 0. -1.
         -1   -1    0    0    0  501 -0.00000000000E+00 -0.00000000000E+00 -0.27769885514E+01  0.27769885514E+01  0.00000000000E+00 0.  1.
         23    2    1    2    0    0  0.14841585725E+02  0.36533059514E+01  0.99168473154E+03  0.99562957551E+03  0.87212530985E+02 0.  0.
         13    1    3    3    0    0  0.14655218793E+00 -0.36886085456E+02  0.25157966988E+03  0.25426941435E+03  0.00000000000E+00 0.  1.
        -13    1    3    3    0    0  0.14695033537E+02  0.40539391408E+02  0.74010506166E+03  0.74136016116E+03  0.00000000000E+00 0. -1.
         22    1    1    2    0    0 -0.14841585725E+02 -0.36533059514E+01  0.71787100116E+02  0.73396233243E+02  0.00000000000E+00 0.  1.
<mgrwt>
<rscale>  0 0.57072216E+02</rscale>
<asrwt>0</asrwt>
<pdfrwt beam="1">  1        1 0.16403795E+00 0.88541769E+02</pdfrwt>
<pdfrwt beam="2">  1       -1 0.42722986E-03 0.88541769E+02</pdfrwt>
<totfact> 0.81172441E+04</totfact>
</mgrwt>
</event>
<event>
 6    1  0.1535419E-002  0.9907956E+02  0.7546771E-02  0.1336458E+00
          1   -1    0    0  501    0  0.00000000000E+00  0.00000000000E+00  0.10835847088E+04  0.10835847088E+04  0.00000000000E+00 0. -1.
         -1   -1    0    0    0  501 -0.00000000000E+00 -0.00000000000E+00 -0.74133787105E+01  0.74133787105E+01  0.00000000000E+00 0.  1.
         23    2    1    2    0    0  0.36844480211E+02 -0.32518289890E+01  0.10127043585E+04  0.10175396190E+04  0.91916638329E+02 0.  0.
         13    1    3    3    0    0  0.30799090769E+02  0.22886385235E+02  0.92565248806E+03  0.92644746169E+03  0.00000000000E+00 0. -1.
        -13    1    3    3    0    0  0.60453894425E+01 -0.26138214224E+02  0.87051870394E+02  0.91092157266E+02  0.00000000000E+00 0.  1.
         22    1    1    2    0    0 -0.36844480211E+02  0.32518289890E+01  0.63466971646E+02  0.73458468563E+02  0.00000000000E+00 0.  1.
<mgrwt>
<rscale>  0 0.77446604E+02</rscale>
<asrwt>0</asrwt>
<pdfrwt beam="1">  1        1 0.16670521E+00 0.99079556E+02</pdfrwt>
<pdfrwt beam="2">  1       -1 0.11405207E-02 0.99079556E+02</pdfrwt>
<totfact> 0.20091693E+04</totfact>
</mgrwt>
</event>
<event>
 6    1  0.1535419E-002  0.9181126E+02  0.7546771E-02  0.1402884E+00
         -2   -1    0    0    0  501 -0.00000000000E+00  0.00000000000E+00  0.60087339794E+01  0.60087339794E+01  0.00000000000E+00 0.  1.
          2   -1    0    0  501    0  0.00000000000E+00 -0.00000000000E+00 -0.62209998691E+03  0.62209998691E+03  0.00000000000E+00 0. -1.
         23    2    1    2    0    0 -0.15387967137E+02 -0.14827269568E+01 -0.59453445268E+03  0.60158168470E+03  0.90500386369E+02 0.  0.
         11    1    3    3    0    0 -0.65059223666E+00  0.43997792164E+02 -0.28500636276E+03  0.28838317531E+03  0.00000000000E+00 0.  1.
        -11    1    3    3    0    0 -0.14737374900E+02 -0.45480519121E+02 -0.30952808992E+03  0.31319850939E+03  0.00000000000E+00 0. -1.
         22    1    1    2    0    0  0.15387967137E+02  0.14827269568E+01 -0.21556800248E+02  0.26527036185E+02  0.00000000000E+00 0.  1.
<mgrwt>
<rscale>  0 0.58812411E+02</rscale>
<asrwt>0</asrwt>
<pdfrwt beam="1">  1        2 0.95707673E-01 0.91811263E+02</pdfrwt>
<pdfrwt beam="2">  1       -2 0.92442078E-03 0.91811263E+02</pdfrwt>
<totfact> 0.10083451E+05</totfact>
</mgrwt>
</event>
<event>
 6    1  0.1535419E-002  0.9268791E+02  0.7546771E-02  0.1394802E+00
          1   -1    0    0  501    0  0.00000000000E+00  0.00000000000E+00  0.10823722212E+03  0.10823722212E+03  0.00000000000E+00 0. -1.
         -1   -1    0    0    0  501 -0.00000000000E+00 -0.00000000000E+00 -0.27830289028E+02  0.27830289028E+02  0.00000000000E+00 0.  1.
         23    2    1    2    0    0  0.12399284026E+02 -0.11746406045E+02  0.67728850963E+02  0.11479654347E+03  0.91100652254E+02 0.  0.
         11    1    3    3    0    0  0.16136607145E+02 -0.40883782941E+02  0.34080464504E+01  0.44085015349E+02  0.00000000000E+00 0.  1.
        -11    1    3    3    0    0 -0.37373231188E+01  0.29137376896E+02  0.64320804513E+02  0.70711528124E+02  0.00000000000E+00 0. -1.
         22    1    1    2    0    0 -0.12399284026E+02  0.11746406045E+02  0.12678082128E+02  0.21270967674E+02  0.00000000000E+00 0.  1.
<mgrwt>
<rscale>  0 0.60727885E+02</rscale>
<asrwt>0</asrwt>
<pdfrwt beam="1">  1        1 0.16651880E-01 0.92687913E+02</pdfrwt>
<pdfrwt beam="2">  1       -1 0.42815830E-02 0.92687913E+02</pdfrwt>
<totfact> 0.62000447E+04</totfact>
</mgrwt>
</event>
<event>
 6    1  0.1535419E-002  0.9529341E+02  0.7546771E-02  0.1398996E+00
         -2   -1    0    0    0  501 -0.00000000000E+00  0.00000000000E+00  0.45266992037E+01  0.45266992037E+01  0.00000000000E+00 0.  1.
          2   -1    0    0  501    0  0.00000000000E+00 -0.00000000000E+00 -0.67045360197E+03  0.67045360197E+03  0.00000000000E+00 0. -1.
         23    2    1    2    0    0 -0.31039084637E+01  0.14371151043E+02 -0.58941798334E+03  0.59707151488E+03  0.94152379503E+02 0.  0.
         11    1    3    3    0    0 -0.15526101098E+02 -0.65502004554E+01 -0.16324514429E+02  0.23461771302E+02  0.00000000000E+00 0.  1.
        -11    1    3    3    0    0  0.12422192634E+02  0.20921351498E+02 -0.57309346891E+03  0.57360974358E+03  0.00000000000E+00 0. -1.
         22    1    1    2    0    0  0.31039084637E+01 -0.14371151043E+02 -0.76508919426E+02  0.77908786294E+02  0.00000000000E+00 0. -1.
<mgrwt>
<rscale>  0 0.59723485E+02</rscale>
<asrwt>0</asrwt>
<pdfrwt beam="1">  1        2 0.10314674E+00 0.95293414E+02</pdfrwt>
<pdfrwt beam="2">  1       -2 0.69641506E-03 0.95293414E+02</pdfrwt>
<totfact> 0.13881303E+05</totfact>
</mgrwt>
</event>
<event>
 6    1  0.1535419E-002  0.9292793E+02  0.7546771E-02  0.1390946E+00
          2   -1    0    0  501    0  0.00000000000E+00  0.00000000000E+00  0.80146162165E+02  0.80146162165E+02  0.00000000000E+00 0. -1.
         -2   -1    0    0    0  501 -0.00000000000E+00 -0.00000000000E+00 -0.39249191435E+02  0.39249191435E+02  0.00000000000E+00 0.  1.
         23    2    1    2    0    0  0.18012535441E+02  0.71445340571E+00  0.27423488639E+02  0.96889874348E+02  0.91162701503E+02 0.  0.
         13    1    3    3    0    0  0.34497641622E+01  0.21126307846E+02 -0.28475887024E+02  0.35624400315E+02  0.00000000000E+00 0.  1.
        -13    1    3    3    0    0  0.14562771278E+02 -0.20411854440E+02  0.55899375663E+02  0.61265474033E+02  0.00000000000E+00 0. -1.
         22    1    1    2    0    0 -0.18012535441E+02 -0.71445340571E+00  0.13473482091E+02  0.22505479251E+02  0.00000000000E+00 0. -1.
<mgrwt>
<rscale>  0 0.61672101E+02</rscale>
<asrwt>0</asrwt>
<pdfrwt beam="1">  1        2 0.12330179E-01 0.92927929E+02</pdfrwt>
<pdfrwt beam="2">  1       -2 0.60383372E-02 0.92927929E+02</pdfrwt>
<totfact> 0.62270896E+04</totfact>
</mgrwt>
</event>
<event>
 6    1  0.1535419E-002  0.1061582E+03  0.7546771E-02  0.1354095E+00
          1   -1    0    0  501    0  0.00000000000E+00  0.00000000000E+00  0.35847429171E+03  0.35847429171E+03  0.00000000000E+00 0. -1.
         -1   -1    0    0    0  501 -0.00000000000E+00 -0.00000000000E+00 -0.12244283400E+02  0.12244283400E+02  0.00000000000E+00 0.  1.
         23    2    1    2    0    0  0.37670514852E+01 -0.21885907797E+02  0.31492718964E+03  0.33233824039E+03  0.10380938113E+03 0.  0.
         13    1    3    3    0    0 -0.40502409397E+01  0.30773208844E+02  0.32511568135E+02  0.44948825311E+02  0.00000000000E+00 0.  1.
        -13    1    3    3    0    0  0.78172924249E+01 -0.52659116640E+02  0.28241562151E+03  0.28738941508E+03  0.00000000000E+00 0. -1.
         22    1    1    2    0    0 -0.37670514852E+01  0.21885907797E+02  0.31302818667E+02  0.38380334724E+02  0.00000000000E+00 0.  1.
<mgrwt>
<rscale>  0 0.71794530E+02</rscale>
<asrwt>0</asrwt>
<pdfrwt beam="1">  1        1 0.55149883E-01 0.10615824E+03</pdfrwt>
<pdfrwt beam="2">  1       -1 0.18837362E-02 0.10615824E+03</pdfrwt>
<totfact> 0.46807487E+04</totfact>
</mgrwt>
</event>
<event>
 6    1  0.1535419E-002  0.9140596E+02  0.7546771E-02  0.1410261E+00
          2   -1    0    0  501    0  0.00000000000E+00  0.00000000000E+00  0.16279842063E+03  0.16279842063E+03  0.00000000000E+00 0. -1.
         -2   -1    0    0    0  501 -0.00000000000E+00 -0.00000000000E+00 -0.17297006720E+02  0.17297006720E+02  0.00000000000E+00 0.  1.
         23    2    1    2    0    0  0.12998346529E+02  0.50758315071E+01  0.13286149037E+03  0.16126755585E+03  0.90334533101E+02 0.  0.
         13    1    3    3    0    0  0.50908790813E+02 -0.22264250308E+01  0.59270668318E+02  0.78164404132E+02  0.00000000000E+00 0.  1.
        -13    1    3    3    0    0 -0.37910444283E+02  0.73022565379E+01  0.73590822049E+02  0.83103151722E+02  0.00000000000E+00 0. -1.
         22    1    1    2    0    0 -0.12998346529E+02 -0.50758315071E+01  0.12639923546E+02  0.18827871500E+02  0.00000000000E+00 0. -1.
<mgrwt>
<rscale>  0 0.57135692E+02</rscale>
<asrwt>0</asrwt>
<pdfrwt beam="1">  1        2 0.25045910E-01 0.91405957E+02</pdfrwt>
<pdfrwt beam="2">  1       -2 0.26610781E-02 0.91405957E+02</pdfrwt>
<totfact> 0.92834991E+04</totfact>
</mgrwt>
</event>
<event>
 6    1  0.1535419E-002  0.9279390E+02  0.7546771E-02  0.1409314E+00
          2   -1    0    0  501    0  0.00000000000E+00  0.00000000000E+00  0.15319847211E+04  0.15319847211E+04  0.00000000000E+00 0. -1.
         -2   -1    0    0    0  501 -0.00000000000E+00 -0.00000000000E+00 -0.45420010050E+01  0.45420010050E+01  0.00000000000E+00 0.  1.
         23    2    1    2    0    0 -0.92849099981E+01  0.98495821494E+01  0.15158999281E+04  0.15187374032E+04  0.91801328225E+02 0.  0.
         11    1    3    3    0    0  0.18205489160E+02 -0.32897232995E+02  0.42703512067E+03  0.42868713774E+03  0.00000000000E+00 0.  1.
        -11    1    3    3    0    0 -0.27490399158E+02  0.42746815145E+02  0.10888648075E+04  0.10900502654E+04  0.00000000000E+00 0. -1.
         22    1    1    2    0    0  0.92849099981E+01 -0.98495821494E+01  0.11542791997E+02  0.17789318966E+02  0.00000000000E+00 0.  1.
<mgrwt>
<rscale>  0 0.57347212E+02</rscale>
<asrwt>0</asrwt>
<pdfrwt beam="1">  1        2 0.23568954E+00 0.92793899E+02</pdfrwt>
<pdfrwt beam="2">  1       -2 0.69877061E-03 0.92793899E+02</pdfrwt>
<totfact> 0.43341426E+04</totfact>
</mgrwt>
</event>
<event>
 6    1  0.1535419E-002  0.9128513E+02  0.7546771E-02  0.1413851E+00
         -2   -1    0    0    0  501 -0.00000000000E+00  0.00000000000E+00  0.55356112698E+02  0.55356112698E+02  0.00000000000E+00 0.  1.
          2   -1    0    0  501    0  0.00000000000E+00 -0.00000000000E+00 -0.72976616491E+02  0.72976616491E+02  0.00000000000E+00 0. -1.
         23    2    1    2    0    0  0.11595291755E+02 -0.64087453881E+01 -0.42078831509E+02  0.10051667981E+03  0.90318614088E+02 0.  0.
         13    1    3    3    0    0  0.66798496018E+01 -0.48384110298E+02 -0.25698692194E+02  0.55191170494E+02  0.00000000000E+00 0. -1.
        -13    1    3    3    0    0  0.49154421531E+01  0.41975364910E+02 -0.16380139314E+02  0.45325509317E+02  0.00000000000E+00 0.  1.
         22    1    1    2    0    0 -0.11595291755E+02  0.64087453881E+01  0.24458327716E+02  0.27816049378E+02  0.00000000000E+00 0.  1.
<mgrwt>
<rscale>  0 0.56343228E+02</rscale>
<asrwt>0</asrwt>
<pdfrwt beam="1">  1        2 0.11227172E-01 0.91285129E+02</pdfrwt>
<pdfrwt beam="2">  1       -2 0.85163250E-02 0.91285129E+02</pdfrwt>
<totfact> 0.41211611E+04</totfact>
</mgrwt>
</event>
<event>
 6    1  0.1535419E-002  0.9391223E+02  0.7546771E-02  0.1413453E+00
         -4   -1    0    0    0  501 -0.00000000000E+00  0.00000000000E+00  0.40350048727E+02  0.40350048727E+02  0.00000000000E+00 0.  1.
          4   -1    0    0  501    0  0.00000000000E+00 -0.00000000000E+00 -0.92682319939E+02  0.92682319939E+02  0.00000000000E+00 0. -1.
         23    2    1    2    0    0  0.97640728872E+00  0.12203975114E+02 -0.65922988814E+02  0.11474034897E+03  0.93110777288E+02 0.  0.
         13    1    3    3    0    0 -0.27282389877E+02 -0.30752156811E+02 -0.39152567738E+02  0.56771009383E+02  0.00000000000E+00 0. -1.
        -13    1    3    3    0    0  0.28258797165E+02  0.42956131925E+02 -0.26770421076E+02  0.57969339583E+02  0.00000000000E+00 0.  1.
         22    1    1    2    0    0 -0.97640728872E+00 -0.12203975114E+02  0.13590717601E+02  0.18292019699E+02  0.00000000000E+00 0.  1.
<mgrwt>
<rscale>  0 0.56430427E+02</rscale>
<asrwt>0</asrwt>
<pdfrwt beam="1">  1        4 0.14258818E-01 0.93912232E+02</pdfrwt>
<pdfrwt beam="2">  1       -4 0.62076999E-02 0.93912232E+02</pdfrwt>
<totfact> 0.10144015E+04</totfact>
</mgrwt>
</event>
<event>
 6    1  0.1535419E-002  0.9461371E+02  0.7546771E-02  0.1371799E+00
          1   -1    0    0  501    0  0.00000000000E+00  0.00000000000E+00  0.82666089168E+02  0.82666089168E+02  0.00000000000E+00 0. -1.
         -1   -1    0    0    0  501 -0.00000000000E+00 -0.00000000000E+00 -0.54198754567E+02  0.54198754567E+02  0.00000000000E+00 0.  1.
         23    2    1    2    0    0 -0.41837807328E+01  0.22948071307E+02  0.48316132458E+02  0.10623654352E+03  0.91693165091E+02 0.  0.
         13    1    3    3    0    0  0.13497754538E+02  0.48966331262E+02  0.54148753910E+02  0.74242700145E+02  0.00000000000E+00 0. -1.
        -13    1    3    3    0    0 -0.17681535271E+02 -0.26018259954E+02 -0.58326214523E+01  0.31993843370E+02  0.00000000000E+00 0.  1.
         22    1    1    2    0    0  0.41837807328E+01 -0.22948071307E+02 -0.19848797857E+02  0.30628300219E+02  0.00000000000E+00 0.  1.
<mgrwt>
<rscale>  0 0.66669500E+02</rscale>
<asrwt>0</asrwt>
<pdfrwt beam="1">  1        1 0.12717860E-01 0.94613712E+02</pdfrwt>
<pdfrwt beam="2">  1       -1 0.83382699E-02 0.94613712E+02</pdfrwt>
<totfact> 0.32857393E+04</totfact>
</mgrwt>
</event>
<event>
 6    1  0.1535419E-002  0.9772694E+02  0.7546771E-02  0.1415457E+00
          2   -1    0    0  501    0  0.00000000000E+00  0.00000000000E+00  0.21960546302E+02  0.21960546302E+02  0.00000000000E+00 0. -1.
         -2   -1    0    0    0  501 -0.00000000000E+00 -0.00000000000E+00 -0.13351024268E+03  0.13351024268E+03  0.00000000000E+00 0.  1.
         23    2    1    2    0    0 -0.10100829297E+02  0.29828051788E+01 -0.99476661982E+02  0.13944948945E+03  0.97157758048E+02 0.  0.
         13    1    3    3    0    0 -0.44261923752E+02  0.29242982405E+02 -0.67183845921E+02  0.85603382333E+02  0.00000000000E+00 0.  1.
        -13    1    3    3    0    0  0.34161094454E+02 -0.26260177226E+02 -0.32292816061E+02  0.53846107114E+02  0.00000000000E+00 0. -1.
         22    1    1    2    0    0  0.10100829297E+02 -0.29828051788E+01 -0.12073034396E+02  0.16021299534E+02  0.00000000000E+00 0.  1.
<mgrwt>
<rscale>  0 0.55993658E+02</rscale>
<asrwt>0</asrwt>
<pdfrwt beam="1">  1        2 0.33785456E-02 0.97726935E+02</pdfrwt>
<pdfrwt beam="2">  1       -2 0.20540037E-01 0.97726935E+02</pdfrwt>
<totfact> 0.46498888E+04</totfact>
</mgrwt>
</event>
<event>
 6    1  0.1535419E-002  0.8925778E+02  0.7546771E-02  0.1430192E+00
         -2   -1    0    0    0  501 -0.00000000000E+00  0.00000000000E+00  0.40272875199E+02  0.40272875199E+02  0.00000000000E+00 0.  1.
          2   -1    0    0  501    0  0.00000000000E+00 -0.00000000000E+00 -0.10496389241E+03  0.10496389241E+03  0.00000000000E+00 0. -1.
         23    2    1    2    0    0  0.85089015342E+01 -0.70190983258E+01 -0.84277120293E+02  0.12275823161E+03  0.88573592437E+02 0.  0.
         13    1    3    3    0    0 -0.18393118861E+02  0.34126126841E+02 -0.26816660043E+02  0.47138440900E+02  0.00000000000E+00 0.  1.
        -13    1    3    3    0    0  0.26902020395E+02 -0.41145225166E+02 -0.57460460250E+02  0.75619790713E+02  0.00000000000E+00 0. -1.
         22    1    1    2    0    0 -0.85089015342E+01  0.70190983258E+01  0.19586103082E+02  0.22478535997E+02  0.00000000000E+00 0.  1.
<mgrwt>
<rscale>  0 0.52921495E+02</rscale>
<asrwt>0</asrwt>
<pdfrwt beam="1">  1        2 0.16148291E-01 0.89257775E+02</pdfrwt>
<pdfrwt beam="2">  1       -2 0.61958271E-02 0.89257775E+02</pdfrwt>
<totfact> 0.43508804E+04</totfact>
</mgrwt>
</event>
<event>
 6    1  0.1535419E-002  0.1161384E+03  0.7546771E-02  0.1285945E+00
          2   -1    0    0  501    0  0.00000000000E+00  0.00000000000E+00  0.63017985940E+03  0.63017985940E+03  0.00000000000E+00 0. -1.
         -2   -1    0    0    0  501 -0.00000000000E+00 -0.00000000000E+00 -0.16284715590E+02  0.16284715590E+02  0.00000000000E+00 0.  1.
         23    2    1    2    0    0 -0.57310275331E+02 -0.23931606459E+01  0.54294809917E+03  0.55523038173E+03  0.10098486781E+03 0.  0.
         13    1    3    3    0    0 -0.45154217950E+02 -0.26415835219E+02  0.11390890508E+03  0.12534727123E+03  0.00000000000E+00 0.  1.
        -13    1    3    3    0    0 -0.12156057381E+02  0.24022674573E+02  0.42903919410E+03  0.42988311050E+03  0.00000000000E+00 0. -1.
         22    1    1    2    0    0  0.57310275331E+02  0.23931606459E+01  0.70947044634E+02  0.91234193254E+02  0.00000000000E+00 0. -1.
<mgrwt>
<rscale>  0 0.97360929E+02</rscale>
<asrwt>0</asrwt>
<pdfrwt beam="1">  1        2 0.96950729E-01 0.11613844E+03</pdfrwt>
<pdfrwt beam="2">  1       -2 0.25053413E-02 0.11613844E+03</pdfrwt>
<totfact> 0.24472024E+04</totfact>
</mgrwt>
</event>
<event>
 6    1  0.1535419E-002  0.8738757E+02  0.7546771E-02  0.1424585E+00
         -1   -1    0    0    0  501 -0.00000000000E+00  0.00000000000E+00  0.14679867830E+02  0.14679867830E+02  0.00000000000E+00 0.  1.
          1   -1    0    0  501    0  0.00000000000E+00 -0.00000000000E+00 -0.22078466181E+03  0.22078466181E+03  0.00000000000E+00 0. -1.
         23    2    1    2    0    0  0.10336003380E+02  0.75517527471E+01 -0.20471721122E+03  0.22258868709E+03  0.86444925325E+02 0.  0.
         11    1    3    3    0    0  0.15772515060E+02  0.45339241800E+02 -0.13202515601E+03  0.14048153223E+03  0.00000000000E+00 0.  1.
        -11    1    3    3    0    0 -0.54365116799E+01 -0.37787489053E+02 -0.72692055209E+02  0.82107154857E+02  0.00000000000E+00 0. -1.
         22    1    1    2    0    0 -0.10336003380E+02 -0.75517527471E+01 -0.13875827567E+01  0.12875842548E+02  0.00000000000E+00 0. -1.
<mgrwt>
<rscale>  0 0.54062609E+02</rscale>
<asrwt>0</asrwt>
<pdfrwt beam="1">  1        1 0.33966868E-01 0.87387568E+02</pdfrwt>
<pdfrwt beam="2">  1       -1 0.22584414E-02 0.87387568E+02</pdfrwt>
<totfact> 0.63709922E+04</totfact>
</mgrwt>
</event>
<event>
 6    1  0.1535419E-002  0.9328884E+02  0.7546771E-02  0.1394900E+00
         -2   -1    0    0    0  501 -0.00000000000E+00  0.00000000000E+00  0.73718714546E+01  0.73718714546E+01  0.00000000000E+00 0.  1.
          2   -1    0    0  501    0  0.00000000000E+00 -0.00000000000E+00 -0.41045674490E+03  0.41045674490E+03  0.00000000000E+00 0. -1.
         23    2    1    2    0    0  0.50280226315E+01  0.15952065052E+02 -0.34230556250E+03  0.35478994544E+03  0.91777218741E+02 0.  0.
         13    1    3    3    0    0 -0.86831374688E+01 -0.36371511078E+02 -0.17527921632E+03  0.17922356812E+03  0.00000000000E+00 0. -1.
        -13    1    3    3    0    0  0.13711160100E+02  0.52323576130E+02 -0.16702634618E+03  0.17556637733E+03  0.00000000000E+00 0.  1.
         22    1    1    2    0    0 -0.50280226315E+01 -0.15952065052E+02 -0.60779310947E+02  0.63038670911E+02  0.00000000000E+00 0.  1.
<mgrwt>
<rscale>  0 0.60704153E+02</rscale>
<asrwt>0</asrwt>
<pdfrwt beam="1">  1        2 0.63147189E-01 0.93288838E+02</pdfrwt>
<pdfrwt beam="2">  1       -2 0.11341341E-02 0.93288838E+02</pdfrwt>
<totfact> 0.11884694E+05</totfact>
</mgrwt>
</event>
<event>
 6    1  0.1535419E-002  0.9488585E+02  0.7546771E-02  0.1399030E+00
         -3   -1    0    0    0  501 -0.00000000000E+00  0.00000000000E+00  0.18457995924E+03  0.18457995924E+03  0.00000000000E+00 0.  1.
          3   -1    0    0  501    0  0.00000000000E+00 -0.00000000000E+00 -0.19967673703E+02  0.19967673703E+02  0.00000000000E+00 0. -1.
         23    2    1    2    0    0 -0.63977877930E+01  0.13439580746E+02  0.98452464205E+02  0.13673409463E+03  0.93711103442E+02 0.  0.
         13    1    3    3    0    0  0.21286337087E+02 -0.30493360980E+02  0.18852554833E+02  0.41693788916E+02  0.00000000000E+00 0. -1.
        -13    1    3    3    0    0 -0.27684124880E+02  0.43932941726E+02  0.79599909372E+02  0.95040305719E+02  0.00000000000E+00 0.  1.
         22    1    1    2    0    0  0.63977877930E+01 -0.13439580746E+02  0.66159821336E+02  0.67813538312E+02  0.00000000000E+00 0. -1.
<mgrwt>
<rscale>  0 0.59715359E+02</rscale>
<asrwt>0</asrwt>
<pdfrwt beam="1">  1        3 0.30719499E-02 0.94885852E+02</pdfrwt>
<pdfrwt beam="2">  1       -3 0.28396916E-01 0.94885852E+02</pdfrwt>
<totfact> 0.12155798E+04</totfact>
</mgrwt>
</event>
<event>
 6    1  0.1535419E-002  0.8879837E+02  0.7546771E-02  0.1415553E+00
         -2   -1    0    0    0  501 -0.00000000000E+00  0.00000000000E+00  0.17391789847E+02  0.17391789847E+02  0.00000000000E+00 0.  1.
          2   -1    0    0  501    0  0.00000000000E+00 -0.00000000000E+00 -0.15377493131E+03  0.15377493131E+03  0.00000000000E+00 0. -1.
         23    2    1    2    0    0  0.13985445281E+02 -0.96083945377E+00 -0.12362888863E+03  0.15221449550E+03  0.87684859825E+02 0.  0.
         11    1    3    3    0    0  0.24490754492E+02  0.11183163270E+02  0.62192125081E+00  0.26930409993E+02  0.00000000000E+00 0.  1.
        -11    1    3    3    0    0 -0.10505309211E+02 -0.12144002724E+02 -0.12425080988E+03  0.12528408550E+03  0.00000000000E+00 0. -1.
         22    1    1    2    0    0 -0.13985445281E+02  0.96083945377E+00 -0.12754252826E+02  0.18952225656E+02  0.00000000000E+00 0. -1.
<mgrwt>
<rscale>  0 0.55972983E+02</rscale>
<asrwt>0</asrwt>
<pdfrwt beam="1">  1        2 0.23657681E-01 0.88798370E+02</pdfrwt>
<pdfrwt beam="2">  1       -2 0.26756600E-02 0.88798370E+02</pdfrwt>
<totfact> 0.97583370E+04</totfact>
</mgrwt>
</event>
<event>
 6    1  0.1535419E-002  0.9229133E+02  0.7546771E-02  0.1419353E+00
          2   -1    0    0  501    0  0.00000000000E+00  0.00000000000E+00  0.11927998339E+03  0.11927998339E+03  0.00000000000E+00 0. -1.
         -2   -1    0    0    0  501 -0.00000000000E+00 -0.00000000000E+00 -0.30343815405E+02  0.30343815405E+02  0.00000000000E+00 0.  1.
         23    2    1    2    0    0  0.15280017785E+01 -0.11675161494E+02  0.98110206154E+02  0.13469707237E+03  0.91537121260E+02 0.  0.
         13    1    3    3    0    0 -0.17940525723E+02  0.32154851451E+02  0.70034806104E+02  0.79124402058E+02  0.00000000000E+00 0. -1.
        -13    1    3    3    0    0  0.19468527501E+02 -0.43830012945E+02  0.28075400050E+02  0.55572670314E+02  0.00000000000E+00 0.  1.
         22    1    1    2    0    0 -0.15280017785E+01  0.11675161494E+02 -0.91740381699E+01  0.14926726422E+02  0.00000000000E+00 0.  1.
<mgrwt>
<rscale>  0 0.55157982E+02</rscale>
<asrwt>0</asrwt>
<pdfrwt beam="1">  1        2 0.18350766E-01 0.92291325E+02</pdfrwt>
<pdfrwt beam="2">  1       -2 0.46682794E-02 0.92291325E+02</pdfrwt>
<totfact> 0.57644599E+04</totfact>
</mgrwt>
</event>
<event>
 6    1  0.1535419E-002  0.8672876E+02  0.7546771E-02  0.1419780E+00
         -1   -1    0    0    0  501 -0.00000000000E+00  0.00000000000E+00  0.96854194509E+02  0.96854194509E+02  0.00000000000E+00 0.  1.
          1   -1    0    0  501    0  0.00000000000E+00 -0.00000000000E+00 -0.27229615431E+02  0.27229615431E+02  0.00000000000E+00 0. -1.
         23    2    1    2    0    0 -0.13303337544E+02 -0.46599021074E+01  0.50613774094E+02  0.10041728963E+03  0.85575606636E+02 0.  0.
         13    1    3    3    0    0 -0.16395883704E+02  0.95882691124E+01  0.72039505996E+02  0.74501344492E+02  0.00000000000E+00 0.  1.
        -13    1    3    3    0    0  0.30925461596E+01 -0.14248171220E+02 -0.21425731902E+02  0.25915945138E+02  0.00000000000E+00 0. -1.
         22    1    1    2    0    0  0.13303337544E+02  0.46599021074E+01  0.19010804984E+02  0.23666520311E+02  0.00000000000E+00 0.  1.
<mgrwt>
<rscale>  0 0.55067493E+02</rscale>
<asrwt>0</asrwt>
<pdfrwt beam="1">  1        1 0.41891716E-02 0.86728761E+02</pdfrwt>
<pdfrwt beam="2">  1       -1 0.14900645E-01 0.86728761E+02</pdfrwt>
<totfact> 0.58717894E+04</totfact>
</mgrwt>
</event>
<event>
 6    1  0.1535419E-002  0.8993425E+02  0.7546771E-02  0.1424160E+00
          1   -1    0    0  501    0  0.00000000000E+00  0.00000000000E+00  0.97326074316E+02  0.97326074316E+02  0.00000000000E+00 0. -1.
         -1   -1    0    0    0  501 -0.00000000000E+00 -0.00000000000E+00 -0.29061033806E+02  0.29061033806E+02  0.00000000000E+00 0.  1.
         23    2    1    2    0    0  0.41611272631E+01 -0.11063710086E+02  0.70603923558E+02  0.11433758386E+03  0.89154071139E+02 0.  0.
         11    1    3    3    0    0 -0.65999665186E+01 -0.38441515136E+02  0.12737293854E+01  0.39024761762E+02  0.00000000000E+00 0.  1.
        -11    1    3    3    0    0  0.10761093782E+02  0.27377805050E+02  0.69330194173E+02  0.75312822101E+02  0.00000000000E+00 0. -1.
         22    1    1    2    0    0 -0.41611272631E+01  0.11063710086E+02 -0.23388830477E+01  0.12049524259E+02  0.00000000000E+00 0. -1.
<mgrwt>
<rscale>  0 0.54150368E+02</rscale>
<asrwt>0</asrwt>
<pdfrwt beam="1">  1        1 0.14973242E-01 0.89934249E+02</pdfrwt>
<pdfrwt beam="2">  1       -1 0.44709283E-02 0.89934249E+02</pdfrwt>
<totfact> 0.66364494E+04</totfact>
</mgrwt>
</event>
<event>
 6    1  0.1535419E-002  0.9303593E+02  0.7546771E-02  0.1414910E+00
          2   -1    0    0  501    0  0.00000000000E+00  0.00000000000E+00  0.57937176384E+03  0.57937176384E+03  0.00000000000E+00 0. -1.
         -2   -1    0    0    0  501 -0.00000000000E+00 -0.00000000000E+00 -0.52545538860E+01  0.52545538860E+01  0.00000000000E+00 0.  1.
         23    2    1    2    0    0  0.12279070912E+02  0.88345371268E+00  0.54686531996E+03  0.55472277979E+03  0.92217829992E+02 0.  0.
         11    1    3    3    0    0  0.24980109637E+02 -0.34936869847E+02  0.42256705047E+03  0.42474404398E+03  0.00000000000E+00 0.  1.
        -11    1    3    3    0    0 -0.12701038725E+02  0.35820323560E+02  0.12429826949E+03  0.12997873581E+03  0.00000000000E+00 0. -1.
         22    1    1    2    0    0 -0.12279070912E+02 -0.88345371268E+00  0.27251889996E+02  0.29903537939E+02  0.00000000000E+00 0.  1.
<mgrwt>
<rscale>  0 0.56112510E+02</rscale>
<asrwt>0</asrwt>
<pdfrwt beam="1">  1        2 0.89134067E-01 0.93035930E+02</pdfrwt>
<pdfrwt beam="2">  1       -2 0.80839336E-03 0.93035930E+02</pdfrwt>
<totfact> 0.13223099E+05</totfact>
</mgrwt>
</event>
<event>
 6    1  0.1535419E-002  0.9388226E+02  0.7546771E-02  0.1391468E+00
          2   -1    0    0  501    0  0.00000000000E+00  0.00000000000E+00  0.66043946061E+03  0.66043946061E+03  0.00000000000E+00 0. -1.
         -2   -1    0    0    0  501 -0.00000000000E+00 -0.00000000000E+00 -0.48082556613E+01  0.48082556613E+01  0.00000000000E+00 0.  1.
         23    2    1    2    0    0  0.69739182105E+01  0.15872184140E+02  0.58702933545E+03  0.59448912483E+03  0.92267638385E+02 0.  0.
         11    1    3    3    0    0  0.31393350772E+02 -0.28870767144E+02  0.24559645661E+03  0.24927230726E+03  0.00000000000E+00 0. -1.
        -11    1    3    3    0    0 -0.24419432562E+02  0.44742951285E+02  0.34143287884E+03  0.34521681757E+03  0.00000000000E+00 0.  1.
         22    1    1    2    0    0 -0.69739182105E+01 -0.15872184140E+02  0.68601869495E+02  0.70758591442E+02  0.00000000000E+00 0.  1.
<mgrwt>
<rscale>  0 0.61543100E+02</rscale>
<asrwt>0</asrwt>
<pdfrwt beam="1">  1        2 0.10160600E+00 0.93882261E+02</pdfrwt>
<pdfrwt beam="2">  1       -2 0.73973216E-03 0.93882261E+02</pdfrwt>
<totfact> 0.12944159E+05</totfact>
</mgrwt>
</event>
<event>
 6    1  0.1535419E-002  0.9175354E+02  0.7546771E-02  0.1402131E+00
          2   -1    0    0  501    0  0.00000000000E+00  0.00000000000E+00  0.19582536802E+02  0.19582536802E+02  0.00000000000E+00 0. -1.
         -2   -1    0    0    0  501 -0.00000000000E+00 -0.00000000000E+00 -0.18237939467E+03  0.18237939467E+03  0.00000000000E+00 0.  1.
         23    2    1    2    0    0 -0.15658246364E+02  0.69079113892E+00 -0.93826468875E+02  0.13123306587E+03  0.90404941483E+02 0.  0.
         13    1    3    3    0    0 -0.35405618848E+02 -0.16186842866E+02 -0.97511764234E+02  0.10499578988E+03  0.00000000000E+00 0.  1.
        -13    1    3    3    0    0  0.19747372484E+02  0.16877634005E+02  0.36852953594E+01  0.26237275992E+02  0.00000000000E+00 0. -1.
         22    1    1    2    0    0  0.15658246364E+02 -0.69079113892E+00 -0.68970388990E+02  0.70728865599E+02  0.00000000000E+00 0. -1.
<mgrwt>
<rscale>  0 0.58987290E+02</rscale>
<asrwt>0</asrwt>
<pdfrwt beam="1">  1        2 0.30126980E-02 0.91753536E+02</pdfrwt>
<pdfrwt beam="2">  1       -2 0.28058368E-01 0.91753536E+02</pdfrwt>
<totfact> 0.31357927E+04</totfact>
</mgrwt>
</event>
<event>
 6    1  0.1535419E-002  0.9348245E+02  0.7546771E-02  0.1395546E+00
          1   -1    0    0  501    0  0.00000000000E+00  0.00000000000E+00  0.18446072238E+02  0.18446072238E+02  0.00000000000E+00 0. -1.
         -1   -1    0    0    0  501 -0.00000000000E+00 -0.00000000000E+00 -0.16488735261E+03  0.16488735261E+03  0.00000000000E+00 0.  1.
         23    2    1    2    0    0 -0.10422276249E+02 -0.12729257950E+02 -0.11884689087E+03  0.15120698430E+03  0.92023425180E+02 0.  0.
         11    1    3    3    0    0 -0.15084952915E+01 -0.39616173177E+02 -0.13132429857E+02  0.41763350550E+02  0.00000000000E+00 0. -1.
        -11    1    3    3    0    0 -0.89137809575E+01  0.26886915227E+02 -0.10571446102E+03  0.10944363375E+03  0.00000000000E+00 0.  1.
         22    1    1    2    0    0  0.10422276249E+02  0.12729257950E+02 -0.27594389499E+02  0.32126440544E+02  0.00000000000E+00 0. -1.
<mgrwt>
<rscale>  0 0.60548048E+02</rscale>
<asrwt>0</asrwt>
<pdfrwt beam="1">  1        1 0.28378574E-02 0.93482451E+02</pdfrwt>
<pdfrwt beam="2">  1       -1 0.25367284E-01 0.93482451E+02</pdfrwt>
<totfact> 0.43451962E+04</totfact>
</mgrwt>
</event>
<event>
 6    1  0.1535419E-002  0.8125261E+02  0.7546771E-02  0.1392705E+00
         -2   -1    0    0    0  501 -0.00000000000E+00  0.00000000000E+00  0.28480124119E+01  0.28480124119E+01  0.00000000000E+00 0.  1.
          2   -1    0    0  501    0  0.00000000000E+00 -0.00000000000E+00 -0.13566562136E+04  0.13566562136E+04  0.00000000000E+00 0. -1.
         23    2    1    2    0    0  0.42077953345E+01 -0.25878013911E+02 -0.12423398946E+04  0.12449941368E+04  0.76906501278E+02 0.  0.
         11    1    3    3    0    0 -0.60377600076E+01 -0.44697967750E+01 -0.11365427490E+04  0.11365675756E+04  0.00000000000E+00 0. -1.
        -11    1    3    3    0    0  0.10245555342E+02 -0.21408217136E+02 -0.10579714556E+03  0.10842656120E+03  0.00000000000E+00 0.  1.
         22    1    1    2    0    0 -0.42077953345E+01  0.25878013911E+02 -0.11146830660E+03  0.11451008917E+03  0.00000000000E+00 0.  1.
<mgrwt>
<rscale>  0 0.61238901E+02</rscale>
<asrwt>0</asrwt>
<pdfrwt beam="1">  1        2 0.20871677E+00 0.81252613E+02</pdfrwt>
<pdfrwt beam="2">  1       -2 0.43815485E-03 0.81252613E+02</pdfrwt>
<totfact> 0.10112670E+05</totfact>
</mgrwt>
</event>
<event>
 6    1  0.1535419E-002  0.9402159E+02  0.7546771E-02  0.1389051E+00
         -1   -1    0    0    0  501 -0.00000000000E+00  0.00000000000E+00  0.98312914348E+01  0.98312914348E+01  0.00000000000E+00 0.  1.
          1   -1    0    0  501    0  0.00000000000E+00 -0.00000000000E+00 -0.34632314565E+03  0.34632314565E+03  0.00000000000E+00 0. -1.
         23    2    1    2    0    0  0.51806904567E+01  0.17178838959E+02 -0.31155651546E+03  0.32543435928E+03  0.92293595727E+02 0.  0.
         11    1    3    3    0    0 -0.20627147586E+02 -0.46767234213E-01 -0.28143543834E+03  0.28219033888E+03  0.00000000000E+00 0. -1.
        -11    1    3    3    0    0  0.25807838042E+02  0.17225606193E+02 -0.30121077117E+02  0.43244020394E+02  0.00000000000E+00 0.  1.
         22    1    1    2    0    0 -0.51806904567E+01 -0.17178838959E+02 -0.24935338758E+02  0.30720077809E+02  0.00000000000E+00 0. -1.
<mgrwt>
<rscale>  0 0.62143342E+02</rscale>
<asrwt>0</asrwt>
<pdfrwt beam="1">  1        1 0.53280484E-01 0.94021593E+02</pdfrwt>
<pdfrwt beam="2">  1       -1 0.15125064E-02 0.94021593E+02</pdfrwt>
<totfact> 0.65745687E+04</totfact>
</mgrwt>
</event>
<event>
 6    1  0.1535419E-002  0.9788466E+02  0.7546771E-02  0.1417739E+00
         -4   -1    0    0    0  501 -0.00000000000E+00  0.00000000000E+00  0.68177764594E+01  0.68177764594E+01  0.00000000000E+00 0.  1.
          4   -1    0    0  501    0  0.00000000000E+00 -0.00000000000E+00 -0.46152098915E+03  0.46152098915E+03  0.00000000000E+00 0. -1.
         23    2    1    2    0    0  0.74799082516E+01 -0.68137166502E+01 -0.43804607096E+03  0.44884938048E+03  0.97360311798E+02 0.  0.
         13    1    3    3    0    0  0.18549966415E+01 -0.43864674349E+02 -0.35542595166E+03  0.35812729271E+03  0.00000000000E+00 0. -1.
        -13    1    3    3    0    0  0.56249116101E+01  0.37050957699E+02 -0.82620119296E+02  0.90722087771E+02  0.00000000000E+00 0.  1.
         22    1    1    2    0    0 -0.74799082516E+01  0.68137166502E+01 -0.16657141734E+02  0.19489385131E+02  0.00000000000E+00 0. -1.
<mgrwt>
<rscale>  0 0.55502253E+02</rscale>
<asrwt>0</asrwt>
<pdfrwt beam="1">  1        4 0.71003271E-01 0.97884657E+02</pdfrwt>
<pdfrwt beam="2">  1       -4 0.10488881E-02 0.97884657E+02</pdfrwt>
<totfact> 0.75587162E+03</totfact>
</mgrwt>
</event>
<event>
 6    1  0.1535419E-002  0.9221542E+02  0.7546771E-02  0.1425452E+00
          2   -1    0    0  501    0  0.00000000000E+00  0.00000000000E+00  0.86290508567E+02  0.86290508567E+02  0.00000000000E+00 0.  1.
         -2   -1    0    0    0  501 -0.00000000000E+00 -0.00000000000E+00 -0.31027248525E+02  0.31027248525E+02  0.00000000000E+00 0. -1.
         23    2    1    2    0    0 -0.66535780042E+00 -0.10729779802E+02  0.52897773952E+02  0.10631019605E+03  0.91586638873E+02 0.  0.
         13    1    3    3    0    0  0.30167813490E+02 -0.27934345809E+02 -0.18588423389E+01  0.41156772728E+02  0.00000000000E+00 0. -1.
        -13    1    3    3    0    0 -0.30833171290E+02  0.17204566007E+02  0.54756616291E+02  0.65153423325E+02  0.00000000000E+00 0.  1.
         22    1    1    2    0    0  0.66535780042E+00  0.10729779802E+02  0.23654860903E+01  0.11007561040E+02  0.00000000000E+00 0. -1.
<mgrwt>
<rscale>  0 0.53883861E+02</rscale>
<asrwt>0</asrwt>
<pdfrwt beam="1">  1        2 0.13275463E-01 0.92215418E+02</pdfrwt>
<pdfrwt beam="2">  1       -2 0.47734229E-02 0.92215418E+02</pdfrwt>
<totfact> 0.80961255E+04</totfact>
</mgrwt>
</event>
<event>
 6    1  0.1535419E-002  0.9501785E+02  0.7546771E-02  0.1369325E+00
          1   -1    0    0  501    0  0.00000000000E+00  0.00000000000E+00  0.83109030320E+03  0.83109030320E+03  0.00000000000E+00 0. -1.
         -1   -1    0    0    0  501 -0.00000000000E+00 -0.00000000000E+00 -0.69470002156E+01  0.69470002156E+01  0.00000000000E+00 0.  1.
         23    2    1    2    0    0  0.23951101579E+02 -0.14033751716E+01  0.79325654402E+03  0.79892699009E+03  0.91938926154E+02 0.  0.
         11    1    3    3    0    0  0.30229552859E+02  0.49689128819E+01  0.78791000812E+03  0.78850535627E+03  0.00000000000E+00 0. -1.
        -11    1    3    3    0    0 -0.62784512804E+01 -0.63722880535E+01  0.53465358948E+01  0.10421633825E+02  0.00000000000E+00 0.  1.
         22    1    1    2    0    0 -0.23951101579E+02  0.14033751716E+01  0.30886758963E+02  0.39110313320E+02  0.00000000000E+00 0.  1.
<mgrwt>
<rscale>  0 0.67355228E+02</rscale>
<asrwt>0</asrwt>
<pdfrwt beam="1">  1        1 0.12785997E+00 0.95017845E+02</pdfrwt>
<pdfrwt beam="2">  1       -1 0.10687699E-02 0.95017845E+02</pdfrwt>
<totfact> 0.33712169E+04</totfact>
</mgrwt>
</event>
<event>
 6    1  0.1535419E-002  0.9364184E+02  0.7546771E-02  0.1411679E+00
         -2   -1    0    0    0  501 -0.00000000000E+00  0.00000000000E+00  0.94198994454E+01  0.94198994454E+01  0.00000000000E+00 0.  1.
          2   -1    0    0  501    0  0.00000000000E+00 -0.00000000000E+00 -0.10397926114E+04  0.10397926114E+04  0.00000000000E+00 0. -1.
         23    2    1    2    0    0 -0.55596042860E+01 -0.11412432080E+02 -0.10321543886E+04  0.10363934945E+04  0.92777372261E+02 0.  0.
         13    1    3    3    0    0  0.39660812301E+02 -0.20967290529E+02 -0.62915155824E+03  0.63074899171E+03  0.00000000000E+00 0. -1.
        -13    1    3    3    0    0 -0.45220416587E+02  0.95548584490E+01 -0.40300283037E+03  0.40564450284E+03  0.00000000000E+00 0.  1.
         22    1    1    2    0    0  0.55596042860E+01  0.11412432080E+02  0.17816767031E+01  0.12819016252E+02  0.00000000000E+00 0.  1.
<mgrwt>
<rscale>  0 0.56820778E+02</rscale>
<asrwt>0</asrwt>
<pdfrwt beam="1">  1        2 0.15996811E+00 0.93641837E+02</pdfrwt>
<pdfrwt beam="2">  1       -2 0.14492151E-02 0.93641837E+02</pdfrwt>
<totfact> 0.28301495E+04</totfact>
</mgrwt>
</event>
<event>
 6    1  0.1535419E-002  0.9352197E+02  0.7546771E-02  0.1396928E+00
          1   -1    0    0  501    0  0.00000000000E+00  0.00000000000E+00  0.57490049899E+02  0.57490049899E+02  0.00000000000E+00 0. -1.
         -1   -1    0    0    0  501 -0.00000000000E+00 -0.00000000000E+00 -0.79617292349E+02  0.79617292349E+02  0.00000000000E+00 0.  1.
         23    2    1    2    0    0 -0.15155353446E+02  0.53540926401E+01  0.16775750703E+02  0.95014659721E+02  0.92130389689E+02 0.  0.
         11    1    3    3    0    0 -0.26018830618E+02 -0.10511452533E+02  0.49591399778E+02  0.56980497655E+02  0.00000000000E+00 0. -1.
        -11    1    3    3    0    0  0.10863477172E+02  0.15865545173E+02 -0.32815649075E+02  0.38034162066E+02  0.00000000000E+00 0.  1.
         22    1    1    2    0    0  0.15155353446E+02 -0.53540926401E+01 -0.38902993153E+02  0.42092682527E+02  0.00000000000E+00 0. -1.
<mgrwt>
<rscale>  0 0.60215948E+02</rscale>
<asrwt>0</asrwt>
<pdfrwt beam="1">  1        1 0.88446231E-02 0.93521975E+02</pdfrwt>
<pdfrwt beam="2">  1       -1 0.12248814E-01 0.93521975E+02</pdfrwt>
<totfact> 0.29478667E+04</totfact>
</mgrwt>
</event>
<event>
 6    1  0.1535419E-002  0.9281485E+02  0.7546771E-02  0.1401110E+00
         -2   -1    0    0    0  501 -0.00000000000E+00  0.00000000000E+00  0.15893572712E+02  0.15893572712E+02  0.00000000000E+00 0.  1.
          2   -1    0    0  501    0  0.00000000000E+00 -0.00000000000E+00 -0.18492891520E+03  0.18492891520E+03  0.00000000000E+00 0. -1.
         23    2    1    2    0    0 -0.46180632362E+01  0.14679080957E+02 -0.14927290249E+03  0.17577541302E+03  0.91530292689E+02 0.  0.
         11    1    3    3    0    0  0.37551826328E+02  0.40729553825E+01 -0.28220321306E+02  0.47149922171E+02  0.00000000000E+00 0.  1.
        -11    1    3    3    0    0 -0.42169889564E+02  0.10606125574E+02 -0.12105258118E+03  0.12862549085E+03  0.00000000000E+00 0. -1.
         22    1    1    2    0    0  0.46180632362E+01 -0.14679080957E+02 -0.19762439998E+02  0.25047074888E+02  0.00000000000E+00 0.  1.
<mgrwt>
<rscale>  0 0.59225843E+02</rscale>
<asrwt>0</asrwt>
<pdfrwt beam="1">  1        2 0.28450601E-01 0.92814850E+02</pdfrwt>
<pdfrwt beam="2">  1       -2 0.24451651E-02 0.92814850E+02</pdfrwt>
<totfact> 0.91614599E+04</totfact>
</mgrwt>
</event>
<event>
 6    1  0.1535419E-002  0.9339558E+02  0.7546771E-02  0.1364775E+00
          2   -1    0    0  501    0  0.00000000000E+00  0.00000000000E+00  0.34178303691E+02  0.34178303691E+02  0.00000000000E+00 0.  1.
         -2   -1    0    0    0  501 -0.00000000000E+00 -0.00000000000E+00 -0.10646866642E+03  0.10646866642E+03  0.00000000000E+00 0. -1.
         23    2    1    2    0    0 -0.27146596548E+02  0.23681782526E+01 -0.55657574998E+02  0.10872212712E+03  0.89331905264E+02 0.  0.
         11    1    3    3    0    0  0.62144721179E+01  0.19978830312E+02 -0.66302139360E+02  0.69525153779E+02  0.00000000000E+00 0. -1.
        -11    1    3    3    0    0 -0.33361068666E+02 -0.17610652059E+02  0.10644564362E+02  0.39196973339E+02  0.00000000000E+00 0.  1.
         22    1    1    2    0    0  0.27146596548E+02 -0.23681782526E+01 -0.16632787732E+02  0.31924842993E+02  0.00000000000E+00 0. -1.
<mgrwt>
<rscale>  0 0.68641249E+02</rscale>
<asrwt>0</asrwt>
<pdfrwt beam="1">  1        2 0.52582006E-02 0.93395585E+02</pdfrwt>
<pdfrwt beam="2">  1       -2 0.16379795E-01 0.93395585E+02</pdfrwt>
<totfact> 0.37757589E+04</totfact>
</mgrwt>
</event>
<event>
 6    1  0.1535419E-002  0.1032248E+03  0.7546771E-02  0.1397362E+00
          1   -1    0    0  501    0  0.00000000000E+00  0.00000000000E+00  0.33177359029E+02  0.33177359029E+02  0.00000000000E+00 0. -1.
         -1   -1    0    0    0  501 -0.00000000000E+00 -0.00000000000E+00 -0.10136620061E+03  0.10136620061E+03  0.00000000000E+00 0.  1.
         23    2    1    2    0    0 -0.10851690500E+02 -0.48131849637E+01 -0.55624223920E+02  0.11725785592E+03  0.10253986811E+03 0.  0.
         13    1    3    3    0    0 -0.72293990136E+01 -0.40945270049E+02  0.95397769477E+01  0.42658957953E+02  0.00000000000E+00 0. -1.
        -13    1    3    3    0    0 -0.36222914867E+01  0.36132085085E+02 -0.65164000868E+02  0.74598897963E+02  0.00000000000E+00 0.  1.
         22    1    1    2    0    0  0.10851690500E+02  0.48131849637E+01 -0.12564617658E+02  0.17285703720E+02  0.00000000000E+00 0.  1.
<mgrwt>
<rscale>  0 0.60112082E+02</rscale>
<asrwt>0</asrwt>
<pdfrwt beam="1">  1        1 0.51042090E-02 0.10322476E+03</pdfrwt>
<pdfrwt beam="2">  1       -1 0.15594800E-01 0.10322476E+03</pdfrwt>
<totfact> 0.42908521E+04</totfact>
</mgrwt>
</event>
<event>
 6    1  0.1535419E-002  0.9672845E+02  0.7546771E-02  0.1409956E+00
         -2   -1    0    0    0  501 -0.00000000000E+00  0.00000000000E+00  0.39239136312E+01  0.39239136312E+01  0.00000000000E+00 0. -1.
          2   -1    0    0  501    0  0.00000000000E+00 -0.00000000000E+00 -0.16520272002E+04  0.16520272002E+04  0.00000000000E+00 0.  1.
         23    2    1    2    0    0 -0.27209013532E+00 -0.11828160342E+02 -0.16365782387E+04  0.16394342698E+04  0.96002156225E+02 0.  0.
         13    1    3    3    0    0 -0.29678271204E+01 -0.52386553490E+02 -0.69438206515E+03  0.69636169580E+03  0.00000000000E+00 0. -1.
        -13    1    3    3    0    0  0.26957369851E+01  0.40558393147E+02 -0.94219617360E+03  0.94307257398E+03  0.00000000000E+00 0.  1.
         22    1    1    2    0    0  0.27209013532E+00  0.11828160342E+02 -0.11525047844E+02  0.16516844067E+02  0.00000000000E+00 0. -1.
<mgrwt>
<rscale>  0 0.57203644E+02</rscale>
<asrwt>0</asrwt>
<pdfrwt beam="1">  1        2 0.25415790E+00 0.96728452E+02</pdfrwt>
<pdfrwt beam="2">  1       -2 0.60367934E-03 0.96728452E+02</pdfrwt>
<totfact> 0.46457882E+04</totfact>
</mgrwt>
</event>
<event>
 6    1  0.1535419E-002  0.1008639E+03  0.7546771E-02  0.1326502E+00
          2   -1    0    0  501    0  0.00000000000E+00  0.00000000000E+00  0.35170566284E+03  0.35170566284E+03  0.00000000000E+00 0. -1.
         -2   -1    0    0    0  501 -0.00000000000E+00 -0.00000000000E+00 -0.14807446160E+02  0.14807446160E+02  0.00000000000E+00 0.  1.
         23    2    1    2    0    0  0.40068694932E+02  0.11743343685E+02  0.26229903760E+03  0.28102367132E+03  0.91815642918E+02 0.  0.
         11    1    3    3    0    0  0.25516038206E+02  0.40160591463E+01  0.26325482494E+03  0.26451899703E+03  0.00000000000E+00 0. -1.
        -11    1    3    3    0    0  0.14552656727E+02  0.77272845387E+01 -0.95578733739E+00  0.16504674295E+02  0.00000000000E+00 0.  1.
         22    1    1    2    0    0 -0.40068694932E+02 -0.11743343685E+02  0.74599179079E+02  0.85489437674E+02  0.00000000000E+00 0. -1.
<mgrwt>
<rscale>  0 0.80905217E+02</rscale>
<asrwt>0</asrwt>
<pdfrwt beam="1">  1        2 0.54108557E-01 0.10086386E+03</pdfrwt>
<pdfrwt beam="2">  1       -2 0.22780689E-02 0.10086386E+03</pdfrwt>
<totfact> 0.52073349E+04</totfact>
</mgrwt>
</event>
<event>
 6    1  0.1535419E-002  0.9147981E+02  0.7546771E-02  0.1418404E+00
          1   -1    0    0  501    0  0.00000000000E+00  0.00000000000E+00  0.96718964382E+03  0.96718964382E+03  0.00000000000E+00 0. -1.
         -1   -1    0    0    0  501 -0.00000000000E+00 -0.00000000000E+00 -0.30418653611E+02  0.30418653611E+02  0.00000000000E+00 0.  1.
         23    2    1    2    0    0  0.12236823776E+02 -0.88923334955E+00  0.96369154108E+03  0.96802372965E+03  0.90653318859E+02 0.  0.
         11    1    3    3    0    0 -0.23811911483E+02  0.17792536171E+01  0.77497005959E+02  0.81092285728E+02  0.00000000000E+00 0.  1.
        -11    1    3    3    0    0  0.36048735259E+02 -0.26684869667E+01  0.88619453512E+03  0.88693144392E+03  0.00000000000E+00 0. -1.
         22    1    1    2    0    0 -0.12236823776E+02  0.88923334955E+00 -0.26920550868E+02  0.29584567786E+02  0.00000000000E+00 0.  1.
<mgrwt>
<rscale>  0 0.55360120E+02</rscale>
<asrwt>0</asrwt>
<pdfrwt beam="1">  1        1 0.14879838E+00 0.91479805E+02</pdfrwt>
<pdfrwt beam="2">  1       -1 0.46797936E-02 0.91479805E+02</pdfrwt>
<totfact> 0.31939967E+03</totfact>
</mgrwt>
</event>
<event>
 6    1  0.1535419E-002  0.1587057E+03  0.7546771E-02  0.1198711E+00
         -2   -1    0    0    0  501 -0.00000000000E+00  0.00000000000E+00  0.45266871215E+03  0.45266871215E+03  0.00000000000E+00 0.  1.
          2   -1    0    0  501    0  0.00000000000E+00 -0.00000000000E+00 -0.47647655932E+02  0.47647655932E+02  0.00000000000E+00 0. -1.
         23    2    1    2    0    0 -0.11312965560E+03  0.67210107789E+02  0.25894894925E+03  0.30371377909E+03  0.88724200330E+02 0.  0.
         11    1    3    3    0    0 -0.90516322786E+02  0.10931575231E+02  0.19669682147E+03  0.21680023894E+03  0.00000000000E+00 0.  1.
        -11    1    3    3    0    0 -0.22613332817E+02  0.56278532558E+02  0.62252127780E+02  0.86913540148E+02  0.00000000000E+00 0. -1.
         22    1    1    2    0    0  0.11312965560E+03 -0.67210107789E+02  0.14607210697E+03  0.19660258900E+03  0.00000000000E+00 0. -1.
<mgrwt>
<rscale>  0 0.15144287E+03</rscale>
<asrwt>0</asrwt>
<pdfrwt beam="1">  1        2 0.73304089E-02 0.15870571E+03</pdfrwt>
<pdfrwt beam="2">  1       -2 0.69641337E-01 0.15870571E+03</pdfrwt>
<totfact> 0.17868094E+03</totfact>
</mgrwt>
</event>
<event>
 6    1  0.1535419E-002  0.9030209E+02  0.7546771E-02  0.1415419E+00
          4   -1    0    0  501    0  0.00000000000E+00  0.00000000000E+00  0.13466964706E+03  0.13466964706E+03  0.00000000000E+00 0. -1.
         -4   -1    0    0    0  501 -0.00000000000E+00 -0.00000000000E+00 -0.91558834907E+02  0.91558834907E+02  0.00000000000E+00 0.  1.
         23    2    1    2    0    0 -0.10805200896E+02  0.78528456212E+01  0.11888160947E+03  0.14928932889E+03  0.89308717941E+02 0.  0.
         13    1    3    3    0    0  0.38675908278E+01 -0.29723513314E+02  0.76011023771E+01  0.30922843658E+02  0.00000000000E+00 0.  1.
        -13    1    3    3    0    0 -0.14672791724E+02  0.37576358935E+02  0.11128050709E+03  0.11836648524E+03  0.00000000000E+00 0. -1.
         22    1    1    2    0    0  0.10805200896E+02 -0.78528456212E+01 -0.75770797315E+02  0.76939153078E+02  0.00000000000E+00 0.  1.
<mgrwt>
<rscale>  0 0.56002013E+02</rscale>
<asrwt>0</asrwt>
<pdfrwt beam="1">  1        4 0.20718407E-01 0.90302086E+02</pdfrwt>
<pdfrwt beam="2">  1       -4 0.14085975E-01 0.90302086E+02</pdfrwt>
<totfact> 0.13324801E+03</totfact>
</mgrwt>
</event>
<event>
 6    1  0.1535419E-002  0.9182493E+02  0.7546771E-02  0.1400264E+00
          2   -1    0    0  501    0  0.00000000000E+00  0.00000000000E+00  0.57162779374E+02  0.57162779374E+02  0.00000000000E+00 0. -1.
         -2   -1    0    0    0  501 -0.00000000000E+00 -0.00000000000E+00 -0.67342397823E+02  0.67342397823E+02  0.00000000000E+00 0.  1.
         23    2    1    2    0    0  0.54632754642E+01 -0.15150536412E+02  0.16544218078E+02  0.93303421299E+02  0.90401499667E+02 0.  0.
         11    1    3    3    0    0 -0.20467014908E+02 -0.42286401000E+02 -0.90918012810E+01  0.47850802076E+02  0.00000000000E+00 0.  1.
        -11    1    3    3    0    0  0.25930290372E+02  0.27135864588E+02  0.25636019359E+02  0.45452619224E+02  0.00000000000E+00 0. -1.
         22    1    1    2    0    0 -0.54632754642E+01  0.15150536412E+02 -0.26723836527E+02  0.31201755898E+02  0.00000000000E+00 0. -1.
<mgrwt>
<rscale>  0 0.59424261E+02</rscale>
<asrwt>0</asrwt>
<pdfrwt beam="1">  1        2 0.87942737E-02 0.91824927E+02</pdfrwt>
<pdfrwt beam="2">  1       -2 0.10360369E-01 0.91824927E+02</pdfrwt>
<totfact> 0.40951370E+04</totfact>
</mgrwt>
</event>
<event>
 6    1  0.1535419E-002  0.1184437E+03  0.7546771E-02  0.1269672E+00
         -2   -1    0    0    0  501 -0.00000000000E+00  0.00000000000E+00  0.18878819585E+03  0.18878819585E+03  0.00000000000E+00 0.  1.
          2   -1    0    0  501    0  0.00000000000E+00 -0.00000000000E+00 -0.65586900069E+02  0.65586900069E+02  0.00000000000E+00 0. -1.
         23    2    1    2    0    0  0.23718239477E+01 -0.73749189051E+02  0.94926404458E+01  0.11882353107E+03  0.92651782924E+02 0.  0.
         13    1    3    3    0    0  0.33653297705E+02 -0.21653863552E+02  0.34767197517E+02  0.53011246697E+02  0.00000000000E+00 0.  1.
        -13    1    3    3    0    0 -0.31281473758E+02 -0.52095325499E+02 -0.25274557071E+02  0.65812284374E+02  0.00000000000E+00 0. -1.
         22    1    1    2    0    0 -0.23718239477E+01  0.73749189051E+02  0.11370865533E+03  0.13555156484E+03  0.00000000000E+00 0.  1.
<mgrwt>
<rscale>  0 0.10522757E+03</rscale>
<asrwt>0</asrwt>
<pdfrwt beam="1">  1        2 0.10090292E-01 0.11844375E+03</pdfrwt>
<pdfrwt beam="2">  1       -2 0.29044338E-01 0.11844375E+03</pdfrwt>
<totfact> 0.64364412E+03</totfact>
</mgrwt>
</event>
<event>
 6    1  0.1535419E-002  0.9290162E+02  0.7546771E-02  0.1384747E+00
          2   -1    0    0  501    0  0.00000000000E+00  0.00000000000E+00  0.11880600076E+04  0.11880600076E+04  0.00000000000E+00 0. -1.
         -2   -1    0    0    0  501 -0.00000000000E+00 -0.00000000000E+00 -0.29035882480E+01  0.29035882480E+01  0.00000000000E+00 0.  1.
         23    2    1    2    0    0 -0.33938524336E+01 -0.19647101108E+02  0.10758489418E+04  0.10798526087E+04  0.90736895086E+02 0.  0.
         13    1    3    3    0    0 -0.38704134315E+02 -0.19672638487E+02  0.29214003235E+03  0.29534864351E+03  0.00000000000E+00 0. -1.
        -13    1    3    3    0    0  0.35310281882E+02  0.25537379390E-01  0.78370890941E+03  0.78450396516E+03  0.00000000000E+00 0.  1.
         22    1    1    2    0    0  0.33938524336E+01  0.19647101108E+02  0.10930747764E+03  0.11111098723E+03  0.00000000000E+00 0.  1.
<mgrwt>
<rscale>  0 0.63232197E+02</rscale>
<asrwt>0</asrwt>
<pdfrwt beam="1">  1        2 0.18277807E+00 0.92901620E+02</pdfrwt>
<pdfrwt beam="2">  1       -2 0.44670683E-03 0.92901620E+02</pdfrwt>
<totfact> 0.12307236E+05</totfact>
</mgrwt>
</event>
<event>
 6    1  0.1535419E-002  0.8562492E+02  0.7546771E-02  0.1377411E+00
          1   -1    0    0  501    0  0.00000000000E+00  0.00000000000E+00  0.58997998545E+02  0.58997998545E+02  0.00000000000E+00 0.  1.
         -1   -1    0    0    0  501 -0.00000000000E+00 -0.00000000000E+00 -0.55522934584E+02  0.55522934584E+02  0.00000000000E+00 0. -1.
         23    2    1    2    0    0 -0.11827217051E+02 -0.26146636024E+02  0.91676076930E-01  0.85624965381E+02  0.80672775168E+02 0.  0.
         13    1    3    3    0    0 -0.33550296468E+01 -0.28217834250E+02 -0.37491110584E+02  0.47043445521E+02  0.00000000000E+00 0. -1.
        -13    1    3    3    0    0 -0.84721874044E+01  0.20711982262E+01  0.37582786660E+02  0.38581519860E+02  0.00000000000E+00 0.  1.
         22    1    1    2    0    0  0.11827217051E+02  0.26146636024E+02  0.33833878845E+01  0.28895967749E+02  0.00000000000E+00 0. -1.
<mgrwt>
<rscale>  0 0.65149341E+02</rscale>
<asrwt>0</asrwt>
<pdfrwt beam="1">  1        1 0.90766151E-02 0.85624916E+02</pdfrwt>
<pdfrwt beam="2">  1       -1 0.85419899E-02 0.85624916E+02</pdfrwt>
<totfact> 0.48541625E+04</totfact>
</mgrwt>
</event>
<event>
 6    1  0.1535419E-002  0.8880702E+02  0.7546771E-02  0.1416003E+00
          2   -1    0    0  501    0  0.00000000000E+00  0.00000000000E+00  0.10738380950E+04  0.10738380950E+04  0.00000000000E+00 0. -1.
         -2   -1    0    0    0  501 -0.00000000000E+00 -0.00000000000E+00 -0.28894176700E+01  0.28894176700E+01  0.00000000000E+00 0.  1.
         23    2    1    2    0    0 -0.11162097101E+02  0.83119518145E+01  0.10216384032E+04  0.10254909623E+04  0.87709782784E+02 0.  0.
         13    1    3    3    0    0  0.13389992509E+01  0.16721304046E+02  0.99290871748E+03  0.99305040969E+03  0.00000000000E+00 0. -1.
        -13    1    3    3    0    0 -0.12501096352E+02 -0.84093522319E+01  0.28729685705E+02  0.32440552641E+02  0.00000000000E+00 0.  1.
         22    1    1    2    0    0  0.11162097101E+02 -0.83119518145E+01  0.49310274096E+02  0.51236550294E+02  0.00000000000E+00 0.  1.
<mgrwt>
<rscale>  0 0.55875489E+02</rscale>
<asrwt>0</asrwt>
<pdfrwt beam="1">  1        2 0.16520554E+00 0.88807021E+02</pdfrwt>
<pdfrwt beam="2">  1       -2 0.44452665E-03 0.88807021E+02</pdfrwt>
<totfact> 0.14255345E+05</totfact>
</mgrwt>
</event>
<event>
 6    1  0.1535419E-002  0.9525140E+02  0.7546771E-02  0.1338628E+00
          2   -1    0    0  501    0  0.00000000000E+00  0.00000000000E+00  0.46569751076E+02  0.46569751076E+02  0.00000000000E+00 0. -1.
         -2   -1    0    0    0  501 -0.00000000000E+00 -0.00000000000E+00 -0.98676645930E+02  0.98676645930E+02  0.00000000000E+00 0.  1.
         23    2    1    2    0    0 -0.40007060550E+02 -0.25372233614E+01 -0.40573862855E+02  0.10353293127E+03  0.86405017882E+02 0.  0.
         11    1    3    3    0    0 -0.30356842856E+01 -0.83508998257E+01  0.25826127956E+02  0.27311934977E+02  0.00000000000E+00 0. -1.
        -11    1    3    3    0    0 -0.36971376264E+02  0.58136764643E+01 -0.66399990811E+02  0.76220996298E+02  0.00000000000E+00 0.  1.
         22    1    1    2    0    0  0.40007060550E+02  0.25372233614E+01 -0.11533032000E+02  0.41713465732E+02  0.00000000000E+00 0. -1.
<mgrwt>
<rscale>  0 0.76719471E+02</rscale>
<asrwt>0</asrwt>
<pdfrwt beam="1">  1        2 0.71645771E-02 0.95251402E+02</pdfrwt>
<pdfrwt beam="2">  1       -2 0.15181022E-01 0.95251402E+02</pdfrwt>
<totfact> 0.28914279E+04</totfact>
</mgrwt>
</event>
<event>
 6    1  0.1535419E-002  0.9175321E+02  0.7546771E-02  0.1409526E+00
         -2   -1    0    0    0  501 -0.00000000000E+00  0.00000000000E+00  0.26726877603E+02  0.26726877603E+02  0.00000000000E+00 0.  1.
          2   -1    0    0  501    0  0.00000000000E+00 -0.00000000000E+00 -0.13802667817E+03  0.13802667817E+03  0.00000000000E+00 0. -1.
         23    2    1    2    0    0  0.98802546213E+01  0.98558674603E+01 -0.11783438053E+03  0.14934387407E+03  0.90685687584E+02 0.  0.
         13    1    3    3    0    0  0.38783109460E+02 -0.19146234852E+02 -0.30610752188E+02  0.52987980127E+02  0.00000000000E+00 0. -1.
        -13    1    3    3    0    0 -0.28902854838E+02  0.29002102313E+02 -0.87223628347E+02  0.96355893947E+02  0.00000000000E+00 0.  1.
         22    1    1    2    0    0 -0.98802546213E+01 -0.98558674603E+01  0.65345799658E+01  0.15409681700E+02  0.00000000000E+00 0.  1.
<mgrwt>
<rscale>  0 0.57299751E+02</rscale>
<asrwt>0</asrwt>
<pdfrwt beam="1">  1        2 0.21234874E-01 0.91753210E+02</pdfrwt>
<pdfrwt beam="2">  1       -2 0.41118273E-02 0.91753210E+02</pdfrwt>
<totfact> 0.59003610E+04</totfact>
</mgrwt>
</event>
<event>
 6    1  0.1535419E-002  0.9296577E+02  0.7546771E-02  0.1397222E+00
          4   -1    0    0  501    0  0.00000000000E+00  0.00000000000E+00  0.77782058485E+02  0.77782058485E+02  0.00000000000E+00 0. -1.
         -4   -1    0    0    0  501 -0.00000000000E+00 -0.00000000000E+00 -0.42679780165E+02  0.42679780165E+02  0.00000000000E+00 0.  1.
         23    2    1    2    0    0  0.11244859345E+02 -0.11782400225E+02  0.42920576105E+02  0.10239536149E+03  0.91527932264E+02 0.  0.
         11    1    3    3    0    0 -0.16639074679E+02  0.33753194045E+02  0.28149765575E+02  0.46995172267E+02  0.00000000000E+00 0. -1.
        -11    1    3    3    0    0  0.27883934024E+02 -0.45535594270E+02  0.14770810530E+02  0.55400189222E+02  0.00000000000E+00 0.  1.
         22    1    1    2    0    0 -0.11244859345E+02  0.11782400225E+02 -0.78182977853E+01  0.18066477161E+02  0.00000000000E+00 0. -1.
<mgrwt>
<rscale>  0 0.60145576E+02</rscale>
<asrwt>0</asrwt>
<pdfrwt beam="1">  1        4 0.11966471E-01 0.92965769E+02</pdfrwt>
<pdfrwt beam="2">  1       -4 0.65661200E-02 0.92965769E+02</pdfrwt>
<totfact> 0.12461762E+04</totfact>
</mgrwt>
</event>
<event>
 6    1  0.1535419E-002  0.9272882E+02  0.7546771E-02  0.1362117E+00
         -2   -1    0    0    0  501 -0.00000000000E+00  0.00000000000E+00  0.31140034666E+02  0.31140034666E+02  0.00000000000E+00 0.  1.
          2   -1    0    0  501    0  0.00000000000E+00 -0.00000000000E+00 -0.12801452080E+03  0.12801452080E+03  0.00000000000E+00 0. -1.
         23    2    1    2    0    0 -0.19673266056E+02 -0.21452161618E+02 -0.90049874919E+02  0.12925793436E+03  0.88042041012E+02 0.  0.
         11    1    3    3    0    0 -0.14705063487E+02 -0.55843004538E+02 -0.51716175022E+02  0.77519306027E+02  0.00000000000E+00 0. -1.
        -11    1    3    3    0    0 -0.49682025692E+01  0.34390842920E+02 -0.38333699897E+02  0.51738628328E+02  0.00000000000E+00 0.  1.
         22    1    1    2    0    0  0.19673266056E+02  0.21452161618E+02 -0.68246112116E+01  0.29896621107E+02  0.00000000000E+00 0.  1.
<mgrwt>
<rscale>  0 0.69408295E+02</rscale>
<asrwt>0</asrwt>
<pdfrwt beam="1">  1        2 0.19694542E-01 0.92728818E+02</pdfrwt>
<pdfrwt beam="2">  1       -2 0.47907745E-02 0.92728818E+02</pdfrwt>
<totfact> 0.51269619E+04</totfact>
</mgrwt>
</event>
<event>
 6    1  0.1535419E-002  0.9180215E+02  0.7546771E-02  0.1425922E+00
         -2   -1    0    0    0  501 -0.00000000000E+00  0.00000000000E+00  0.47995478612E+02  0.47995478612E+02  0.00000000000E+00 0.  1.
          2   -1    0    0  501    0  0.00000000000E+00 -0.00000000000E+00 -0.58827649177E+02  0.58827649177E+02  0.00000000000E+00 0. -1.
         23    2    1    2    0    0 -0.60967688565E+01  0.89367666177E+01 -0.18390346021E+02  0.93626067348E+02  0.91162488295E+02 0.  0.
         11    1    3    3    0    0 -0.29876083889E+01  0.43439380194E+02 -0.34373094969E+02  0.55474455503E+02  0.00000000000E+00 0. -1.
        -11    1    3    3    0    0 -0.31091604676E+01 -0.34502613577E+02  0.15982748948E+02  0.38151611845E+02  0.00000000000E+00 0.  1.
         22    1    1    2    0    0  0.60967688565E+01 -0.89367666177E+01  0.75581754556E+01  0.13197060441E+02  0.00000000000E+00 0. -1.
<mgrwt>
<rscale>  0 0.53787303E+02</rscale>
<asrwt>0</asrwt>
<pdfrwt beam="1">  1        2 0.90504075E-02 0.91802155E+02</pdfrwt>
<pdfrwt beam="2">  1       -2 0.73839198E-02 0.91802155E+02</pdfrwt>
<totfact> 0.66585085E+04</totfact>
</mgrwt>
</event>
<event>
 6    1  0.1535419E-002  0.9694095E+02  0.7546771E-02  0.1405894E+00
          2   -1    0    0  501    0  0.00000000000E+00  0.00000000000E+00  0.33462383707E+03  0.33462383707E+03  0.00000000000E+00 0. -1.
         -2   -1    0    0    0  501 -0.00000000000E+00 -0.00000000000E+00 -0.10275510833E+02  0.10275510833E+02  0.00000000000E+00 0.  1.
         23    2    1    2    0    0 -0.86027388059E+01  0.91037076726E+01  0.31408869829E+03  0.32870846856E+03  0.96128363665E+02 0.  0.
         13    1    3    3    0    0 -0.21493787876E+02  0.89735061818E+01  0.31492924813E+03  0.31578938877E+03  0.00000000000E+00 0. -1.
        -13    1    3    3    0    0  0.12891049070E+02  0.13020149080E+00 -0.84054984305E+00  0.12919079789E+02  0.00000000000E+00 0.  1.
         22    1    1    2    0    0  0.86027388059E+01 -0.91037076726E+01  0.10259627949E+02  0.16190879346E+02  0.00000000000E+00 0.  1.
<mgrwt>
<rscale>  0 0.58120318E+02</rscale>
<asrwt>0</asrwt>
<pdfrwt beam="1">  1        2 0.51480582E-01 0.96940945E+02</pdfrwt>
<pdfrwt beam="2">  1       -2 0.15808481E-02 0.96940945E+02</pdfrwt>
<totfact> 0.92289914E+04</totfact>
</mgrwt>
</event>
<event>
 6    1  0.1535419E-002  0.9259226E+02  0.7546771E-02  0.1417058E+00
          2   -1    0    0  501    0  0.00000000000E+00  0.00000000000E+00  0.45445195243E+03  0.45445195243E+03  0.00000000000E+00 0. -1.
         -2   -1    0    0    0  501 -0.00000000000E+00 -0.00000000000E+00 -0.75163470350E+01  0.75163470350E+01  0.00000000000E+00 0.  1.
         23    2    1    2    0    0  0.11040817445E+02  0.49025015663E+01  0.43583599760E+03  0.44556295080E+03  0.91800828734E+02 0.  0.
         13    1    3    3    0    0  0.79677784619E+01 -0.41291183247E+02  0.27499105451E+03  0.27818793534E+03  0.00000000000E+00 0. -1.
        -13    1    3    3    0    0  0.30730389831E+01  0.46193684814E+02  0.16084494308E+03  0.16737501546E+03  0.00000000000E+00 0.  1.
         22    1    1    2    0    0 -0.11040817445E+02 -0.49025015663E+01  0.11099607802E+02  0.16405348665E+02  0.00000000000E+00 0.  1.
<mgrwt>
<rscale>  0 0.55648137E+02</rscale>
<asrwt>0</asrwt>
<pdfrwt beam="1">  1        2 0.69915663E-01 0.92592258E+02</pdfrwt>
<pdfrwt beam="2">  1       -2 0.11563614E-02 0.92592258E+02</pdfrwt>
<totfact> 0.10365951E+05</totfact>
</mgrwt>
</event>
<event>
 6    1  0.1535419E-002  0.9317701E+02  0.7546771E-02  0.1366479E+00
          2   -1    0    0  501    0  0.00000000000E+00  0.00000000000E+00  0.98980610116E+03  0.98980610116E+03  0.00000000000E+00 0. -1.
         -2   -1    0    0    0  501 -0.00000000000E+00 -0.00000000000E+00 -0.39289671514E+01  0.39289671514E+01  0.00000000000E+00 0.  1.
         23    2    1    2    0    0  0.18630342197E+02  0.19089243722E+02  0.86184365980E+03  0.86686587741E+03  0.89277469727E+02 0.  0.
         13    1    3    3    0    0  0.19422578665E+00 -0.14507207679E+02  0.23306065086E+02  0.27453041145E+02  0.00000000000E+00 0.  1.
        -13    1    3    3    0    0  0.18436116410E+02  0.33596451401E+02  0.83853759471E+03  0.83941283626E+03  0.00000000000E+00 0. -1.
         22    1    1    2    0    0 -0.18630342197E+02 -0.19089243722E+02  0.12403347421E+03  0.12686919091E+03  0.00000000000E+00 0.  1.
<mgrwt>
<rscale>  0 0.68155765E+02</rscale>
<asrwt>0</asrwt>
<pdfrwt beam="1">  1        2 0.15227766E+00 0.93177012E+02</pdfrwt>
<pdfrwt beam="2">  1       -2 0.60445727E-03 0.93177012E+02</pdfrwt>
<totfact> 0.10428517E+05</totfact>
</mgrwt>
</event>
<event>
 6    1  0.1535419E-002  0.9324985E+02  0.7546771E-02  0.1391738E+00
         -1   -1    0    0    0  501 -0.00000000000E+00  0.00000000000E+00  0.61017509690E+01  0.61017509690E+01  0.00000000000E+00 0.  1.
          1   -1    0    0  501    0  0.00000000000E+00 -0.00000000000E+00 -0.50396973200E+03  0.50396973200E+03  0.00000000000E+00 0. -1.
         23    2    1    2    0    0  0.15079629798E+02  0.91055134556E+01 -0.42375327937E+03  0.43389212479E+03  0.91570893676E+02 0.  0.
         13    1    3    3    0    0  0.11348562281E+02 -0.71472748969E+01 -0.42664022188E+01  0.14073933075E+02  0.00000000000E+00 0.  1.
        -13    1    3    3    0    0  0.37310675170E+01  0.16252788353E+02 -0.41948687715E+03  0.41981819171E+03  0.00000000000E+00 0. -1.
         22    1    1    2    0    0 -0.15079629798E+02 -0.91055134556E+01 -0.74114701665E+02  0.76179358182E+02  0.00000000000E+00 0.  1.
<mgrwt>
<rscale>  0 0.61476595E+02</rscale>
<asrwt>0</asrwt>
<pdfrwt beam="1">  1        1 0.77533784E-01 0.93249848E+02</pdfrwt>
<pdfrwt beam="2">  1       -1 0.93873118E-03 0.93249848E+02</pdfrwt>
<totfact> 0.80606981E+04</totfact>
</mgrwt>
</event>
<event>
 6    1  0.1535419E-002  0.9339875E+02  0.7546771E-02  0.1383264E+00
          3   -1    0    0  501    0  0.00000000000E+00  0.00000000000E+00  0.82415074491E+03  0.82415074491E+03  0.00000000000E+00 0. -1.
         -3   -1    0    0    0  501 -0.00000000000E+00 -0.00000000000E+00 -0.44994285887E+01  0.44994285887E+01  0.00000000000E+00 0.  1.
         23    2    1    2    0    0  0.14221747856E+02  0.14202467582E+02  0.75969216006E+03  0.76541198395E+03  0.91210519813E+02 0.  0.
         11    1    3    3    0    0 -0.77945457477E+00  0.48039295981E+02  0.57768118960E+03  0.57967571824E+03  0.00000000000E+00 0. -1.
        -11    1    3    3    0    0  0.15001202431E+02 -0.33836828399E+02  0.18201097046E+03  0.18573626571E+03  0.00000000000E+00 0.  1.
         22    1    1    2    0    0 -0.14221747856E+02 -0.14202467582E+02  0.59959156268E+02  0.63238189552E+02  0.00000000000E+00 0.  1.
<mgrwt>
<rscale>  0 0.63613488E+02</rscale>
<asrwt>0</asrwt>
<pdfrwt beam="1">  1        3 0.12679230E+00 0.93398753E+02</pdfrwt>
<pdfrwt beam="2">  1       -3 0.69222044E-03 0.93398753E+02</pdfrwt>
<totfact> 0.52023776E+03</totfact>
</mgrwt>
</event>
<event>
 6    1  0.1535419E-002  0.9324200E+02  0.7546771E-02  0.1403036E+00
         -4   -1    0    0    0  501 -0.00000000000E+00  0.00000000000E+00  0.14651871486E+02  0.14651871486E+02  0.00000000000E+00 0.  1.
          4   -1    0    0  501    0  0.00000000000E+00 -0.00000000000E+00 -0.21836768067E+03  0.21836768067E+03  0.00000000000E+00 0. -1.
         23    2    1    2    0    0  0.13975607343E+02  0.46321347905E+01 -0.19437767326E+03  0.21558467172E+03  0.92072235471E+02 0.  0.
         13    1    3    3    0    0  0.17504840929E+02 -0.63621013890E+01 -0.20127485913E+03  0.20213476868E+03  0.00000000000E+00 0. -1.
        -13    1    3    3    0    0 -0.35292335864E+01  0.10994236180E+02  0.68971858710E+01  0.13449903041E+02  0.00000000000E+00 0.  1.
         22    1    1    2    0    0 -0.13975607343E+02 -0.46321347905E+01 -0.93381359251E+01  0.17434880438E+02  0.00000000000E+00 0. -1.
<mgrwt>
<rscale>  0 0.58777303E+02</rscale>
<asrwt>0</asrwt>
<pdfrwt beam="1">  1        4 0.33595024E-01 0.93242001E+02</pdfrwt>
<pdfrwt beam="2">  1       -4 0.22541343E-02 0.93242001E+02</pdfrwt>
<totfact> 0.10583213E+04</totfact>
</mgrwt>
</event>
<event>
 6    1  0.1535419E-002  0.9489760E+02  0.7546771E-02  0.1415217E+00
          3   -1    0    0  501    0  0.00000000000E+00  0.00000000000E+00  0.58823017293E+03  0.58823017293E+03  0.00000000000E+00 0. -1.
         -3   -1    0    0    0  501 -0.00000000000E+00 -0.00000000000E+00 -0.53657739505E+01  0.53657739505E+01  0.00000000000E+00 0.  1.
         23    2    1    2    0    0  0.11151766798E+02  0.29886249133E+01  0.55998103320E+03  0.56796506295E+03  0.94192682348E+02 0.  0.
         13    1    3    3    0    0  0.23516940375E+02 -0.27817654755E+01  0.32008286970E+02  0.39816016105E+02  0.00000000000E+00 0.  1.
        -13    1    3    3    0    0 -0.12365173576E+02  0.57703903888E+01  0.52797274623E+03  0.52814904684E+03  0.00000000000E+00 0. -1.
         22    1    1    2    0    0 -0.11151766798E+02 -0.29886249133E+01  0.22883365781E+02  0.25630883931E+02  0.00000000000E+00 0.  1.
<mgrwt>
<rscale>  0 0.56045748E+02</rscale>
<asrwt>0</asrwt>
<pdfrwt beam="1">  1        3 0.90496899E-01 0.94897604E+02</pdfrwt>
<pdfrwt beam="2">  1       -3 0.82550415E-03 0.94897604E+02</pdfrwt>
<totfact> 0.86886011E+03</totfact>
</mgrwt>
</event>
<event>
 6    1  0.1535419E-002  0.8982092E+02  0.7546771E-02  0.1424914E+00
          1   -1    0    0  501    0  0.00000000000E+00  0.00000000000E+00  0.10431692659E+03  0.10431692659E+03  0.00000000000E+00 0. -1.
         -1   -1    0    0    0  501 -0.00000000000E+00 -0.00000000000E+00 -0.27796747109E+02  0.27796747109E+02  0.00000000000E+00 0.  1.
         23    2    1    2    0    0  0.14622255849E+01  0.11637683821E+02  0.79567673348E+02  0.11999505137E+03  0.89051804713E+02 0.  0.
         11    1    3    3    0    0  0.29689151058E+02  0.30735515216E+02  0.74014524822E+02  0.85465007289E+02  0.00000000000E+00 0. -1.
        -11    1    3    3    0    0 -0.28226925473E+02 -0.19097831395E+02  0.55531485256E+01  0.34530044081E+02  0.00000000000E+00 0.  1.
         22    1    1    2    0    0 -0.14622255849E+01 -0.11637683821E+02 -0.30474938640E+01  0.12118622332E+02  0.00000000000E+00 0. -1.
<mgrwt>
<rscale>  0 0.53994570E+02</rscale>
<asrwt>0</asrwt>
<pdfrwt beam="1">  1        1 0.16048758E-01 0.89820920E+02</pdfrwt>
<pdfrwt beam="2">  1       -1 0.42764227E-02 0.89820920E+02</pdfrwt>
<totfact> 0.64797180E+04</totfact>
</mgrwt>
</event>
<event>
 6    1  0.1535419E-002  0.9406493E+02  0.7546771E-02  0.1423897E+00
         -4   -1    0    0    0  501 -0.00000000000E+00  0.00000000000E+00  0.27968525790E+03  0.27968525790E+03  0.00000000000E+00 0. -1.
          4   -1    0    0  501    0  0.00000000000E+00 -0.00000000000E+00 -0.10226661064E+02  0.10226661064E+02  0.00000000000E+00 0.  1.
         23    2    1    2    0    0  0.46841393485E+00 -0.10361607701E+02  0.21816012487E+03  0.23757535859E+03  0.93491329010E+02 0.  0.
         11    1    3    3    0    0  0.20367729352E+02  0.83500605809E+01  0.20683918605E+03  0.20800725179E+03  0.00000000000E+00 0. -1.
        -11    1    3    3    0    0 -0.19899315417E+02 -0.18711668282E+02  0.11320938816E+02  0.29568106798E+02  0.00000000000E+00 0.  1.
         22    1    1    2    0    0 -0.46841393485E+00  0.10361607701E+02  0.51298471970E+02  0.52336560378E+02  0.00000000000E+00 0.  1.
<mgrwt>
<rscale>  0 0.54204884E+02</rscale>
<asrwt>0</asrwt>
<pdfrwt beam="1">  1        4 0.15733327E-02 0.94064929E+02</pdfrwt>
<pdfrwt beam="2">  1       -4 0.43028495E-01 0.94064929E+02</pdfrwt>
<totfact> 0.11366408E+04</totfact>
</mgrwt>
</event>
<event>
 6    1  0.1535419E-002  0.9501782E+02  0.7546771E-02  0.1383974E+00
         -2   -1    0    0    0  501 -0.00000000000E+00  0.00000000000E+00  0.10394098469E+02  0.10394098469E+02  0.00000000000E+00 0.  1.
          2   -1    0    0  501    0  0.00000000000E+00 -0.00000000000E+00 -0.32613880746E+03  0.32613880746E+03  0.00000000000E+00 0. -1.
         23    2    1    2    0    0 -0.95276096115E+01 -0.16288655629E+02 -0.28537692372E+03  0.30077961196E+03  0.93125134816E+02 0.  0.
         11    1    3    3    0    0  0.41099414828E+02 -0.80531294154E+01 -0.15817193742E+03  0.16362266524E+03  0.00000000000E+00 0. -1.
        -11    1    3    3    0    0 -0.50627024439E+02 -0.82355262136E+01 -0.12720498629E+03  0.13715694672E+03  0.00000000000E+00 0.  1.
         22    1    1    2    0    0  0.95276096115E+01  0.16288655629E+02 -0.30367785275E+02  0.35753293969E+02  0.00000000000E+00 0. -1.
<mgrwt>
<rscale>  0 0.63430719E+02</rscale>
<asrwt>0</asrwt>
<pdfrwt beam="1">  1        2 0.50175195E-01 0.95017821E+02</pdfrwt>
<pdfrwt beam="2">  1       -2 0.15990923E-02 0.95017821E+02</pdfrwt>
<totfact> 0.92995144E+04</totfact>
</mgrwt>
</event>
<event>
 6    1  0.1535419E-002  0.9641783E+02  0.7546771E-02  0.1411405E+00
         -2   -1    0    0    0  501 -0.00000000000E+00  0.00000000000E+00  0.42319970827E+03  0.42319970827E+03  0.00000000000E+00 0.  1.
          2   -1    0    0  501    0  0.00000000000E+00 -0.00000000000E+00 -0.69870169062E+01  0.69870169062E+01  0.00000000000E+00 0. -1.
         23    2    1    2    0    0 -0.81890928791E+01  0.83271849158E+01  0.35446959772E+03  0.36734873616E+03  0.95707862793E+02 0.  0.
         13    1    3    3    0    0  0.21062764823E+01  0.30941522694E+02  0.33320223705E+03  0.33464241363E+03  0.00000000000E+00 0.  1.
        -13    1    3    3    0    0 -0.10295369361E+02 -0.22614337778E+02  0.21267360672E+02  0.32706322529E+02  0.00000000000E+00 0. -1.
         22    1    1    2    0    0  0.81890928791E+01 -0.83271849158E+01  0.61743093639E+02  0.62837989011E+02  0.00000000000E+00 0. -1.
<mgrwt>
<rscale>  0 0.56881509E+02</rscale>
<asrwt>0</asrwt>
<pdfrwt beam="1">  1        2 0.10749260E-02 0.96417832E+02</pdfrwt>
<pdfrwt beam="2">  1       -2 0.65107627E-01 0.96417832E+02</pdfrwt>
<totfact> 0.25530513E+04</totfact>
</mgrwt>
</event>
<event>
 6    1  0.1535419E-002  0.1252405E+03  0.7546771E-02  0.1252323E+00
          2   -1    0    0  501    0  0.00000000000E+00  0.00000000000E+00  0.20113576214E+04  0.20113576214E+04  0.00000000000E+00 0. -1.
         -2   -1    0    0    0  501 -0.00000000000E+00 -0.00000000000E+00 -0.81222277568E+01  0.81222277568E+01  0.00000000000E+00 0.  1.
         23    2    1    2    0    0  0.87659724226E+02  0.34633128678E+01  0.16765159153E+04  0.16811873140E+04  0.89380919928E+02 0.  0.
         13    1    3    3    0    0  0.54996541730E+02  0.12633885183E+02  0.37431353771E+03  0.37854307439E+03  0.00000000000E+00 0.  1.
        -13    1    3    3    0    0  0.32663182496E+02 -0.91705723156E+01  0.13022023776E+04  0.13026442396E+04  0.00000000000E+00 0. -1.
         22    1    1    2    0    0 -0.87659724226E+02 -0.34633128678E+01  0.32671947836E+03  0.33829253513E+03  0.00000000000E+00 0. -1.
<mgrwt>
<rscale>  0 0.11457587E+03</rscale>
<asrwt>0</asrwt>
<pdfrwt beam="1">  1        2 0.30943924E+00 0.12524045E+03</pdfrwt>
<pdfrwt beam="2">  1       -2 0.12495751E-02 0.12524045E+03</pdfrwt>
<totfact> 0.11050988E+04</totfact>
</mgrwt>
</event>
<event>
 6    1  0.1535419E-002  0.9444404E+02  0.7546771E-02  0.1399923E+00
         -2   -1    0    0    0  501 -0.00000000000E+00  0.00000000000E+00  0.12503337979E+02  0.12503337979E+02  0.00000000000E+00 0. -1.
          2   -1    0    0  501    0  0.00000000000E+00 -0.00000000000E+00 -0.12313086589E+04  0.12313086589E+04  0.00000000000E+00 0.  1.
         23    2    1    2    0    0  0.13659171768E+02 -0.59088494573E+01 -0.12243076222E+04  0.12279449620E+04  0.93264078864E+02 0.  0.
         11    1    3    3    0    0  0.24143560788E+02  0.12088452149E+02 -0.10412925478E+03  0.10757297014E+03  0.00000000000E+00 0. -1.
        -11    1    3    3    0    0 -0.10484389020E+02 -0.17997301606E+02 -0.11201783675E+04  0.11203719919E+04  0.00000000000E+00 0.  1.
         22    1    1    2    0    0 -0.13659171768E+02  0.59088494573E+01  0.55023013198E+01  0.15867034856E+02  0.00000000000E+00 0. -1.
<mgrwt>
<rscale>  0 0.59504464E+02</rscale>
<asrwt>0</asrwt>
<pdfrwt beam="1">  1        2 0.18943216E+00 0.94444036E+02</pdfrwt>
<pdfrwt beam="2">  1       -2 0.19235899E-02 0.94444036E+02</pdfrwt>
<totfact> 0.14776185E+04</totfact>
</mgrwt>
</event>
<event>
 6    1  0.1535419E-002  0.9085381E+02  0.7546771E-02  0.1424939E+00
         -2   -1    0    0    0  501 -0.00000000000E+00  0.00000000000E+00  0.11566834309E+02  0.11566834309E+02  0.00000000000E+00 0. -1.
          2   -1    0    0  501    0  0.00000000000E+00 -0.00000000000E+00 -0.29917068765E+03  0.29917068765E+03  0.00000000000E+00 0.  1.
         23    2    1    2    0    0 -0.10103075342E+02  0.51266876919E+01 -0.28497479730E+03  0.29910708801E+03  0.90144661207E+02 0.  0.
         11    1    3    3    0    0 -0.76461045634E+01 -0.66358106011E+01  0.32492131083E+01  0.10632698771E+02  0.00000000000E+00 0. -1.
        -11    1    3    3    0    0 -0.24569707791E+01  0.11762498293E+02 -0.28822401041E+03  0.28847438924E+03  0.00000000000E+00 0.  1.
         22    1    1    2    0    0  0.10103075342E+02 -0.51266876919E+01 -0.26290560367E+01  0.11630433943E+02  0.00000000000E+00 0. -1.
<mgrwt>
<rscale>  0 0.53989460E+02</rscale>
<asrwt>0</asrwt>
<pdfrwt beam="1">  1        2 0.46026255E-01 0.90853811E+02</pdfrwt>
<pdfrwt beam="2">  1       -2 0.17795131E-02 0.90853811E+02</pdfrwt>
<totfact> 0.86776255E+04</totfact>
</mgrwt>
</event>
<event>
 6    1  0.1535419E-002  0.9560065E+02  0.7546771E-02  0.1362800E+00
         -1   -1    0    0    0  501 -0.00000000000E+00  0.00000000000E+00  0.12866720864E+03  0.12866720864E+03  0.00000000000E+00 0.  1.
          1   -1    0    0  501    0  0.00000000000E+00 -0.00000000000E+00 -0.13413876535E+03  0.13413876535E+03  0.00000000000E+00 0. -1.
         23    2    1    2    0    0  0.25777673499E+02  0.50093012753E+01 -0.11535933079E+03  0.14982409737E+03  0.91923356139E+02 0.  0.
         11    1    3    3    0    0 -0.20847129516E+01 -0.17873943920E+02  0.91583098494E+01  0.20191546218E+02  0.00000000000E+00 0.  1.
        -11    1    3    3    0    0  0.27862386450E+02  0.22883245196E+02 -0.12451764064E+03  0.12963255116E+03  0.00000000000E+00 0. -1.
         22    1    1    2    0    0 -0.25777673499E+02 -0.50093012753E+01  0.10988777408E+03  0.11298187661E+03  0.00000000000E+00 0.  1.
<mgrwt>
<rscale>  0 0.69210000E+02</rscale>
<asrwt>0</asrwt>
<pdfrwt beam="1">  1        1 0.20636733E-01 0.95600654E+02</pdfrwt>
<pdfrwt beam="2">  1       -1 0.19794955E-01 0.95600654E+02</pdfrwt>
<totfact> 0.46966370E+03</totfact>
</mgrwt>
</event>
<event>
 6    1  0.1535419E-002  0.9132717E+02  0.7546771E-02  0.1408503E+00
         -2   -1    0    0    0  501 -0.00000000000E+00  0.00000000000E+00  0.85617508469E+02  0.85617508469E+02  0.00000000000E+00 0. -1.
          2   -1    0    0  501    0  0.00000000000E+00 -0.00000000000E+00 -0.40481068077E+02  0.40481068077E+02  0.00000000000E+00 0.  1.
         23    2    1    2    0    0  0.10355633401E+02 -0.99771296023E+01  0.14789332054E+02  0.92516896381E+02  0.90187967685E+02 0.  0.
         13    1    3    3    0    0 -0.43520763689E+01 -0.46855495578E+02 -0.64378667896E+01  0.47495517298E+02  0.00000000000E+00 0. -1.
        -13    1    3    3    0    0  0.14707709770E+02  0.36878365976E+02  0.21227198844E+02  0.45021379083E+02  0.00000000000E+00 0.  1.
         22    1    1    2    0    0 -0.10355633401E+02  0.99771296023E+01  0.30347108338E+02  0.33581680165E+02  0.00000000000E+00 0. -1.
<mgrwt>
<rscale>  0 0.57529309E+02</rscale>
<asrwt>0</asrwt>
<pdfrwt beam="1">  1        2 0.62278567E-02 0.91327169E+02</pdfrwt>
<pdfrwt beam="2">  1       -2 0.13171924E-01 0.91327169E+02</pdfrwt>
<totfact> 0.43120536E+04</totfact>
</mgrwt>
</event>
<event>
 6    1  0.1535419E-002  0.9208647E+02  0.7546771E-02  0.1422513E+00
          2   -1    0    0  501    0  0.00000000000E+00  0.00000000000E+00  0.61319785082E+03  0.61319785082E+03  0.00000000000E+00 0. -1.
         -2   -1    0    0    0  501 -0.00000000000E+00 -0.00000000000E+00 -0.73782316804E+01  0.73782316804E+01  0.00000000000E+00 0.  1.
         23    2    1    2    0    0  0.10950765657E+02  0.27549313802E+01  0.60146497495E+03  0.60847352734E+03  0.91391512027E+02 0.  0.
         13    1    3    3    0    0 -0.47151870771E+00 -0.39075492058E+02  0.42362034865E+03  0.42541898900E+03  0.00000000000E+00 0. -1.
        -13    1    3    3    0    0  0.11422284365E+02  0.41830423438E+02  0.17784462630E+03  0.18305453834E+03  0.00000000000E+00 0.  1.
         22    1    1    2    0    0 -0.10950765657E+02 -0.27549313802E+01  0.43546441941E+01  0.12102555162E+02  0.00000000000E+00 0.  1.
<mgrwt>
<rscale>  0 0.54492838E+02</rscale>
<asrwt>0</asrwt>
<pdfrwt beam="1">  1        2 0.94338091E-01 0.92086467E+02</pdfrwt>
<pdfrwt beam="2">  1       -2 0.11351131E-02 0.92086467E+02</pdfrwt>
<totfact> 0.76653231E+04</totfact>
</mgrwt>
</event>
<event>
 6    1  0.1535419E-002  0.9577203E+02  0.7546771E-02  0.1359249E+00
          1   -1    0    0  501    0  0.00000000000E+00  0.00000000000E+00  0.21978677730E+02  0.21978677730E+02  0.00000000000E+00 0. -1.
         -1   -1    0    0    0  501 -0.00000000000E+00 -0.00000000000E+00 -0.23432017318E+03  0.23432017318E+03  0.00000000000E+00 0.  1.
         23    2    1    2    0    0 -0.25917300037E+02  0.98421554091E+01 -0.91986981207E+02  0.13279264231E+03  0.91671733242E+02 0.  0.
         11    1    3    3    0    0 -0.30994011947E+01 -0.31319382485E+02 -0.77347382555E+02  0.83505254895E+02  0.00000000000E+00 0.  1.
        -11    1    3    3    0    0 -0.22817898843E+02  0.41161537894E+02 -0.14639598652E+02  0.49287387414E+02  0.00000000000E+00 0. -1.
         22    1    1    2    0    0  0.25917300037E+02 -0.98421554091E+01 -0.12035451424E+03  0.12350620860E+03  0.00000000000E+00 0.  1.
<mgrwt>
<rscale>  0 0.70248936E+02</rscale>
<asrwt>0</asrwt>
<pdfrwt beam="1">  1        1 0.33813349E-02 0.95772027E+02</pdfrwt>
<pdfrwt beam="2">  1       -1 0.36049259E-01 0.95772027E+02</pdfrwt>
<totfact> 0.19088103E+04</totfact>
</mgrwt>
</event>
<event>
 6    1  0.1535419E-002  0.1119237E+03  0.7546771E-02  0.1346973E+00
          2   -1    0    0  501    0  0.00000000000E+00  0.00000000000E+00  0.32583040222E+03  0.32583040222E+03  0.00000000000E+00 0. -1.
         -2   -1    0    0    0  501 -0.00000000000E+00 -0.00000000000E+00 -0.15179524312E+02  0.15179524312E+02  0.00000000000E+00 0.  1.
         23    2    1    2    0    0 -0.21318157133E+02 -0.18238105426E+01  0.20849072583E+03  0.23663326832E+03  0.10985959588E+03 0.  0.
         11    1    3    3    0    0  0.29549821371E+02 -0.63363859770E+01  0.17004975596E+03  0.17271439208E+03  0.00000000000E+00 0. -1.
        -11    1    3    3    0    0 -0.50867978504E+02  0.45125754343E+01  0.38440969873E+02  0.63918876233E+02  0.00000000000E+00 0.  1.
         22    1    1    2    0    0  0.21318157133E+02  0.18238105426E+01  0.10216015208E+03  0.10437665822E+03  0.00000000000E+00 0. -1.
<mgrwt>
<rscale>  0 0.74007362E+02</rscale>
<asrwt>0</asrwt>
<pdfrwt beam="1">  1        2 0.50127749E-01 0.11192373E+03</pdfrwt>
<pdfrwt beam="2">  1       -2 0.23353117E-02 0.11192373E+03</pdfrwt>
<totfact> 0.55157862E+04</totfact>
</mgrwt>
</event>
<event>
 6    1  0.1535419E-002  0.9069171E+02  0.7546771E-02  0.1418621E+00
         -2   -1    0    0    0  501 -0.00000000000E+00  0.00000000000E+00  0.25612625353E+02  0.25612625353E+02  0.00000000000E+00 0.  1.
          2   -1    0    0  501    0  0.00000000000E+00 -0.00000000000E+00 -0.13582291063E+03  0.13582291063E+03  0.00000000000E+00 0. -1.
         23    2    1    2    0    0 -0.19680073982E+01 -0.12394240372E+02 -0.11630442556E+03  0.14748459360E+03  0.89819239013E+02 0.  0.
         13    1    3    3    0    0  0.66984767138E+01 -0.50707263064E+02 -0.71302241312E+02  0.87750246346E+02  0.00000000000E+00 0. -1.
        -13    1    3    3    0    0 -0.86664841120E+01  0.38313022692E+02 -0.45002184252E+02  0.59734347256E+02  0.00000000000E+00 0.  1.
         22    1    1    2    0    0  0.19680073982E+01  0.12394240372E+02  0.60941402858E+01  0.13950942381E+02  0.00000000000E+00 0.  1.
<mgrwt>
<rscale>  0 0.55313660E+02</rscale>
<asrwt>0</asrwt>
<pdfrwt beam="1">  1        2 0.20895833E-01 0.90691708E+02</pdfrwt>
<pdfrwt beam="2">  1       -2 0.39404039E-02 0.90691708E+02</pdfrwt>
<totfact> 0.63845220E+04</totfact>
</mgrwt>
</event>
<event>
 6    1  0.1535419E-002  0.8693188E+02  0.7546771E-02  0.1427191E+00
          2   -1    0    0  501    0  0.00000000000E+00  0.00000000000E+00  0.49240457133E+03  0.49240457133E+03  0.00000000000E+00 0.  1.
         -2   -1    0    0    0  501 -0.00000000000E+00 -0.00000000000E+00 -0.50235821586E+01  0.50235821586E+01  0.00000000000E+00 0. -1.
         23    2    1    2    0    0 -0.10948643919E+02 -0.60242157700E+01  0.42112516168E+03  0.43000413213E+03  0.86028994365E+02 0.  0.
         13    1    3    3    0    0  0.24722163177E+02 -0.20251031539E+02  0.32384652604E+03  0.32541951702E+03  0.00000000000E+00 0.  1.
        -13    1    3    3    0    0 -0.35670807096E+02  0.14226815769E+02  0.97278635638E+02  0.10458461511E+03  0.00000000000E+00 0. -1.
         22    1    1    2    0    0  0.10948643919E+02  0.60242157700E+01  0.66255827489E+02  0.67424021354E+02  0.00000000000E+00 0.  1.
<mgrwt>
<rscale>  0 0.53528111E+02</rscale>
<asrwt>0</asrwt>
<pdfrwt beam="1">  1        2 0.75754511E-01 0.86931881E+02</pdfrwt>
<pdfrwt beam="2">  1       -2 0.77285918E-03 0.86931881E+02</pdfrwt>
<totfact> 0.16651891E+05</totfact>
</mgrwt>
</event>
<event>
 6    1  0.1535419E-002  0.9669162E+02  0.7546771E-02  0.1362590E+00
          1   -1    0    0  501    0  0.00000000000E+00  0.00000000000E+00  0.19175260109E+03  0.19175260109E+03  0.00000000000E+00 0. -1.
         -1   -1    0    0    0  501 -0.00000000000E+00 -0.00000000000E+00 -0.65730359075E+02  0.65730359075E+02  0.00000000000E+00 0.  1.
         23    2    1    2    0    0  0.21549540397E+02  0.13577920907E+02  0.17632665539E+03  0.20109788562E+03  0.93276618556E+02 0.  0.
         13    1    3    3    0    0 -0.12467634617E+02 -0.17554029914E+02  0.29963008880E+01  0.21738530267E+02  0.00000000000E+00 0.  1.
        -13    1    3    3    0    0  0.34017175014E+02  0.31131950821E+02  0.17333035451E+03  0.17935935535E+03  0.00000000000E+00 0. -1.
         22    1    1    2    0    0 -0.21549540397E+02 -0.13577920907E+02 -0.50304413374E+02  0.56385074554E+02  0.00000000000E+00 0.  1.
<mgrwt>
<rscale>  0 0.69270879E+02</rscale>
<asrwt>0</asrwt>
<pdfrwt beam="1">  1        1 0.29500400E-01 0.96691624E+02</pdfrwt>
<pdfrwt beam="2">  1       -1 0.10112363E-01 0.96691624E+02</pdfrwt>
<totfact> 0.85265298E+03</totfact>
</mgrwt>
</event>
<event>
 6    1  0.1535419E-002  0.1004188E+03  0.7546771E-02  0.1328290E+00
          2   -1    0    0  501    0  0.00000000000E+00  0.00000000000E+00  0.54184137101E+02  0.54184137101E+02  0.00000000000E+00 0. -1.
         -2   -1    0    0    0  501 -0.00000000000E+00 -0.00000000000E+00 -0.15332849368E+03  0.15332849368E+03  0.00000000000E+00 0.  1.
         23    2    1    2    0    0 -0.21316050659E+02  0.35018921657E+02 -0.20827966166E+00  0.10041899789E+03  0.91669148940E+02 0.  0.
         13    1    3    3    0    0 -0.99031289472E+01 -0.19574072727E+02  0.29864008641E+02  0.37055030673E+02  0.00000000000E+00 0. -1.
        -13    1    3    3    0    0 -0.11412921712E+02  0.54592994384E+02 -0.30072288303E+02  0.63363967218E+02  0.00000000000E+00 0.  1.
         22    1    1    2    0    0  0.21316050659E+02 -0.35018921657E+02 -0.98936076916E+02  0.10709363289E+03  0.00000000000E+00 0.  1.
<mgrwt>
<rscale>  0 0.80268926E+02</rscale>
<asrwt>0</asrwt>
<pdfrwt beam="1">  1        2 0.83360213E-02 0.10041878E+03</pdfrwt>
<pdfrwt beam="2">  1       -2 0.23588999E-01 0.10041878E+03</pdfrwt>
<totfact> 0.11545277E+04</totfact>
</mgrwt>
</event>
<event>
 6    1  0.1535419E-002  0.9258055E+02  0.7546771E-02  0.1390008E+00
          3   -1    0    0  501    0  0.00000000000E+00  0.00000000000E+00  0.10392666767E+03  0.10392666767E+03  0.00000000000E+00 0. -1.
         -3   -1    0    0    0  501 -0.00000000000E+00 -0.00000000000E+00 -0.30035238815E+02  0.30035238815E+02  0.00000000000E+00 0.  1.
         23    2    1    2    0    0 -0.17931135681E+02 -0.45810399161E+01  0.66705849902E+02  0.11410884379E+03  0.90711886023E+02 0.  0.
         11    1    3    3    0    0 -0.40816824244E+02  0.26752020796E+02  0.18415325895E+02  0.52161364877E+02  0.00000000000E+00 0.  1.
        -11    1    3    3    0    0  0.22885688562E+02 -0.31333060712E+02  0.48290524007E+02  0.61947478911E+02  0.00000000000E+00 0. -1.
         22    1    1    2    0    0  0.17931135681E+02  0.45810399161E+01  0.71855789508E+01  0.19853062696E+02  0.00000000000E+00 0.  1.
<mgrwt>
<rscale>  0 0.61904784E+02</rscale>
<asrwt>0</asrwt>
<pdfrwt beam="1">  1        3 0.15988718E-01 0.92580548E+02</pdfrwt>
<pdfrwt beam="2">  1       -3 0.46208060E-02 0.92580548E+02</pdfrwt>
<totfact> 0.17648437E+04</totfact>
</mgrwt>
</event>
<event>
 6    1  0.1535419E-002  0.9353874E+02  0.7546771E-02  0.1388295E+00
          4   -1    0    0  501    0  0.00000000000E+00  0.00000000000E+00  0.11980844563E+02  0.11980844563E+02  0.00000000000E+00 0. -1.
         -4   -1    0    0    0  501 -0.00000000000E+00 -0.00000000000E+00 -0.28577199959E+03  0.28577199959E+03  0.00000000000E+00 0.  1.
         23    2    1    2    0    0 -0.11622524519E+02  0.14323283986E+02 -0.18779849337E+03  0.20980412388E+03  0.91701999659E+02 0.  0.
         13    1    3    3    0    0  0.21496156442E+02 -0.23405593019E+02 -0.12721028292E+03  0.13111964996E+03  0.00000000000E+00 0.  1.
        -13    1    3    3    0    0 -0.33118680962E+02  0.37728877005E+02 -0.60588210456E+02  0.78684473913E+02  0.00000000000E+00 0. -1.
         22    1    1    2    0    0  0.11622524519E+02 -0.14323283986E+02 -0.85992661655E+02  0.87948720280E+02  0.00000000000E+00 0.  1.
<mgrwt>
<rscale>  0 0.62332815E+02</rscale>
<asrwt>0</asrwt>
<pdfrwt beam="1">  1        4 0.18432071E-02 0.93538742E+02</pdfrwt>
<pdfrwt beam="2">  1       -4 0.43964918E-01 0.93538742E+02</pdfrwt>
<totfact> 0.85499076E+03</totfact>
</mgrwt>
</event>
<event>
 6    1  0.1535419E-002  0.9204187E+02  0.7546771E-02  0.1408886E+00
         -2   -1    0    0    0  501 -0.00000000000E+00  0.00000000000E+00  0.88643164670E+01  0.88643164670E+01  0.00000000000E+00 0.  1.
          2   -1    0    0  501    0  0.00000000000E+00 -0.00000000000E+00 -0.14937271577E+04  0.14937271577E+04  0.00000000000E+00 0. -1.
         23    2    1    2    0    0 -0.71495740008E+01  0.11994303465E+02 -0.14857514604E+04  0.14885997135E+04  0.90976509056E+02 0.  0.
         13    1    3    3    0    0  0.80935479833E+01  0.33308887277E+02 -0.13445777259E+04  0.13450145904E+04  0.00000000000E+00 0. -1.
        -13    1    3    3    0    0 -0.15243121984E+02 -0.21314583812E+02 -0.14117373450E+03  0.14358512306E+03  0.00000000000E+00 0.  1.
         22    1    1    2    0    0  0.71495740008E+01 -0.11994303465E+02  0.88861912619E+00  0.13991760717E+02  0.00000000000E+00 0.  1.
<mgrwt>
<rscale>  0 0.57443083E+02</rscale>
<asrwt>0</asrwt>
<pdfrwt beam="1">  1        2 0.22980410E+00 0.92041865E+02</pdfrwt>
<pdfrwt beam="2">  1       -2 0.13637415E-02 0.92041865E+02</pdfrwt>
<totfact> 0.17580005E+04</totfact>
</mgrwt>
</event>
<event>
 6    1  0.1535419E-002  0.9280474E+02  0.7546771E-02  0.1401106E+00
         -2   -1    0    0    0  501 -0.00000000000E+00  0.00000000000E+00  0.27966956722E+01  0.27966956722E+01  0.00000000000E+00 0. -1.
          2   -1    0    0  501    0  0.00000000000E+00 -0.00000000000E+00 -0.22386282542E+04  0.22386282542E+04  0.00000000000E+00 0.  1.
         23    2    1    2    0    0 -0.98265246849E+01 -0.11849870447E+02 -0.22051121687E+04  0.22070642030E+04  0.91519065989E+02 0.  0.
         11    1    3    3    0    0  0.12708970468E+02  0.71741762647E+00 -0.44160364713E+02  0.45958355389E+02  0.00000000000E+00 0. -1.
        -11    1    3    3    0    0 -0.22535495153E+02 -0.12567288073E+02 -0.21609518040E+04  0.21611058476E+04  0.00000000000E+00 0.  1.
         22    1    1    2    0    0  0.98265246849E+01  0.11849870447E+02 -0.30719389868E+02  0.34360746949E+02  0.00000000000E+00 0. -1.
<mgrwt>
<rscale>  0 0.59226570E+02</rscale>
<asrwt>0</asrwt>
<pdfrwt beam="1">  1        2 0.34440456E+00 0.92804738E+02</pdfrwt>
<pdfrwt beam="2">  1       -2 0.43026060E-03 0.92804738E+02</pdfrwt>
<totfact> 0.37669935E+04</totfact>
</mgrwt>
</event>
<event>
 6    1  0.1535419E-002  0.9021393E+02  0.7546771E-02  0.1417703E+00
          2   -1    0    0  501    0  0.00000000000E+00  0.00000000000E+00  0.65079516861E+03  0.65079516861E+03  0.00000000000E+00 0. -1.
         -2   -1    0    0    0  501 -0.00000000000E+00 -0.00000000000E+00 -0.44909162399E+01  0.44909162399E+01  0.00000000000E+00 0.  1.
         23    2    1    2    0    0  0.10009292239E+02 -0.81881308904E+01  0.61222028607E+03  0.61883134336E+03  0.89282257061E+02 0.  0.
         13    1    3    3    0    0  0.20334346107E+02  0.37315254740E+02  0.24495336089E+03  0.24861227419E+03  0.00000000000E+00 0.  1.
        -13    1    3    3    0    0 -0.10325053868E+02 -0.45503385630E+02  0.36726692518E+03  0.37021906917E+03  0.00000000000E+00 0. -1.
         22    1    1    2    0    0 -0.10009292239E+02  0.81881308904E+01  0.34083966296E+02  0.36454741489E+02  0.00000000000E+00 0. -1.
<mgrwt>
<rscale>  0 0.55509834E+02</rscale>
<asrwt>0</asrwt>
<pdfrwt beam="1">  1        2 0.10012226E+00 0.90213928E+02</pdfrwt>
<pdfrwt beam="2">  1       -2 0.69091071E-03 0.90213928E+02</pdfrwt>
<totfact> 0.14408222E+05</totfact>
</mgrwt>
</event>
<event>
 6    1  0.1535419E-002  0.8785135E+02  0.7546771E-02  0.1435258E+00
         -4   -1    0    0    0  501 -0.00000000000E+00  0.00000000000E+00  0.31745629837E+02  0.31745629837E+02  0.00000000000E+00 0.  1.
          4   -1    0    0  501    0  0.00000000000E+00 -0.00000000000E+00 -0.97955687922E+02  0.97955687922E+02  0.00000000000E+00 0. -1.
         23    2    1    2    0    0  0.10457239232E+02 -0.23432961123E+01 -0.75255684350E+02  0.11567747222E+03  0.87195267443E+02 0.  0.
         11    1    3    3    0    0  0.47147208225E+02  0.85021909336E+01 -0.52884343013E+02  0.71357552018E+02  0.00000000000E+00 0. -1.
        -11    1    3    3    0    0 -0.36689968993E+02 -0.10845487046E+02 -0.22371341337E+02  0.44319920207E+02  0.00000000000E+00 0.  1.
         22    1    1    2    0    0 -0.10457239232E+02  0.23432961123E+01  0.90456262654E+01  0.14023845534E+02  0.00000000000E+00 0.  1.
<mgrwt>
<rscale>  0 0.51918876E+02</rscale>
<asrwt>0</asrwt>
<pdfrwt beam="1">  1        4 0.15070106E-01 0.87851349E+02</pdfrwt>
<pdfrwt beam="2">  1       -4 0.48839431E-02 0.87851349E+02</pdfrwt>
<totfact> 0.13268895E+04</totfact>
</mgrwt>
</event>
<event>
 6    1  0.1535419E-002  0.1100749E+03  0.7546771E-02  0.1289461E+00
          2   -1    0    0  501    0  0.00000000000E+00  0.00000000000E+00  0.30468713134E+03  0.30468713134E+03  0.00000000000E+00 0. -1.
         -2   -1    0    0    0  501 -0.00000000000E+00 -0.00000000000E+00 -0.13089166973E+03  0.13089166973E+03  0.00000000000E+00 0.  1.
         23    2    1    2    0    0  0.29680835189E+02 -0.55641599969E+02  0.28623003923E+03  0.30666614122E+03  0.90219439080E+02 0.  0.
         11    1    3    3    0    0  0.33056727254E+02 -0.66973802824E+02  0.28517685352E+03  0.29479497157E+03  0.00000000000E+00 0. -1.
        -11    1    3    3    0    0 -0.33758920649E+01  0.11332202855E+02  0.10531857177E+01  0.11871169653E+02  0.00000000000E+00 0.  1.
         22    1    1    2    0    0 -0.29680835189E+02  0.55641599969E+02 -0.11243457762E+03  0.12891265985E+03  0.00000000000E+00 0.  1.
<mgrwt>
<rscale>  0 0.95765679E+02</rscale>
<asrwt>0</asrwt>
<pdfrwt beam="1">  1        2 0.46874943E-01 0.11007491E+03</pdfrwt>
<pdfrwt beam="2">  1       -2 0.20137180E-01 0.11007491E+03</pdfrwt>
<totfact> 0.21598012E+03</totfact>
</mgrwt>
</event>
<event>
 6    1  0.1535419E-002  0.9431471E+02  0.7546771E-02  0.1387889E+00
         -2   -1    0    0    0  501 -0.00000000000E+00  0.00000000000E+00  0.99405674724E+01  0.99405674724E+01  0.00000000000E+00 0. -1.
          2   -1    0    0  501    0  0.00000000000E+00 -0.00000000000E+00 -0.69957605323E+03  0.69957605323E+03  0.00000000000E+00 0.  1.
         23    2    1    2    0    0 -0.29422731854E+01  0.17871378896E+02 -0.68410975378E+03  0.69058049467E+03  0.92559285010E+02 0.  0.
         11    1    3    3    0    0  0.46703223515E+01  0.50418982843E+02 -0.55162583629E+03  0.55394489708E+03  0.00000000000E+00 0. -1.
        -11    1    3    3    0    0 -0.76125955369E+01 -0.32547603947E+02 -0.13248391749E+03  0.13663559759E+03  0.00000000000E+00 0.  1.
         22    1    1    2    0    0  0.29422731854E+01 -0.17871378896E+02 -0.55257319694E+01  0.18936126028E+02  0.00000000000E+00 0. -1.
<mgrwt>
<rscale>  0 0.62434688E+02</rscale>
<asrwt>0</asrwt>
<pdfrwt beam="1">  1        2 0.10762709E+00 0.94314709E+02</pdfrwt>
<pdfrwt beam="2">  1       -2 0.15293180E-02 0.94314709E+02</pdfrwt>
<totfact> 0.43240772E+04</totfact>
</mgrwt>
</event>
<event>
 6    1  0.1535419E-002  0.1130050E+03  0.7546771E-02  0.1285080E+00
          2   -1    0    0  501    0  0.00000000000E+00  0.00000000000E+00  0.53584620126E+03  0.53584620126E+03  0.00000000000E+00 0. -1.
         -2   -1    0    0    0  501 -0.00000000000E+00 -0.00000000000E+00 -0.17694334345E+02  0.17694334345E+02  0.00000000000E+00 0.  1.
         23    2    1    2    0    0 -0.51510430954E+02  0.36773092058E+02  0.43264120238E+03  0.44715605109E+03  0.93619117879E+02 0.  0.
         11    1    3    3    0    0 -0.45805703006E+02  0.55290356131E+02  0.41430108339E+03  0.42047660293E+03  0.00000000000E+00 0. -1.
        -11    1    3    3    0    0 -0.57047279471E+01 -0.18517264073E+02  0.18340118985E+02  0.26679448159E+02  0.00000000000E+00 0.  1.
         22    1    1    2    0    0  0.51510430954E+02 -0.36773092058E+02  0.85510664537E+02  0.10638448452E+03  0.00000000000E+00 0.  1.
<mgrwt>
<rscale>  0 0.97758923E+02</rscale>
<asrwt>0</asrwt>
<pdfrwt beam="1">  1        2 0.82437865E-01 0.11300497E+03</pdfrwt>
<pdfrwt beam="2">  1       -2 0.27222057E-02 0.11300497E+03</pdfrwt>
<totfact> 0.25946127E+04</totfact>
</mgrwt>
</event>
<event>
 6    1  0.1535419E-002  0.7758356E+02  0.7546771E-02  0.1458496E+00
         -2   -1    0    0    0  501 -0.00000000000E+00  0.00000000000E+00  0.75697296653E+01  0.75697296653E+01  0.00000000000E+00 0.  1.
          2   -1    0    0  501    0  0.00000000000E+00 -0.00000000000E+00 -0.40544974954E+03  0.40544974954E+03  0.00000000000E+00 0. -1.
         23    2    1    2    0    0 -0.92679918979E+01 -0.59825757716E+01 -0.39362192817E+03  0.40119500325E+03  0.76795321556E+02 0.  0.
         11    1    3    3    0    0 -0.42266270918E+02 -0.11108324885E+02 -0.24505722884E+03  0.24892343792E+03  0.00000000000E+00 0. -1.
        -11    1    3    3    0    0  0.32998279020E+02  0.51257491134E+01 -0.14856469932E+03  0.15227156533E+03  0.00000000000E+00 0.  1.
         22    1    1    2    0    0  0.92679918979E+01  0.59825757716E+01 -0.42580917129E+01  0.11824475960E+02  0.00000000000E+00 0.  1.
<mgrwt>
<rscale>  0 0.47641205E+02</rscale>
<asrwt>0</asrwt>
<pdfrwt beam="1">  1        2 0.62376890E-01 0.77583557E+02</pdfrwt>
<pdfrwt beam="2">  1       -2 0.11645737E-02 0.77583557E+02</pdfrwt>
<totfact> 0.11271104E+05</totfact>
</mgrwt>
</event>
<event>
 6    1  0.1535419E-002  0.9043398E+02  0.7546771E-02  0.1422866E+00
          2   -1    0    0  501    0  0.00000000000E+00  0.00000000000E+00  0.89948591028E+02  0.89948591028E+02  0.00000000000E+00 0. -1.
         -2   -1    0    0    0  501 -0.00000000000E+00 -0.00000000000E+00 -0.29455521150E+02  0.29455521150E+02  0.00000000000E+00 0.  1.
         23    2    1    2    0    0 -0.41245886381E+01  0.11117545065E+02  0.57527962124E+02  0.10718102322E+03  0.89653183281E+02 0.  0.
         13    1    3    3    0    0  0.24101963365E+02 -0.26575120124E+02  0.43329148607E+01  0.36137457005E+02  0.00000000000E+00 0. -1.
        -13    1    3    3    0    0 -0.28226552003E+02  0.37692665189E+02  0.53195047264E+02  0.71043566214E+02  0.00000000000E+00 0.  1.
         22    1    1    2    0    0  0.41245886381E+01 -0.11117545065E+02  0.29651077534E+01  0.12223088959E+02  0.00000000000E+00 0. -1.
<mgrwt>
<rscale>  0 0.54419125E+02</rscale>
<asrwt>0</asrwt>
<pdfrwt beam="1">  1        2 0.13838245E-01 0.90433983E+02</pdfrwt>
<pdfrwt beam="2">  1       -2 0.45316187E-02 0.90433983E+02</pdfrwt>
<totfact> 0.83046550E+04</totfact>
</mgrwt>
</event>
<event>
 6    1  0.1535419E-002  0.1493007E+03  0.7546771E-02  0.1211907E+00
          2   -1    0    0  501    0  0.00000000000E+00  0.00000000000E+00  0.32913818427E+03  0.32913818427E+03  0.00000000000E+00 0. -1.
         -2   -1    0    0    0  501 -0.00000000000E+00 -0.00000000000E+00 -0.55863802361E+02  0.55863802361E+02  0.00000000000E+00 0.  1.
         23    2    1    2    0    0 -0.38930140671E+02 -0.11242587431E+03  0.17975037081E+03  0.23366833631E+03  0.90197353169E+02 0.  0.
         13    1    3    3    0    0 -0.20119903926E+02 -0.10663324865E+03  0.18392303723E+03  0.21354892619E+03  0.00000000000E+00 0. -1.
        -13    1    3    3    0    0 -0.18810236745E+02 -0.57926256670E+01 -0.41726664225E+01  0.20119410121E+02  0.00000000000E+00 0.  1.
         22    1    1    2    0    0  0.38930140671E+02  0.11242587431E+03  0.93524011096E+02  0.15133365032E+03  0.00000000000E+00 0.  1.
<mgrwt>
<rscale>  0 0.14106218E+03</rscale>
<asrwt>0</asrwt>
<pdfrwt beam="1">  1        2 0.50636643E-01 0.14930069E+03</pdfrwt>
<pdfrwt beam="2">  1       -2 0.85944313E-02 0.14930069E+03</pdfrwt>
<totfact> 0.79891241E+03</totfact>
</mgrwt>
</event>
<event>
 6    1  0.1535419E-002  0.9866494E+02  0.7546771E-02  0.1337397E+00
          2   -1    0    0  501    0  0.00000000000E+00  0.00000000000E+00  0.14891382885E+04  0.14891382885E+04  0.00000000000E+00 0. -1.
         -2   -1    0    0    0  501 -0.00000000000E+00 -0.00000000000E+00 -0.44987025816E+01  0.44987025816E+01  0.00000000000E+00 0.  1.
         23    2    1    2    0    0  0.27955772516E+02 -0.24005931056E+02  0.13623067098E+04  0.13658749368E+04  0.91525741656E+02 0.  0.
         11    1    3    3    0    0  0.40318137972E+02 -0.40037065946E+02  0.48230983255E+03  0.48564523417E+03  0.00000000000E+00 0.  1.
        -11    1    3    3    0    0 -0.12362365456E+02  0.16031134890E+02  0.87999687727E+03  0.88022970262E+03  0.00000000000E+00 0. -1.
         22    1    1    2    0    0 -0.27955772516E+02  0.24005931056E+02  0.12233287613E+03  0.12776205432E+03  0.00000000000E+00 0.  1.
<mgrwt>
<rscale>  0 0.77130657E+02</rscale>
<asrwt>0</asrwt>
<pdfrwt beam="1">  1        2 0.22909781E+00 0.98664945E+02</pdfrwt>
<pdfrwt beam="2">  1       -2 0.69210928E-03 0.98664945E+02</pdfrwt>
<totfact> 0.46466709E+04</totfact>
</mgrwt>
</event>
<event>
 6    1  0.1535419E-002  0.9098408E+02  0.7546771E-02  0.1410038E+00
          2   -1    0    0  501    0  0.00000000000E+00  0.00000000000E+00  0.59347650321E+02  0.59347650321E+02  0.00000000000E+00 0. -1.
         -2   -1    0    0    0  501 -0.00000000000E+00 -0.00000000000E+00 -0.47917181009E+02  0.47917181009E+02  0.00000000000E+00 0.  1.
         23    2    1    2    0    0 -0.17522683126E+01 -0.14089889326E+02  0.15935019422E+02  0.92368979654E+02  0.89869394863E+02 0.  0.
         13    1    3    3    0    0 -0.23205691833E+02  0.31277586654E+02 -0.22011280725E+01  0.39008159725E+02  0.00000000000E+00 0.  1.
        -13    1    3    3    0    0  0.21453423520E+02 -0.45367475980E+02  0.18136147494E+02  0.53360819929E+02  0.00000000000E+00 0. -1.
         22    1    1    2    0    0  0.17522683126E+01  0.14089889326E+02 -0.45045501097E+01  0.14895851676E+02  0.00000000000E+00 0.  1.
<mgrwt>
<rscale>  0 0.57185267E+02</rscale>
<asrwt>0</asrwt>
<pdfrwt beam="1">  1        2 0.91304077E-02 0.90984084E+02</pdfrwt>
<pdfrwt beam="2">  1       -2 0.73718740E-02 0.90984084E+02</pdfrwt>
<totfact> 0.65949394E+04</totfact>
</mgrwt>
</event>
<event>
 6    1  0.1535419E-002  0.9180036E+02  0.7546771E-02  0.1404792E+00
         -1   -1    0    0    0  501 -0.00000000000E+00  0.00000000000E+00  0.25815215745E+02  0.25815215745E+02  0.00000000000E+00 0.  1.
          1   -1    0    0  501    0  0.00000000000E+00 -0.00000000000E+00 -0.11252200845E+03  0.11252200845E+03  0.00000000000E+00 0. -1.
         23    2    1    2    0    0  0.46124459219E+01 -0.14280555879E+02 -0.80503084460E+02  0.12209853799E+03  0.90565431807E+02 0.  0.
         13    1    3    3    0    0  0.97473416419E+01 -0.31546237287E+02 -0.93973897336E+02  0.99605567799E+02  0.00000000000E+00 0. -1.
        -13    1    3    3    0    0 -0.51348957200E+01  0.17265681407E+02  0.13470812876E+02  0.22492970192E+02  0.00000000000E+00 0.  1.
         22    1    1    2    0    0 -0.46124459219E+01  0.14280555879E+02 -0.62037082421E+01  0.16238686202E+02  0.00000000000E+00 0.  1.
<mgrwt>
<rscale>  0 0.58372258E+02</rscale>
<asrwt>0</asrwt>
<pdfrwt beam="1">  1        1 0.17311078E-01 0.91800362E+02</pdfrwt>
<pdfrwt beam="2">  1       -1 0.39715716E-02 0.91800362E+02</pdfrwt>
<totfact> 0.65745507E+04</totfact>
</mgrwt>
</event>
<event>
 6    1  0.1535419E-002  0.9633952E+02  0.7546771E-02  0.1347741E+00
          2   -1    0    0  501    0  0.00000000000E+00  0.00000000000E+00  0.34427566728E+03  0.34427566728E+03  0.00000000000E+00 0. -1.
         -2   -1    0    0    0  501 -0.00000000000E+00 -0.00000000000E+00 -0.15615653959E+02  0.15615653959E+02  0.00000000000E+00 0.  1.
         23    2    1    2    0    0  0.25482329510E+02 -0.21141873298E+02  0.30315923526E+03  0.31809876681E+03  0.90470854978E+02 0.  0.
         11    1    3    3    0    0  0.55500166457E+02 -0.28346535637E+02  0.16132166260E+03  0.17294066434E+03  0.00000000000E+00 0. -1.
        -11    1    3    3    0    0 -0.30017836948E+02  0.72046623393E+01  0.14183757266E+03  0.14515810247E+03  0.00000000000E+00 0.  1.
         22    1    1    2    0    0 -0.25482329510E+02  0.21141873298E+02  0.25500778062E+02  0.41792554427E+02  0.00000000000E+00 0.  1.
<mgrwt>
<rscale>  0 0.73764249E+02</rscale>
<asrwt>0</asrwt>
<pdfrwt beam="1">  1        2 0.52965481E-01 0.96339522E+02</pdfrwt>
<pdfrwt beam="2">  1       -2 0.24024086E-02 0.96339522E+02</pdfrwt>
<totfact> 0.49031373E+04</totfact>
</mgrwt>
</event>
<event>
 6    1  0.1535419E-002  0.1065771E+03  0.7546771E-02  0.1305581E+00
          2   -1    0    0  501    0  0.00000000000E+00  0.00000000000E+00  0.11185591098E+04  0.11185591098E+04  0.00000000000E+00 0. -1.
         -2   -1    0    0    0  501 -0.00000000000E+00 -0.00000000000E+00 -0.70670889561E+01  0.70670889561E+01  0.00000000000E+00 0.  1.
         23    2    1    2    0    0 -0.43041107882E+02  0.28378739761E+02  0.95344470471E+03  0.95938287114E+03  0.93278071723E+02 0.  0.
         13    1    3    3    0    0 -0.30790732177E+02  0.10595469506E+02  0.91260273396E+03  0.91318348824E+03  0.00000000000E+00 0. -1.
        -13    1    3    3    0    0 -0.12250375705E+02  0.17783270255E+02  0.40841970749E+02  0.46199382902E+02  0.00000000000E+00 0.  1.
         22    1    1    2    0    0  0.43041107882E+02 -0.28378739761E+02  0.15804731609E+03  0.16624332757E+03  0.00000000000E+00 0.  1.
<mgrwt>
<rscale>  0 0.88882281E+02</rscale>
<asrwt>0</asrwt>
<pdfrwt beam="1">  1        2 0.17208588E+00 0.10657715E+03</pdfrwt>
<pdfrwt beam="2">  1       -2 0.10872453E-02 0.10657715E+03</pdfrwt>
<totfact> 0.38913919E+04</totfact>
</mgrwt>
</event>
<event>
 6    1  0.1535419E-002  0.9292005E+02  0.7546771E-02  0.1408405E+00
         -2   -1    0    0    0  501 -0.00000000000E+00  0.00000000000E+00  0.54378533383E+02  0.54378533383E+02  0.00000000000E+00 0.  1.
          2   -1    0    0  501    0  0.00000000000E+00 -0.00000000000E+00 -0.55470373682E+02  0.55470373682E+02  0.00000000000E+00 0. -1.
         23    2    1    2    0    0  0.11186031510E+02 -0.78643240372E+01 -0.10110822140E+02  0.93468524683E+02  0.91908440791E+02 0.  0.
         13    1    3    3    0    0 -0.14535438817E+02 -0.42810329185E+02 -0.19227971767E+02  0.49129605787E+02  0.00000000000E+00 0. -1.
        -13    1    3    3    0    0  0.25721470327E+02  0.34946005148E+02  0.91171496263E+01  0.44338918896E+02  0.00000000000E+00 0.  1.
         22    1    1    2    0    0 -0.11186031510E+02  0.78643240372E+01  0.90189818417E+01  0.16380382381E+02  0.00000000000E+00 0.  1.
<mgrwt>
<rscale>  0 0.57551282E+02</rscale>
<asrwt>0</asrwt>
<pdfrwt beam="1">  1        2 0.85339036E-02 0.92920054E+02</pdfrwt>
<pdfrwt beam="2">  1       -2 0.83659282E-02 0.92920054E+02</pdfrwt>
<totfact> 0.59250002E+04</totfact>
</mgrwt>
</event>
<event>
 6    1  0.1535419E-002  0.9122274E+02  0.7546771E-02  0.1410814E+00
         -2   -1    0    0    0  501 -0.00000000000E+00  0.00000000000E+00  0.35358019043E+02  0.35358019043E+02  0.00000000000E+00 0.  1.
          2   -1    0    0  501    0  0.00000000000E+00 -0.00000000000E+00 -0.78660802009E+02  0.78660802009E+02  0.00000000000E+00 0. -1.
         23    2    1    2    0    0  0.26208847126E+00  0.13915446214E+02 -0.34379841297E+02  0.97486210195E+02  0.90154752270E+02 0.  0.
         13    1    3    3    0    0  0.15267650703E+02  0.23807087110E+02  0.23568293292E+02  0.36814983408E+02  0.00000000000E+00 0.  1.
        -13    1    3    3    0    0 -0.15005562232E+02 -0.98916408952E+01 -0.57948134589E+02  0.60671226787E+02  0.00000000000E+00 0. -1.
         22    1    1    2    0    0 -0.26208847126E+00 -0.13915446214E+02 -0.89229416700E+01  0.16532610857E+02  0.00000000000E+00 0.  1.
<mgrwt>
<rscale>  0 0.57012602E+02</rscale>
<asrwt>0</asrwt>
<pdfrwt beam="1">  1        2 0.12101662E-01 0.91222737E+02</pdfrwt>
<pdfrwt beam="2">  1       -2 0.54396953E-02 0.91222737E+02</pdfrwt>
<totfact> 0.74238928E+04</totfact>
</mgrwt>
</event>
<event>
 6    1  0.1535419E-002  0.5618972E+02  0.7546771E-02  0.1521694E+00
          2   -1    0    0  501    0  0.00000000000E+00  0.00000000000E+00  0.12623932834E+03  0.12623932834E+03  0.00000000000E+00 0. -1.
         -2   -1    0    0    0  501 -0.00000000000E+00 -0.00000000000E+00 -0.10675067449E+02  0.10675067449E+02  0.00000000000E+00 0.  1.
         23    2    1    2    0    0  0.96580516441E+01  0.71798083216E+01  0.11028228542E+03  0.12377183614E+03  0.54885857340E+02 0.  0.
         11    1    3    3    0    0  0.60868898020E+01  0.19019867493E+01  0.11541394612E+03  0.11558999412E+03  0.00000000000E+00 0. -1.
        -11    1    3    3    0    0  0.35711618421E+01  0.52778215723E+01 -0.51316606987E+01  0.81818420284E+01  0.00000000000E+00 0.  1.
         22    1    1    2    0    0 -0.96580516441E+01 -0.71798083216E+01  0.52819754700E+01  0.13142559643E+02  0.00000000000E+00 0.  1.
<mgrwt>
<rscale>  0 0.38225140E+02</rscale>
<asrwt>0</asrwt>
<pdfrwt beam="1">  1        2 0.19421434E-01 0.56189723E+02</pdfrwt>
<pdfrwt beam="2">  1       -2 0.16423182E-02 0.56189723E+02</pdfrwt>
<totfact> 0.22412608E+05</totfact>
</mgrwt>
</event>
<event>
 6    1  0.1535419E-002  0.9499329E+02  0.7546771E-02  0.1397677E+00
          2   -1    0    0  501    0  0.00000000000E+00  0.00000000000E+00  0.16668182100E+02  0.16668182100E+02  0.00000000000E+00 0. -1.
         -2   -1    0    0    0  501 -0.00000000000E+00 -0.00000000000E+00 -0.19157208359E+03  0.19157208359E+03  0.00000000000E+00 0.  1.
         23    2    1    2    0    0  0.10598300708E+02  0.10834574611E+02 -0.13117029212E+03  0.16195484063E+03  0.93776398323E+02 0.  0.
         11    1    3    3    0    0 -0.38774573727E+02  0.19344220287E+02 -0.75568468198E+02  0.87110618251E+02  0.00000000000E+00 0. -1.
        -11    1    3    3    0    0  0.49372874435E+02 -0.85096456762E+01 -0.55601823923E+02  0.74844222376E+02  0.00000000000E+00 0.  1.
         22    1    1    2    0    0 -0.10598300708E+02 -0.10834574611E+02 -0.43733609370E+02  0.46285425064E+02  0.00000000000E+00 0.  1.
<mgrwt>
<rscale>  0 0.60036816E+02</rscale>
<asrwt>0</asrwt>
<pdfrwt beam="1">  1        2 0.25643357E-02 0.94993289E+02</pdfrwt>
<pdfrwt beam="2">  1       -2 0.29472628E-01 0.94993289E+02</pdfrwt>
<totfact> 0.35801577E+04</totfact>
</mgrwt>
</event>
<event>
 6    1  0.1535419E-002  0.7421119E+02  0.7546771E-02  0.1441494E+00
          2   -1    0    0  501    0  0.00000000000E+00  0.00000000000E+00  0.32258812917E+03  0.32258812917E+03  0.00000000000E+00 0. -1.
         -2   -1    0    0    0  501 -0.00000000000E+00 -0.00000000000E+00 -0.64615158702E+01  0.64615158702E+01  0.00000000000E+00 0.  1.
         23    2    1    2    0    0 -0.15305330784E+02 -0.52871644494E+01  0.27535730796E+03  0.28518230507E+03  0.72423013046E+02 0.  0.
         11    1    3    3    0    0 -0.38356883961E+02 -0.65904161078E+01  0.23875625693E+03  0.24190749132E+03  0.00000000000E+00 0. -1.
        -11    1    3    3    0    0  0.23051553178E+02  0.13032516584E+01  0.36601051033E+02  0.43274813755E+02  0.00000000000E+00 0.  1.
         22    1    1    2    0    0  0.15305330784E+02  0.52871644494E+01  0.40769305334E+02  0.43867339966E+02  0.00000000000E+00 0. -1.
<mgrwt>
<rscale>  0 0.50720394E+02</rscale>
<asrwt>0</asrwt>
<pdfrwt beam="1">  1        2 0.49628930E-01 0.74211186E+02</pdfrwt>
<pdfrwt beam="2">  1       -2 0.99407962E-03 0.74211186E+02</pdfrwt>
<totfact> 0.17744634E+05</totfact>
</mgrwt>
</event>
<event>
 6    1  0.1535419E-002  0.9333407E+02  0.7546771E-02  0.1374485E+00
         -2   -1    0    0    0  501 -0.00000000000E+00  0.00000000000E+00  0.28024739535E+01  0.28024739535E+01  0.00000000000E+00 0.  1.
          2   -1    0    0  501    0  0.00000000000E+00 -0.00000000000E+00 -0.14679193420E+04  0.14679193420E+04  0.00000000000E+00 0. -1.
         23    2    1    2    0    0 -0.20497642308E+02 -0.10966551507E+02 -0.13532608899E+04  0.13564756850E+04  0.90392639395E+02 0.  0.
         11    1    3    3    0    0 -0.30634435873E+02 -0.46864309293E+02 -0.83241066001E+03  0.83429145929E+03  0.00000000000E+00 0.  1.
        -11    1    3    3    0    0  0.10136793565E+02  0.35897757786E+02 -0.52085022989E+03  0.52218422570E+03  0.00000000000E+00 0. -1.
         22    1    1    2    0    0  0.20497642308E+02  0.10966551507E+02 -0.11185597819E+03  0.11424613101E+03  0.00000000000E+00 0. -1.
<mgrwt>
<rscale>  0 0.65935822E+02</rscale>
<asrwt>0</asrwt>
<pdfrwt beam="1">  1        2 0.22583285E+00 0.93334066E+02</pdfrwt>
<pdfrwt beam="2">  1       -2 0.43115155E-03 0.93334066E+02</pdfrwt>
<totfact> 0.92118362E+04</totfact>
</mgrwt>
</event>
<event>
 6    1  0.1535419E-002  0.9131578E+02  0.7546771E-02  0.1397841E+00
          2   -1    0    0  501    0  0.00000000000E+00  0.00000000000E+00  0.46893722760E+02  0.46893722760E+02  0.00000000000E+00 0. -1.
         -2   -1    0    0    0  501 -0.00000000000E+00 -0.00000000000E+00 -0.10442670355E+03  0.10442670355E+03  0.00000000000E+00 0.  1.
         23    2    1    2    0    0  0.14959929742E+02  0.81118465301E+01  0.79217601540E-02  0.91315784670E+02  0.89716057176E+02 0.  0.
         13    1    3    3    0    0 -0.11307134421E+02 -0.27421491580E+02  0.26516928495E+02  0.39786140629E+02  0.00000000000E+00 0.  1.
        -13    1    3    3    0    0  0.26267064163E+02  0.35533338111E+02 -0.26509006735E+02  0.51529644042E+02  0.00000000000E+00 0. -1.
         22    1    1    2    0    0 -0.14959929742E+02 -0.81118465301E+01 -0.57540902550E+02  0.60004641640E+02  0.00000000000E+00 0.  1.
<mgrwt>
<rscale>  0 0.59997686E+02</rscale>
<asrwt>0</asrwt>
<pdfrwt beam="1">  1        2 0.72144190E-02 0.91315784E+02</pdfrwt>
<pdfrwt beam="2">  1       -2 0.16065646E-01 0.91315784E+02</pdfrwt>
<totfact> 0.26006671E+04</totfact>
</mgrwt>
</event>
<event>
 6    1  0.1535419E-002  0.9820888E+02  0.7546771E-02  0.1371895E+00
          2   -1    0    0  501    0  0.00000000000E+00  0.00000000000E+00  0.23953713298E+02  0.23953713298E+02  0.00000000000E+00 0. -1.
         -2   -1    0    0    0  501 -0.00000000000E+00 -0.00000000000E+00 -0.19912103365E+03  0.19912103365E+03  0.00000000000E+00 0.  1.
         23    2    1    2    0    0  0.49129547259E+01  0.20236565221E+02 -0.83001155183E+02  0.12858528882E+03  0.95975669013E+02 0.  0.
         13    1    3    3    0    0  0.39352191670E+02 -0.19918794223E+02 -0.47816359655E+02  0.65051960794E+02  0.00000000000E+00 0.  1.
        -13    1    3    3    0    0 -0.34439236944E+02  0.40155359443E+02 -0.35184795528E+02  0.63533328023E+02  0.00000000000E+00 0. -1.
         22    1    1    2    0    0 -0.49129547259E+01 -0.20236565221E+02 -0.92166165173E+02  0.94489458136E+02  0.00000000000E+00 0.  1.
<mgrwt>
<rscale>  0 0.66643257E+02</rscale>
<asrwt>0</asrwt>
<pdfrwt beam="1">  1        2 0.36851868E-02 0.98208883E+02</pdfrwt>
<pdfrwt beam="2">  1       -2 0.30634004E-01 0.98208883E+02</pdfrwt>
<totfact> 0.20729466E+04</totfact>
</mgrwt>
</event>
<event>
 6    1  0.1535419E-002  0.9243425E+02  0.7546771E-02  0.1394288E+00
          2   -1    0    0  501    0  0.00000000000E+00  0.00000000000E+00  0.31711105961E+03  0.31711105961E+03  0.00000000000E+00 0. -1.
         -2   -1    0    0    0  501 -0.00000000000E+00 -0.00000000000E+00 -0.10099091867E+02  0.10099091867E+02  0.00000000000E+00 0.  1.
         23    2    1    2    0    0  0.10434374553E+02  0.13877836768E+02  0.28199736049E+03  0.29676017444E+03  0.90788872026E+02 0.  0.
         13    1    3    3    0    0 -0.11130602857E+02 -0.83750815504E+01  0.25581014473E+03  0.25618911464E+03  0.00000000000E+00 0. -1.
        -13    1    3    3    0    0  0.21564977410E+02  0.22252918318E+02  0.26187215763E+02  0.40571059806E+02  0.00000000000E+00 0.  1.
         22    1    1    2    0    0 -0.10434374553E+02 -0.13877836768E+02  0.25014607254E+02  0.30449977040E+02  0.00000000000E+00 0.  1.
<mgrwt>
<rscale>  0 0.60852760E+02</rscale>
<asrwt>0</asrwt>
<pdfrwt beam="1">  1        2 0.48786309E-01 0.92434246E+02</pdfrwt>
<pdfrwt beam="2">  1       -2 0.15537067E-02 0.92434246E+02</pdfrwt>
<totfact> 0.99390562E+04</totfact>
</mgrwt>
</event>
<event>
 6    1  0.1535419E-002  0.9458463E+02  0.7546771E-02  0.1365284E+00
          2   -1    0    0  501    0  0.00000000000E+00  0.00000000000E+00  0.41829313706E+03  0.41829313706E+03  0.00000000000E+00 0. -1.
         -2   -1    0    0    0  501 -0.00000000000E+00 -0.00000000000E+00 -0.10256543889E+02  0.10256543889E+02  0.00000000000E+00 0.  1.
         23    2    1    2    0    0  0.25400032820E+02  0.56141272497E+01  0.37363036924E+03  0.38541653433E+03  0.90937187252E+02 0.  0.
         11    1    3    3    0    0  0.45801081787E+02 -0.53815131445E+01  0.34726323402E+03  0.35031193739E+03  0.00000000000E+00 0.  1.
        -11    1    3    3    0    0 -0.20401048966E+02  0.10995640394E+02  0.26367135219E+02  0.35104596939E+02  0.00000000000E+00 0. -1.
         22    1    1    2    0    0 -0.25400032820E+02 -0.56141272497E+01  0.34406223937E+02  0.43133146624E+02  0.00000000000E+00 0. -1.
<mgrwt>
<rscale>  0 0.68495707E+02</rscale>
<asrwt>0</asrwt>
<pdfrwt beam="1">  1        2 0.64352777E-01 0.94584629E+02</pdfrwt>
<pdfrwt beam="2">  1       -2 0.15779302E-02 0.94584629E+02</pdfrwt>
<totfact> 0.72920417E+04</totfact>
</mgrwt>
</event>
<event>
 6    1  0.1535419E-002  0.1250587E+03  0.7546771E-02  0.1253757E+00
          3   -1    0    0  501    0  0.00000000000E+00  0.00000000000E+00  0.42825438176E+03  0.42825438176E+03  0.00000000000E+00 0. -1.
         -3   -1    0    0    0  501 -0.00000000000E+00 -0.00000000000E+00 -0.26157151651E+02  0.26157151651E+02  0.00000000000E+00 0.  1.
         23    2    1    2    0    0 -0.13945668355E+02  0.84491832605E+02  0.21681392876E+03  0.25029574960E+03  0.91139075698E+02 0.  0.
         11    1    3    3    0    0 -0.31460525767E+02  0.82013146945E+02  0.21531440317E+03  0.23254292757E+03  0.00000000000E+00 0. -1.
        -11    1    3    3    0    0  0.17514857412E+02  0.24786856600E+01  0.14995255915E+01  0.17752822022E+02  0.00000000000E+00 0.  1.
         22    1    1    2    0    0  0.13945668355E+02 -0.84491832605E+02  0.18528330135E+03  0.20411578381E+03  0.00000000000E+00 0.  1.
<mgrwt>
<rscale>  0 0.11376228E+03</rscale>
<asrwt>0</asrwt>
<pdfrwt beam="1">  1        3 0.65885284E-01 0.12505872E+03</pdfrwt>
<pdfrwt beam="2">  1       -3 0.40241775E-02 0.12505872E+03</pdfrwt>
<totfact> 0.16503092E+03</totfact>
</mgrwt>
</event>
<event>
 6    1  0.1535419E-002  0.9057337E+02  0.7546771E-02  0.1430191E+00
          4   -1    0    0  501    0  0.00000000000E+00  0.00000000000E+00  0.16846097712E+03  0.16846097712E+03  0.00000000000E+00 0. -1.
         -4   -1    0    0    0  501 -0.00000000000E+00 -0.00000000000E+00 -0.53269830859E+02  0.53269830859E+02  0.00000000000E+00 0.  1.
         23    2    1    2    0    0 -0.62298387355E+01 -0.85226711573E+01  0.15555870235E+03  0.18000567888E+03  0.89956032247E+02 0.  0.
         11    1    3    3    0    0 -0.19998899864E+02  0.16304675500E+02  0.43650095604E+01  0.26169672282E+02  0.00000000000E+00 0.  1.
        -11    1    3    3    0    0  0.13769061128E+02 -0.24827346657E+02  0.15119369279E+03  0.15383600660E+03  0.00000000000E+00 0. -1.
         22    1    1    2    0    0  0.62298387355E+01  0.85226711573E+01 -0.40367556085E+02  0.41725129103E+02  0.00000000000E+00 0.  1.
<mgrwt>
<rscale>  0 0.52921706E+02</rscale>
<asrwt>0</asrwt>
<pdfrwt beam="1">  1        4 0.25917073E-01 0.90573366E+02</pdfrwt>
<pdfrwt beam="2">  1       -4 0.81953587E-02 0.90573366E+02</pdfrwt>
<totfact> 0.22078161E+03</totfact>
</mgrwt>
</event>
<event>
 6    1  0.1535419E-002  0.9242294E+02  0.7546771E-02  0.1418687E+00
          1   -1    0    0  501    0  0.00000000000E+00  0.00000000000E+00  0.26694470613E+03  0.26694470613E+03  0.00000000000E+00 0. -1.
         -1   -1    0    0    0  501 -0.00000000000E+00 -0.00000000000E+00 -0.12290033469E+02  0.12290033469E+02  0.00000000000E+00 0.  1.
         23    2    1    2    0    0  0.71394792481E+01  0.94520558698E+01  0.24994841448E+03  0.26648866608E+03  0.91660709825E+02 0.  0.
         11    1    3    3    0    0 -0.15702550005E+02  0.15973614391E+02  0.86305424798E+01  0.24004430776E+02  0.00000000000E+00 0.  1.
        -11    1    3    3    0    0  0.22842029253E+02 -0.65215585208E+01  0.24131787200E+03  0.24248423531E+03  0.00000000000E+00 0. -1.
         22    1    1    2    0    0 -0.71394792481E+01 -0.94520558698E+01  0.47062581866E+01  0.12746073522E+02  0.00000000000E+00 0. -1.
<mgrwt>
<rscale>  0 0.55299635E+02</rscale>
<asrwt>0</asrwt>
<pdfrwt beam="1">  1        1 0.41068412E-01 0.92422937E+02</pdfrwt>
<pdfrwt beam="2">  1       -1 0.18907746E-02 0.92422937E+02</pdfrwt>
<totfact> 0.65644433E+04</totfact>
</mgrwt>
</event>
<event>
 6    1  0.1535419E-002  0.9311351E+02  0.7546771E-02  0.1392605E+00
          3   -1    0    0  501    0  0.00000000000E+00  0.00000000000E+00  0.14662847244E+02  0.14662847244E+02  0.00000000000E+00 0. -1.
         -3   -1    0    0    0  501 -0.00000000000E+00 -0.00000000000E+00 -0.24586018296E+03  0.24586018296E+03  0.00000000000E+00 0.  1.
         23    2    1    2    0    0 -0.15571826200E+02  0.78727234125E+01 -0.14318936127E+03  0.17080198968E+03  0.91464009069E+02 0.  0.
         13    1    3    3    0    0  0.48090134473E+01 -0.94453365174E+01  0.10430929935E+02  0.14870954629E+02  0.00000000000E+00 0. -1.
        -13    1    3    3    0    0 -0.20380839647E+02  0.17318059930E+02 -0.15362029120E+03  0.15593103505E+03  0.00000000000E+00 0.  1.
         22    1    1    2    0    0  0.15571826200E+02 -0.78727234125E+01 -0.88007974454E+02  0.89721040523E+02  0.00000000000E+00 0.  1.
<mgrwt>
<rscale>  0 0.61263400E+02</rscale>
<asrwt>0</asrwt>
<pdfrwt beam="1">  1        3 0.22558227E-02 0.93113514E+02</pdfrwt>
<pdfrwt beam="2">  1       -3 0.37824644E-01 0.93113514E+02</pdfrwt>
<totfact> 0.11382550E+04</totfact>
</mgrwt>
</event>
<event>
 6    1  0.1535419E-002  0.9222662E+02  0.7546771E-02  0.1384316E+00
         -2   -1    0    0    0  501 -0.00000000000E+00  0.00000000000E+00  0.14513568853E+03  0.14513568853E+03  0.00000000000E+00 0.  1.
          2   -1    0    0  501    0  0.00000000000E+00 -0.00000000000E+00 -0.24411604747E+02  0.24411604747E+02  0.00000000000E+00 0. -1.
         23    2    1    2    0    0 -0.19439214966E+02 -0.65775015397E+01  0.73078148738E+02  0.11766972846E+03  0.89914418020E+02 0.  0.
         11    1    3    3    0    0 -0.50309436817E+02 -0.11914744058E+02  0.68785054576E+02  0.86048732076E+02  0.00000000000E+00 0. -1.
        -11    1    3    3    0    0  0.30870221851E+02  0.53372425186E+01  0.42930941612E+01  0.31620996384E+02  0.00000000000E+00 0.  1.
         22    1    1    2    0    0  0.19439214966E+02  0.65775015397E+01  0.47645935047E+02  0.51877564818E+02  0.00000000000E+00 0.  1.
<mgrwt>
<rscale>  0 0.63342672E+02</rscale>
<asrwt>0</asrwt>
<pdfrwt beam="1">  1        2 0.37556316E-02 0.92226619E+02</pdfrwt>
<pdfrwt beam="2">  1       -2 0.22328567E-01 0.92226619E+02</pdfrwt>
<totfact> 0.34830414E+04</totfact>
</mgrwt>
</event>
<event>
 6    1  0.1535419E-002  0.9299716E+02  0.7546771E-02  0.1403846E+00
          1   -1    0    0  501    0  0.00000000000E+00  0.00000000000E+00  0.76379243921E+03  0.76379243921E+03  0.00000000000E+00 0. -1.
         -1   -1    0    0    0  501 -0.00000000000E+00 -0.00000000000E+00 -0.40213872524E+01  0.40213872524E+01  0.00000000000E+00 0.  1.
         23    2    1    2    0    0  0.70318917823E+01  0.12853949554E+02  0.70537883063E+03  0.71148279361E+03  0.91835719534E+02 0.  0.
         13    1    3    3    0    0  0.95021190809E+01  0.36208245259E+00  0.69497295755E+03  0.69503800839E+03  0.00000000000E+00 0. -1.
        -13    1    3    3    0    0 -0.24702272986E+01  0.12491867101E+02  0.10405873075E+02  0.16444785223E+02  0.00000000000E+00 0.  1.
         22    1    1    2    0    0 -0.70318917823E+01 -0.12853949554E+02  0.54392221333E+02  0.56331032857E+02  0.00000000000E+00 0.  1.
<mgrwt>
<rscale>  0 0.58590075E+02</rscale>
<asrwt>0</asrwt>
<pdfrwt beam="1">  1        1 0.11750641E+00 0.92997155E+02</pdfrwt>
<pdfrwt beam="2">  1       -1 0.61867557E-03 0.92997155E+02</pdfrwt>
<totfact> 0.82292969E+04</totfact>
</mgrwt>
</event>
<event>
 6    1  0.1535419E-002  0.8749137E+02  0.7546771E-02  0.1438266E+00
          3   -1    0    0  501    0  0.00000000000E+00  0.00000000000E+00  0.15895991573E+04  0.15895991573E+04  0.00000000000E+00 0. -1.
         -3   -1    0    0    0  501 -0.00000000000E+00 -0.00000000000E+00 -0.73810711778E+01  0.73810711778E+01  0.00000000000E+00 0.  1.
         23    2    1    2    0    0 -0.86024062195E+01 -0.57915862064E+01  0.15840371824E+04  0.15864515545E+04  0.86874597548E+02 0.  0.
         11    1    3    3    0    0  0.17952956593E+02 -0.27617008772E+02  0.12886814758E+04  0.12891023830E+04  0.00000000000E+00 0. -1.
        -11    1    3    3    0    0 -0.26555362812E+02  0.21825422566E+02  0.29535570659E+03  0.29734917148E+03  0.00000000000E+00 0.  1.
         22    1    1    2    0    0  0.86024062195E+01  0.57915862064E+01 -0.18190963112E+01  0.10528673940E+02  0.00000000000E+00 0.  1.
<mgrwt>
<rscale>  0 0.51336010E+02</rscale>
<asrwt>0</asrwt>
<pdfrwt beam="1">  1        3 0.24455344E+00 0.87491369E+02</pdfrwt>
<pdfrwt beam="2">  1       -3 0.11355507E-02 0.87491369E+02</pdfrwt>
<totfact> 0.44536569E+02</totfact>
</mgrwt>
</event>
<event>
 6    1  0.1535419E-002  0.9829660E+02  0.7546771E-02  0.1338413E+00
         -2   -1    0    0    0  501 -0.00000000000E+00  0.00000000000E+00  0.29650854575E+03  0.29650854575E+03  0.00000000000E+00 0.  1.
          2   -1    0    0  501    0  0.00000000000E+00 -0.00000000000E+00 -0.17519931500E+02  0.17519931500E+02  0.00000000000E+00 0. -1.
         23    2    1    2    0    0 -0.28589480222E+02  0.22871013519E+02  0.24535417255E+03  0.26431210864E+03  0.91223786099E+02 0.  0.
         13    1    3    3    0    0  0.15223491367E+02 -0.14768334132E+02  0.12979136969E+02  0.24865968288E+02  0.00000000000E+00 0. -1.
        -13    1    3    3    0    0 -0.43812971589E+02  0.37639347652E+02  0.23237503558E+03  0.23944614035E+03  0.00000000000E+00 0.  1.
         22    1    1    2    0    0  0.28589480222E+02 -0.22871013519E+02  0.33634441702E+02  0.49716368606E+02  0.00000000000E+00 0. -1.
<mgrwt>
<rscale>  0 0.76790916E+02</rscale>
<asrwt>0</asrwt>
<pdfrwt beam="1">  1        2 0.26953743E-02 0.98296596E+02</pdfrwt>
<pdfrwt beam="2">  1       -2 0.45616696E-01 0.98296596E+02</pdfrwt>
<totfact> 0.14991759E+04</totfact>
</mgrwt>
</event>
<event>
 6    1  0.1535419E-002  0.9323386E+02  0.7546771E-02  0.1417099E+00
         -2   -1    0    0    0  501 -0.00000000000E+00  0.00000000000E+00  0.13737845574E+03  0.13737845574E+03  0.00000000000E+00 0.  1.
          2   -1    0    0  501    0  0.00000000000E+00 -0.00000000000E+00 -0.20139294669E+02  0.20139294669E+02  0.00000000000E+00 0. -1.
         23    2    1    2    0    0  0.11620297078E+02 -0.21915261569E+01  0.10135011463E+03  0.13771128965E+03  0.92480914086E+02 0.  0.
         11    1    3    3    0    0  0.16407705217E+02 -0.34270727577E+02  0.79216399552E+01  0.38812986728E+02  0.00000000000E+00 0. -1.
        -11    1    3    3    0    0 -0.47874081389E+01  0.32079201420E+02  0.93428474679E+02  0.98898302925E+02  0.00000000000E+00 0.  1.
         22    1    1    2    0    0 -0.11620297078E+02  0.21915261569E+01  0.15889046440E+02  0.19806460760E+02  0.00000000000E+00 0. -1.
<mgrwt>
<rscale>  0 0.55639331E+02</rscale>
<asrwt>0</asrwt>
<pdfrwt beam="1">  1        2 0.30983531E-02 0.93233865E+02</pdfrwt>
<pdfrwt beam="2">  1       -2 0.21135146E-01 0.93233865E+02</pdfrwt>
<totfact> 0.49363274E+04</totfact>
</mgrwt>
</event>
<event>
 6    1  0.1535419E-002  0.9186492E+02  0.7546771E-02  0.1404707E+00
         -2   -1    0    0    0  501 -0.00000000000E+00  0.00000000000E+00  0.29007654611E+02  0.29007654611E+02  0.00000000000E+00 0.  1.
          2   -1    0    0  501    0  0.00000000000E+00 -0.00000000000E+00 -0.10854130398E+04  0.10854130398E+04  0.00000000000E+00 0. -1.
         23    2    1    2    0    0  0.34449174134E+01  0.14594416204E+02 -0.10813880953E+04  0.10852830856E+04  0.90632768304E+02 0.  0.
         11    1    3    3    0    0  0.19974506033E+02 -0.19062772416E+02 -0.11885969165E+03  0.12202457328E+03  0.00000000000E+00 0. -1.
        -11    1    3    3    0    0 -0.16529588620E+02  0.33657188619E+02 -0.96252840367E+03  0.96325851230E+03  0.00000000000E+00 0.  1.
         22    1    1    2    0    0 -0.34449174134E+01 -0.14594416204E+02  0.24982710159E+02  0.29137608810E+02  0.00000000000E+00 0.  1.
<mgrwt>
<rscale>  0 0.58391868E+02</rscale>
<asrwt>0</asrwt>
<pdfrwt beam="1">  1        2 0.16698660E+00 0.91864918E+02</pdfrwt>
<pdfrwt beam="2">  1       -2 0.44627166E-02 0.91864918E+02</pdfrwt>
<totfact> 0.52185210E+03</totfact>
</mgrwt>
</event>
<event>
 6    1  0.1535419E-002  0.9208219E+02  0.7546771E-02  0.1409025E+00
          2   -1    0    0  501    0  0.00000000000E+00  0.00000000000E+00  0.24431760005E+03  0.24431760005E+03  0.00000000000E+00 0. -1.
         -2   -1    0    0    0  501 -0.00000000000E+00 -0.00000000000E+00 -0.11813371760E+02  0.11813371760E+02  0.00000000000E+00 0.  1.
         23    2    1    2    0    0  0.11534294567E+02 -0.77838548199E+01  0.21406932021E+03  0.23303391176E+03  0.91024731958E+02 0.  0.
         11    1    3    3    0    0 -0.60704258080E+01 -0.72073404166E+01 -0.67004895769E+01  0.11562542365E+02  0.00000000000E+00 0.  1.
        -11    1    3    3    0    0  0.17604720375E+02 -0.57651440328E+00  0.22076980979E+03  0.22147136940E+03  0.00000000000E+00 0. -1.
         22    1    1    2    0    0 -0.11534294567E+02  0.77838548199E+01  0.18434908079E+02  0.23097060049E+02  0.00000000000E+00 0. -1.
<mgrwt>
<rscale>  0 0.57412024E+02</rscale>
<asrwt>0</asrwt>
<pdfrwt beam="1">  1        2 0.37587319E-01 0.92082192E+02</pdfrwt>
<pdfrwt beam="2">  1       -2 0.18174420E-02 0.92082192E+02</pdfrwt>
<totfact> 0.10430308E+05</totfact>
</mgrwt>
</event>
<event>
 6    1  0.1535419E-002  0.9424978E+02  0.7546771E-02  0.1382531E+00
         -3   -1    0    0    0  501 -0.00000000000E+00  0.00000000000E+00  0.43707891708E+02  0.43707891708E+02  0.00000000000E+00 0.  1.
          3   -1    0    0  501    0  0.00000000000E+00 -0.00000000000E+00 -0.89659407731E+02  0.89659407731E+02  0.00000000000E+00 0. -1.
         23    2    1    2    0    0  0.18815960591E+02 -0.61441474823E+01 -0.57544787038E+02  0.11042836193E+03  0.92147868570E+02 0.  0.
         11    1    3    3    0    0 -0.33731207044E+02 -0.83804162744E+01 -0.44085602718E+02  0.56138810751E+02  0.00000000000E+00 0. -1.
        -11    1    3    3    0    0  0.52547167635E+02  0.22362687921E+01 -0.13459184321E+02  0.54289551178E+02  0.00000000000E+00 0.  1.
         22    1    1    2    0    0 -0.18815960591E+02  0.61441474823E+01  0.11593271015E+02  0.22938937510E+02  0.00000000000E+00 0.  1.
<mgrwt>
<rscale>  0 0.63803139E+02</rscale>
<asrwt>0</asrwt>
<pdfrwt beam="1">  1        3 0.13793755E-01 0.94249778E+02</pdfrwt>
<pdfrwt beam="2">  1       -3 0.67242911E-02 0.94249778E+02</pdfrwt>
<totfact> 0.12594640E+04</totfact>
</mgrwt>
</event>
<event>
 6    1  0.1535419E-002  0.9151610E+02  0.7546771E-02  0.1410500E+00
         -2   -1    0    0    0  501 -0.00000000000E+00  0.00000000000E+00  0.10585538669E+02  0.10585538669E+02  0.00000000000E+00 0.  1.
          2   -1    0    0  501    0  0.00000000000E+00 -0.00000000000E+00 -0.11139724829E+04  0.11139724829E+04  0.00000000000E+00 0. -1.
         23    2    1    2    0    0  0.24312337600E+01  0.13637042932E+02 -0.11065676106E+04  0.11103454752E+04  0.90461691047E+02 0.  0.
         13    1    3    3    0    0 -0.30986520698E+02  0.34962249084E+01 -0.15335060304E+03  0.15648896289E+03  0.00000000000E+00 0.  1.
        -13    1    3    3    0    0  0.33417754458E+02  0.10140818023E+02 -0.95321700756E+03  0.95385651227E+03  0.00000000000E+00 0. -1.
         22    1    1    2    0    0 -0.24312337600E+01 -0.13637042932E+02  0.31806663486E+01  0.14212546427E+02  0.00000000000E+00 0.  1.
<mgrwt>
<rscale>  0 0.57082346E+02</rscale>
<asrwt>0</asrwt>
<pdfrwt beam="1">  1        2 0.17138037E+00 0.91516105E+02</pdfrwt>
<pdfrwt beam="2">  1       -2 0.16285445E-02 0.91516105E+02</pdfrwt>
<totfact> 0.21701601E+04</totfact>
</mgrwt>
</event>
<event>
 6    1  0.1535419E-002  0.9178117E+02  0.7546771E-02  0.1390931E+00
         -2   -1    0    0    0  501 -0.00000000000E+00  0.00000000000E+00  0.12518955570E+02  0.12518955570E+02  0.00000000000E+00 0.  1.
          2   -1    0    0  501    0  0.00000000000E+00 -0.00000000000E+00 -0.72303115535E+03  0.72303115535E+03  0.00000000000E+00 0. -1.
         23    2    1    2    0    0 -0.28961988111E+01  0.18489735356E+02 -0.71093025631E+03  0.71683025375E+03  0.89852796713E+02 0.  0.
         13    1    3    3    0    0  0.40535257681E+01  0.54590851937E+02 -0.45212075927E+03  0.45542263136E+03  0.00000000000E+00 0. -1.
        -13    1    3    3    0    0 -0.69497245792E+01 -0.36101116581E+02 -0.25880949703E+03  0.26140762239E+03  0.00000000000E+00 0.  1.
         22    1    1    2    0    0  0.28961988111E+01 -0.18489735356E+02  0.41805653000E+00  0.18719857167E+02  0.00000000000E+00 0.  1.
<mgrwt>
<rscale>  0 0.61675652E+02</rscale>
<asrwt>0</asrwt>
<pdfrwt beam="1">  1        2 0.11123555E+00 0.91781171E+02</pdfrwt>
<pdfrwt beam="2">  1       -2 0.19259934E-02 0.91781171E+02</pdfrwt>
<totfact> 0.29812785E+04</totfact>
</mgrwt>
</event>
<event>
 6    1  0.1535419E-002  0.9279586E+02  0.7546771E-02  0.1390977E+00
          4   -1    0    0  501    0  0.00000000000E+00  0.00000000000E+00  0.12364312025E+03  0.12364312025E+03  0.00000000000E+00 0. -1.
         -4   -1    0    0    0  501 -0.00000000000E+00 -0.00000000000E+00 -0.24973910141E+02  0.24973910141E+02  0.00000000000E+00 0.  1.
         23    2    1    2    0    0  0.13351464747E+02  0.12213073315E+02  0.78760935086E+02  0.12171423899E+03  0.91014560963E+02 0.  0.
         13    1    3    3    0    0  0.52003583070E+02  0.11675605453E+02  0.53614369714E+02  0.75598895856E+02  0.00000000000E+00 0. -1.
        -13    1    3    3    0    0 -0.38652118323E+02  0.53746786144E+00  0.25146565373E+02  0.46115343137E+02  0.00000000000E+00 0.  1.
         22    1    1    2    0    0 -0.13351464747E+02 -0.12213073315E+02  0.19908275023E+02  0.26902791399E+02  0.00000000000E+00 0. -1.
<mgrwt>
<rscale>  0 0.61664430E+02</rscale>
<asrwt>0</asrwt>
<pdfrwt beam="1">  1        4 0.19022018E-01 0.92795857E+02</pdfrwt>
<pdfrwt beam="2">  1       -4 0.38421401E-02 0.92795857E+02</pdfrwt>
<totfact> 0.13114442E+04</totfact>
</mgrwt>
</event>
<event>
 6    1  0.1535419E-002  0.1109076E+03  0.7546771E-02  0.1287967E+00
          2   -1    0    0  501    0  0.00000000000E+00  0.00000000000E+00  0.10601833140E+04  0.10601833140E+04  0.00000000000E+00 0. -1.
         -2   -1    0    0    0  501 -0.00000000000E+00 -0.00000000000E+00 -0.81470583840E+01  0.81470583840E+01  0.00000000000E+00 0.  1.
         23    2    1    2    0    0  0.63254058140E+02 -0.43882300728E+01  0.83137446362E+03  0.83873952135E+03  0.90995348618E+02 0.  0.
         11    1    3    3    0    0  0.58632491485E+02 -0.42228727314E+02  0.50408591295E+03  0.50923829599E+03  0.00000000000E+00 0. -1.
        -11    1    3    3    0    0  0.46215666547E+01  0.37840497242E+02  0.32728855067E+03  0.32950122536E+03  0.00000000000E+00 0.  1.
         22    1    1    2    0    0 -0.63254058140E+02  0.43882300728E+01  0.22066179199E+03  0.22959085103E+03  0.00000000000E+00 0.  1.
<mgrwt>
<rscale>  0 0.96439199E+02</rscale>
<asrwt>0</asrwt>
<pdfrwt beam="1">  1        2 0.16310502E+00 0.11090756E+03</pdfrwt>
<pdfrwt beam="2">  1       -2 0.12533944E-02 0.11090756E+03</pdfrwt>
<totfact> 0.34422318E+04</totfact>
</mgrwt>
</event>
<event>
 6    1  0.1535419E-002  0.1002709E+03  0.7546771E-02  0.1369357E+00
          2   -1    0    0  501    0  0.00000000000E+00  0.00000000000E+00  0.19925030682E+04  0.19925030682E+04  0.00000000000E+00 0. -1.
         -2   -1    0    0    0  501 -0.00000000000E+00 -0.00000000000E+00 -0.61923514702E+01  0.61923514702E+01  0.00000000000E+00 0.  1.
         23    2    1    2    0    0  0.20173091029E+01 -0.20304724685E+02  0.19700603059E+04  0.19726104195E+04  0.98172842188E+02 0.  0.
         13    1    3    3    0    0 -0.38333793603E+01 -0.37527081894E+01  0.19107239800E+04  0.19107315106E+04  0.00000000000E+00 0. -1.
        -13    1    3    3    0    0  0.58506884633E+01 -0.16552016496E+02  0.59336325869E+02  0.61878908953E+02  0.00000000000E+00 0.  1.
         22    1    1    2    0    0 -0.20173091029E+01  0.20304724685E+02  0.16250410827E+02  0.26085000146E+02  0.00000000000E+00 0.  1.
<mgrwt>
<rscale>  0 0.67346304E+02</rscale>
<asrwt>0</asrwt>
<pdfrwt beam="1">  1        2 0.30653842E+00 0.10027092E+03</pdfrwt>
<pdfrwt beam="2">  1       -2 0.95267105E-03 0.10027092E+03</pdfrwt>
<totfact> 0.16472707E+04</totfact>
</mgrwt>
</event>
<event>
 6    1  0.1535419E-002  0.8906414E+02  0.7546771E-02  0.1422753E+00
         -2   -1    0    0    0  501 -0.00000000000E+00  0.00000000000E+00  0.16296254335E+01  0.16296254335E+01  0.00000000000E+00 0.  1.
          2   -1    0    0  501    0  0.00000000000E+00 -0.00000000000E+00 -0.23477166199E+04  0.23477166199E+04  0.00000000000E+00 0. -1.
         23    2    1    2    0    0  0.10562722836E+02 -0.65619820460E+01 -0.22964116434E+04  0.22981381285E+04  0.88191786410E+02 0.  0.
         13    1    3    3    0    0 -0.22229741841E+02 -0.29880116430E+02 -0.16809713920E+04  0.16813838953E+04  0.00000000000E+00 0. -1.
        -13    1    3    3    0    0  0.32792464677E+02  0.23318134384E+02 -0.61544025140E+03  0.61675423321E+03  0.00000000000E+00 0.  1.
         22    1    1    2    0    0 -0.10562722836E+02  0.65619820460E+01 -0.49675351148E+02  0.51208116874E+02  0.00000000000E+00 0.  1.
<mgrwt>
<rscale>  0 0.54442637E+02</rscale>
<asrwt>0</asrwt>
<pdfrwt beam="1">  1        2 0.36118737E+00 0.89064145E+02</pdfrwt>
<pdfrwt beam="2">  1       -2 0.25071147E-03 0.89064145E+02</pdfrwt>
<totfact> 0.70083134E+04</totfact>
</mgrwt>
</event>
<event>
 6    1  0.1535419E-002  0.1067988E+03  0.7546771E-02  0.1306204E+00
          2   -1    0    0  501    0  0.00000000000E+00  0.00000000000E+00  0.38381069536E+03  0.38381069536E+03  0.00000000000E+00 0. -1.
         -2   -1    0    0    0  501 -0.00000000000E+00 -0.00000000000E+00 -0.20775002744E+02  0.20775002744E+02  0.00000000000E+00 0.  1.
         23    2    1    2    0    0  0.45507381355E+02  0.22248454539E+02  0.32245275249E+03  0.33967891482E+03  0.94021657593E+02 0.  0.
         11    1    3    3    0    0  0.49266371515E+01  0.33863125666E+02  0.34299080878E+02  0.48450077220E+02  0.00000000000E+00 0.  1.
        -11    1    3    3    0    0  0.40580744203E+02 -0.11614671127E+02  0.28815367162E+03  0.29122883760E+03  0.00000000000E+00 0. -1.
         22    1    1    2    0    0 -0.45507381355E+02 -0.22248454539E+02  0.40582940125E+02  0.64906783285E+02  0.00000000000E+00 0.  1.
<mgrwt>
<rscale>  0 0.88629873E+02</rscale>
<asrwt>0</asrwt>
<pdfrwt beam="1">  1        2 0.59047794E-01 0.10679882E+03</pdfrwt>
<pdfrwt beam="2">  1       -2 0.31961546E-02 0.10679882E+03</pdfrwt>
<totfact> 0.29219135E+04</totfact>
</mgrwt>
</event>
<event>
 6    1  0.1535419E-002  0.9487290E+02  0.7546771E-02  0.1424335E+00
         -2   -1    0    0    0  501 -0.00000000000E+00  0.00000000000E+00  0.25576105414E+02  0.25576105414E+02  0.00000000000E+00 0.  1.
          2   -1    0    0  501    0  0.00000000000E+00 -0.00000000000E+00 -0.15175671823E+03  0.15175671823E+03  0.00000000000E+00 0. -1.
         23    2    1    2    0    0  0.61268139131E+01  0.79563795101E+01 -0.13429212511E+03  0.16442397182E+03  0.94339948152E+02 0.  0.
         11    1    3    3    0    0  0.58631533773E+00 -0.42996322738E+02 -0.70687769080E+02  0.82739278654E+02  0.00000000000E+00 0. -1.
        -11    1    3    3    0    0  0.55404985754E+01  0.50952702248E+02 -0.63604356034E+02  0.81684693164E+02  0.00000000000E+00 0.  1.
         22    1    1    2    0    0 -0.61268139131E+01 -0.79563795101E+01  0.81115122988E+01  0.12908851824E+02  0.00000000000E+00 0. -1.
<mgrwt>
<rscale>  0 0.54114260E+02</rscale>
<asrwt>0</asrwt>
<pdfrwt beam="1">  1        2 0.23347188E-01 0.94872903E+02</pdfrwt>
<pdfrwt beam="2">  1       -2 0.39347854E-02 0.94872903E+02</pdfrwt>
<totfact> 0.56953602E+04</totfact>
</mgrwt>
</event>
<event>
 6    1  0.1535419E-002  0.9555674E+02  0.7546771E-02  0.1366874E+00
         -2   -1    0    0    0  501 -0.00000000000E+00  0.00000000000E+00  0.16082327803E+02  0.16082327803E+02  0.00000000000E+00 0.  1.
          2   -1    0    0  501    0  0.00000000000E+00 -0.00000000000E+00 -0.23461848967E+03  0.23461848967E+03  0.00000000000E+00 0. -1.
         23    2    1    2    0    0 -0.15897449998E+02  0.18731241923E+02 -0.19244518116E+03  0.21486330061E+03  0.92344473894E+02 0.  0.
         11    1    3    3    0    0 -0.14196641884E+01  0.55294149420E+02 -0.12682395074E+03  0.13836102373E+03  0.00000000000E+00 0.  1.
        -11    1    3    3    0    0 -0.14477785809E+02 -0.36562907497E+02 -0.65621230420E+02  0.76502276884E+02  0.00000000000E+00 0. -1.
         22    1    1    2    0    0  0.15897449998E+02 -0.18731241923E+02 -0.26090980711E+02  0.35837516862E+02  0.00000000000E+00 0. -1.
<mgrwt>
<rscale>  0 0.68043805E+02</rscale>
<asrwt>0</asrwt>
<pdfrwt beam="1">  1        2 0.36095154E-01 0.95556738E+02</pdfrwt>
<pdfrwt beam="2">  1       -2 0.24742042E-02 0.95556738E+02</pdfrwt>
<totfact> 0.70188659E+04</totfact>
</mgrwt>
</event>
<event>
 6    1  0.1535419E-002  0.9408247E+02  0.7546771E-02  0.1376365E+00
         -1   -1    0    0    0  501 -0.00000000000E+00  0.00000000000E+00  0.13032217303E+02  0.13032217303E+02  0.00000000000E+00 0.  1.
          1   -1    0    0  501    0  0.00000000000E+00 -0.00000000000E+00 -0.31214295005E+03  0.31214295005E+03  0.00000000000E+00 0. -1.
         23    2    1    2    0    0  0.20400127684E+02  0.82542665678E+01 -0.28205636652E+03  0.29733365997E+03  0.91472473063E+02 0.  0.
         13    1    3    3    0    0 -0.34320231436E+02 -0.21425651334E+01 -0.15219200042E+03  0.15602843927E+03  0.00000000000E+00 0. -1.
        -13    1    3    3    0    0  0.54720359120E+02  0.10396831701E+02 -0.12986436611E+03  0.14130522070E+03  0.00000000000E+00 0.  1.
         22    1    1    2    0    0 -0.20400127684E+02 -0.82542665678E+01 -0.17054366223E+02  0.27841507384E+02  0.00000000000E+00 0.  1.
<mgrwt>
<rscale>  0 0.65429053E+02</rscale>
<asrwt>0</asrwt>
<pdfrwt beam="1">  1        1 0.48021993E-01 0.94082472E+02</pdfrwt>
<pdfrwt beam="2">  1       -1 0.20049565E-02 0.94082472E+02</pdfrwt>
<totfact> 0.49995260E+04</totfact>
</mgrwt>
</event>
<event>
 6    1  0.1535419E-002  0.9336783E+02  0.7546771E-02  0.1396389E+00
          2   -1    0    0  501    0  0.00000000000E+00  0.00000000000E+00  0.13018207729E+04  0.13018207729E+04  0.00000000000E+00 0. -1.
         -2   -1    0    0    0  501 -0.00000000000E+00 -0.00000000000E+00 -0.31126435694E+01  0.31126435694E+01  0.00000000000E+00 0.  1.
         23    2    1    2    0    0  0.15569092171E+02  0.47995700882E+01  0.12517879305E+04  0.12552651412E+04  0.91935408939E+02 0.  0.
         11    1    3    3    0    0  0.14077054838E+02 -0.42136609053E+02  0.73785708875E+03  0.73919330402E+03  0.00000000000E+00 0. -1.
        -11    1    3    3    0    0  0.14920373333E+01  0.46936179141E+02  0.51393084173E+03  0.51607183722E+03  0.00000000000E+00 0.  1.
         22    1    1    2    0    0 -0.15569092171E+02 -0.47995700882E+01  0.46920198874E+02  0.49668275252E+02  0.00000000000E+00 0.  1.
<mgrwt>
<rscale>  0 0.60345129E+02</rscale>
<asrwt>0</asrwt>
<pdfrwt beam="1">  1        2 0.20027968E+00 0.93367831E+02</pdfrwt>
<pdfrwt beam="2">  1       -2 0.47886928E-03 0.93367831E+02</pdfrwt>
<totfact> 0.97059907E+04</totfact>
</mgrwt>
</event>
<event>
 6    1  0.1535419E-002  0.9272992E+02  0.7546771E-02  0.1398954E+00
         -1   -1    0    0    0  501 -0.00000000000E+00  0.00000000000E+00  0.18104351645E+03  0.18104351645E+03  0.00000000000E+00 0.  1.
          1   -1    0    0  501    0  0.00000000000E+00 -0.00000000000E+00 -0.25678664160E+02  0.25678664160E+02  0.00000000000E+00 0. -1.
         23    2    1    2    0    0  0.14112582090E+02 -0.74674760584E+01  0.60951121449E+02  0.11096790789E+03  0.91345000983E+02 0.  0.
         11    1    3    3    0    0  0.15020913243E+02 -0.10174703320E+02 -0.21690065955E+02  0.28277400577E+02  0.00000000000E+00 0. -1.
        -11    1    3    3    0    0 -0.90833115319E+00  0.27072272614E+01  0.82641187403E+02  0.82690507317E+02  0.00000000000E+00 0.  1.
         22    1    1    2    0    0 -0.14112582090E+02  0.74674760584E+01  0.94413730839E+02  0.95754272713E+02  0.00000000000E+00 0.  1.
<mgrwt>
<rscale>  0 0.59733385E+02</rscale>
<asrwt>0</asrwt>
<pdfrwt beam="1">  1        1 0.39505638E-02 0.92729916E+02</pdfrwt>
<pdfrwt beam="2">  1       -1 0.27852848E-01 0.92729916E+02</pdfrwt>
<totfact> 0.23697262E+04</totfact>
</mgrwt>
</event>
<event>
 6    1  0.1535419E-002  0.9453121E+02  0.7546771E-02  0.1416132E+00
         -2   -1    0    0    0  501 -0.00000000000E+00  0.00000000000E+00  0.31624533521E+02  0.31624533521E+02  0.00000000000E+00 0.  1.
          2   -1    0    0  501    0  0.00000000000E+00 -0.00000000000E+00 -0.11599005653E+03  0.11599005653E+03  0.00000000000E+00 0. -1.
         23    2    1    2    0    0 -0.10803861439E+02  0.39866160974E+01 -0.93466487694E+02  0.13293657629E+03  0.93827141397E+02 0.  0.
         11    1    3    3    0    0  0.28768255121E+02 -0.11342959576E+02 -0.70861804048E+00  0.30931818151E+02  0.00000000000E+00 0.  1.
        -11    1    3    3    0    0 -0.39572116560E+02  0.15329575673E+02 -0.92757869653E+02  0.10200475813E+03  0.00000000000E+00 0. -1.
         22    1    1    2    0    0  0.10803861439E+02 -0.39866160974E+01  0.91009646845E+01  0.14678013765E+02  0.00000000000E+00 0.  1.
<mgrwt>
<rscale>  0 0.55847805E+02</rscale>
<asrwt>0</asrwt>
<pdfrwt beam="1">  1        2 0.17844624E-01 0.94531206E+02</pdfrwt>
<pdfrwt beam="2">  1       -2 0.48653127E-02 0.94531206E+02</pdfrwt>
<totfact> 0.56143744E+04</totfact>
</mgrwt>
</event>
<event>
 6    1  0.1535419E-002  0.9185746E+02  0.7546771E-02  0.1413732E+00
         -2   -1    0    0    0  501 -0.00000000000E+00  0.00000000000E+00  0.39855095083E+01  0.39855095083E+01  0.00000000000E+00 0.  1.
          2   -1    0    0  501    0  0.00000000000E+00 -0.00000000000E+00 -0.69118165451E+03  0.69118165451E+03  0.00000000000E+00 0. -1.
         23    2    1    2    0    0  0.10630602326E+02  0.75284793037E+01 -0.61075205786E+03  0.61762113791E+03  0.90929126825E+02 0.  0.
         13    1    3    3    0    0 -0.27340238160E+02 -0.25142552736E+02 -0.16873564527E+03  0.17277544549E+03  0.00000000000E+00 0.  1.
        -13    1    3    3    0    0  0.37970840486E+02  0.32671032039E+02 -0.44201641259E+03  0.44484569242E+03  0.00000000000E+00 0. -1.
         22    1    1    2    0    0 -0.10630602326E+02 -0.75284793037E+01 -0.76444087141E+02  0.77546026109E+02  0.00000000000E+00 0. -1.
<mgrwt>
<rscale>  0 0.56369235E+02</rscale>
<asrwt>0</asrwt>
<pdfrwt beam="1">  1        2 0.10633567E+00 0.91857465E+02</pdfrwt>
<pdfrwt beam="2">  1       -2 0.61315515E-03 0.91857465E+02</pdfrwt>
<totfact> 0.15943329E+05</totfact>
</mgrwt>
</event>
<event>
 6    1  0.1535419E-002  0.9084820E+02  0.7546771E-02  0.1431526E+00
         -2   -1    0    0    0  501 -0.00000000000E+00  0.00000000000E+00  0.12609555804E+02  0.12609555804E+02  0.00000000000E+00 0.  1.
          2   -1    0    0  501    0  0.00000000000E+00 -0.00000000000E+00 -0.25086925404E+03  0.25086925404E+03  0.00000000000E+00 0. -1.
         23    2    1    2    0    0  0.16639248483E+01 -0.10115960335E+02 -0.23613621978E+03  0.25300930842E+03  0.90267904331E+02 0.  0.
         11    1    3    3    0    0  0.34335240016E+01  0.23169208597E+02 -0.11830425814E+02  0.26240432332E+02  0.00000000000E+00 0.  1.
        -11    1    3    3    0    0 -0.17695991533E+01 -0.33285168931E+02 -0.22430579397E+03  0.22676887609E+03  0.00000000000E+00 0. -1.
         22    1    1    2    0    0 -0.16639248483E+01  0.10115960335E+02 -0.21234784513E+01  0.10469501427E+02  0.00000000000E+00 0. -1.
<mgrwt>
<rscale>  0 0.52654836E+02</rscale>
<asrwt>0</asrwt>
<pdfrwt beam="1">  1        2 0.38595270E-01 0.90848202E+02</pdfrwt>
<pdfrwt beam="2">  1       -2 0.19399316E-02 0.90848202E+02</pdfrwt>
<totfact> 0.92193851E+04</totfact>
</mgrwt>
</event>
<event>
 6    1  0.1535419E-002  0.1011032E+03  0.7546771E-02  0.1327346E+00
         -1   -1    0    0    0  501 -0.00000000000E+00  0.00000000000E+00  0.21745948646E+03  0.21745948646E+03  0.00000000000E+00 0.  1.
          1   -1    0    0  501    0  0.00000000000E+00 -0.00000000000E+00 -0.27403200818E+02  0.27403200818E+02  0.00000000000E+00 0. -1.
         23    2    1    2    0    0  0.55127882792E+01 -0.40470905318E+02  0.84795343662E+02  0.13195497754E+03  0.92485570651E+02 0.  0.
         11    1    3    3    0    0  0.88045714432E+01 -0.46005989933E+02  0.10272686966E+03  0.11290208740E+03  0.00000000000E+00 0.  1.
        -11    1    3    3    0    0 -0.32917831640E+01  0.55350846145E+01 -0.17931526000E+02  0.19052890142E+02  0.00000000000E+00 0. -1.
         22    1    1    2    0    0 -0.55127882792E+01  0.40470905318E+02  0.10526094198E+03  0.11290770974E+03  0.00000000000E+00 0. -1.
<mgrwt>
<rscale>  0 0.80604186E+02</rscale>
<asrwt>0</asrwt>
<pdfrwt beam="1">  1        1 0.42158772E-02 0.10110324E+03</pdfrwt>
<pdfrwt beam="2">  1       -1 0.33455305E-01 0.10110324E+03</pdfrwt>
<totfact> 0.16135038E+04</totfact>
</mgrwt>
</event>
<event>
 6    1  0.1535419E-002  0.9034891E+02  0.7546771E-02  0.1418740E+00
         -1   -1    0    0    0  501 -0.00000000000E+00  0.00000000000E+00  0.17060688757E+02  0.17060688757E+02  0.00000000000E+00 0.  1.
          1   -1    0    0  501    0  0.00000000000E+00 -0.00000000000E+00 -0.24210182054E+03  0.24210182054E+03  0.00000000000E+00 0. -1.
         23    2    1    2    0    0 -0.30576374002E+01  0.12295154690E+02 -0.22876242405E+03  0.24595766202E+03  0.89456161753E+02 0.  0.
         11    1    3    3    0    0 -0.19873498011E+02  0.13085441224E+02 -0.22786004651E+03  0.22909907352E+03  0.00000000000E+00 0. -1.
        -11    1    3    3    0    0  0.16815860611E+02 -0.79028653317E+00 -0.90237753998E+00  0.16858588497E+02  0.00000000000E+00 0.  1.
         22    1    1    2    0    0  0.30576374002E+01 -0.12295154690E+02  0.37212922677E+01  0.13204847272E+02  0.00000000000E+00 0.  1.
<mgrwt>
<rscale>  0 0.55288309E+02</rscale>
<asrwt>0</asrwt>
<pdfrwt beam="1">  1        1 0.37246435E-01 0.90348906E+02</pdfrwt>
<pdfrwt beam="2">  1       -1 0.26247213E-02 0.90348906E+02</pdfrwt>
<totfact> 0.46118306E+04</totfact>
</mgrwt>
</event>
<event>
 6    1  0.1535419E-002  0.9310008E+02  0.7546771E-02  0.1393042E+00
         -2   -1    0    0    0  501 -0.00000000000E+00  0.00000000000E+00  0.98379828724E+01  0.98379828724E+01  0.00000000000E+00 0. -1.
          2   -1    0    0  501    0  0.00000000000E+00 -0.00000000000E+00 -0.10060028959E+04  0.10060028959E+04  0.00000000000E+00 0.  1.
         23    2    1    2    0    0 -0.72939927009E+01 -0.15725389460E+02 -0.99402419650E+03  0.99837454339E+03  0.91472047400E+02 0.  0.
         13    1    3    3    0    0  0.89115735799E+01 -0.24768305072E+02 -0.81163943912E+02  0.85325675333E+02  0.00000000000E+00 0. -1.
        -13    1    3    3    0    0 -0.16205566281E+02  0.90429156120E+01 -0.91286025259E+03  0.91304886806E+03  0.00000000000E+00 0.  1.
         22    1    1    2    0    0  0.72939927009E+01  0.15725389460E+02 -0.21407164848E+01  0.17466335341E+02  0.00000000000E+00 0. -1.
<mgrwt>
<rscale>  0 0.61156320E+02</rscale>
<asrwt>0</asrwt>
<pdfrwt beam="1">  1        2 0.15476971E+00 0.93100084E+02</pdfrwt>
<pdfrwt beam="2">  1       -2 0.15135355E-02 0.93100084E+02</pdfrwt>
<totfact> 0.27815326E+04</totfact>
</mgrwt>
</event>
<event>
 6    1  0.1535419E-002  0.9101556E+02  0.7546771E-02  0.1385491E+00
          2   -1    0    0  501    0  0.00000000000E+00  0.00000000000E+00  0.19649194927E+04  0.19649194927E+04  0.00000000000E+00 0. -1.
         -2   -1    0    0    0  501 -0.00000000000E+00 -0.00000000000E+00 -0.52376404729E+01  0.52376404729E+01  0.00000000000E+00 0.  1.
         23    2    1    2    0    0 -0.19741009287E+02 -0.70127610362E+01  0.19375351002E+04  0.19396716466E+04  0.88571699495E+02 0.  0.
         13    1    3    3    0    0  0.26200854521E+02  0.16255488257E+02  0.36718001548E+03  0.36847237270E+03  0.00000000000E+00 0. -1.
        -13    1    3    3    0    0 -0.45941863807E+02 -0.23268249293E+02  0.15703550847E+04  0.15711992739E+04  0.00000000000E+00 0.  1.
         22    1    1    2    0    0  0.19741009287E+02  0.70127610362E+01  0.22146752048E+02  0.30485486568E+02  0.00000000000E+00 0.  1.
<mgrwt>
<rscale>  0 0.63042109E+02</rscale>
<asrwt>0</asrwt>
<pdfrwt beam="1">  1        2 0.30229472E+00 0.91015560E+02</pdfrwt>
<pdfrwt beam="2">  1       -2 0.80579241E-03 0.91015560E+02</pdfrwt>
<totfact> 0.21432910E+04</totfact>
</mgrwt>
</event>
<event>
 6    1  0.1535419E-002  0.9161366E+02  0.7546771E-02  0.1420649E+00
         -2   -1    0    0    0  501 -0.00000000000E+00  0.00000000000E+00  0.37223195162E+02  0.37223195162E+02  0.00000000000E+00 0.  1.
          2   -1    0    0  501    0  0.00000000000E+00 -0.00000000000E+00 -0.72968436582E+02  0.72968436582E+02  0.00000000000E+00 0. -1.
         23    2    1    2    0    0  0.10727329865E+02  0.49169314586E+01 -0.35883050826E+02  0.98390326205E+02  0.90850487798E+02 0.  0.
         11    1    3    3    0    0  0.45250778737E+01 -0.31734748342E+02 -0.49355216192E+02  0.58851575573E+02  0.00000000000E+00 0. -1.
        -11    1    3    3    0    0  0.62022519910E+01  0.36651679800E+02  0.13472165366E+02  0.39538750632E+02  0.00000000000E+00 0.  1.
         22    1    1    2    0    0 -0.10727329865E+02 -0.49169314586E+01  0.13780940572E+00  0.11801305539E+02  0.00000000000E+00 0.  1.
<mgrwt>
<rscale>  0 0.54883941E+02</rscale>
<asrwt>0</asrwt>
<pdfrwt beam="1">  1        2 0.11225913E-01 0.91613661E+02</pdfrwt>
<pdfrwt beam="2">  1       -2 0.57266456E-02 0.91613661E+02</pdfrwt>
<totfact> 0.75234880E+04</totfact>
</mgrwt>
</event>
<event>
 6    1  0.1535419E-002  0.9232374E+02  0.7546771E-02  0.1422837E+00
         -2   -1    0    0    0  501 -0.00000000000E+00  0.00000000000E+00  0.21811939001E+03  0.21811939001E+03  0.00000000000E+00 0.  1.
          2   -1    0    0  501    0  0.00000000000E+00 -0.00000000000E+00 -0.14175125085E+02  0.14175125085E+02  0.00000000000E+00 0. -1.
         23    2    1    2    0    0 -0.11353351768E+01  0.11091574265E+02  0.14213408298E+03  0.16948678788E+03  0.91648031711E+02 0.  0.
         13    1    3    3    0    0 -0.20718988124E+02  0.10441551323E+01  0.14571707364E+03  0.14718638618E+03  0.00000000000E+00 0.  1.
        -13    1    3    3    0    0  0.19583652948E+02  0.10047419133E+02 -0.35829906533E+01  0.22300401701E+02  0.00000000000E+00 0. -1.
         22    1    1    2    0    0  0.11353351768E+01 -0.11091574265E+02  0.61810181941E+02  0.62807727210E+02  0.00000000000E+00 0.  1.
<mgrwt>
<rscale>  0 0.54425094E+02</rscale>
<asrwt>0</asrwt>
<pdfrwt beam="1">  1        2 0.21807886E-02 0.92323744E+02</pdfrwt>
<pdfrwt beam="2">  1       -2 0.33556827E-01 0.92323744E+02</pdfrwt>
<totfact> 0.35096823E+04</totfact>
</mgrwt>
</event>
<event>
 6    1  0.1535419E-002  0.1007436E+03  0.7546771E-02  0.1350211E+00
         -1   -1    0    0    0  501 -0.00000000000E+00  0.00000000000E+00  0.84227022940E+01  0.84227022940E+01  0.00000000000E+00 0.  1.
          1   -1    0    0  501    0  0.00000000000E+00 -0.00000000000E+00 -0.87718549075E+03  0.87718549075E+03  0.00000000000E+00 0. -1.
         23    2    1    2    0    0  0.65580786460E+01 -0.26972821924E+02 -0.83854801697E+03  0.84457803421E+03  0.96843882556E+02 0.  0.
         11    1    3    3    0    0 -0.22974565009E+02 -0.46282842754E+02 -0.68853218462E+03  0.69046832037E+03  0.00000000000E+00 0. -1.
        -11    1    3    3    0    0  0.29532643655E+02  0.19310020829E+02 -0.15001583234E+03  0.15410971384E+03  0.00000000000E+00 0.  1.
         22    1    1    2    0    0 -0.65580786460E+01  0.26972821924E+02 -0.30214771492E+02  0.41030158839E+02  0.00000000000E+00 0.  1.
<mgrwt>
<rscale>  0 0.72989889E+02</rscale>
<asrwt>0</asrwt>
<pdfrwt beam="1">  1        1 0.13495160E+00 0.10074363E+03</pdfrwt>
<pdfrwt beam="2">  1       -1 0.12958005E-02 0.10074363E+03</pdfrwt>
<totfact> 0.23761806E+04</totfact>
</mgrwt>
</event>
<event>
 6    1  0.1535419E-002  0.9154656E+02  0.7546771E-02  0.1397261E+00
          1   -1    0    0  501    0  0.00000000000E+00  0.00000000000E+00  0.80149947401E+02  0.80149947401E+02  0.00000000000E+00 0. -1.
         -1   -1    0    0    0  501 -0.00000000000E+00 -0.00000000000E+00 -0.36795025128E+02  0.36795025128E+02  0.00000000000E+00 0.  1.
         23    2    1    2    0    0 -0.17004394630E+02 -0.11859740244E+01  0.35741684765E+02  0.98276352964E+02  0.89945636642E+02 0.  0.
         11    1    3    3    0    0 -0.27068198022E+02 -0.40481384690E+02  0.85506363338E+01  0.49442322279E+02  0.00000000000E+00 0. -1.
        -11    1    3    3    0    0  0.10063803392E+02  0.39295410666E+02  0.27191048431E+02  0.48834030685E+02  0.00000000000E+00 0.  1.
         22    1    1    2    0    0  0.17004394630E+02  0.11859740244E+01  0.76132375085E+01  0.18668619565E+02  0.00000000000E+00 0.  1.
<mgrwt>
<rscale>  0 0.60136101E+02</rscale>
<asrwt>0</asrwt>
<pdfrwt beam="1">  1        1 0.12330761E-01 0.91546565E+02</pdfrwt>
<pdfrwt beam="2">  1       -1 0.56607731E-02 0.91546565E+02</pdfrwt>
<totfact> 0.60472434E+04</totfact>
</mgrwt>
</event>
<event>
 6    1  0.1535419E-002  0.9742538E+02  0.7546771E-02  0.1366495E+00
          1   -1    0    0  501    0  0.00000000000E+00  0.00000000000E+00  0.68453236054E+03  0.68453236054E+03  0.00000000000E+00 0. -1.
         -1   -1    0    0    0  501 -0.00000000000E+00 -0.00000000000E+00 -0.11060778679E+02  0.11060778679E+02  0.00000000000E+00 0.  1.
         23    2    1    2    0    0 -0.13474734621E+02  0.19043018185E+02  0.66283114889E+03  0.66995286176E+03  0.94591225913E+02 0.  0.
         13    1    3    3    0    0 -0.37172786136E+02  0.23732205222E+02  0.61290106450E+03  0.61448575936E+03  0.00000000000E+00 0. -1.
        -13    1    3    3    0    0  0.23698051515E+02 -0.46891870376E+01  0.49930084395E+02  0.55467102397E+02  0.00000000000E+00 0.  1.
         22    1    1    2    0    0  0.13474734621E+02 -0.19043018185E+02  0.10640432973E+02  0.25640277466E+02  0.00000000000E+00 0.  1.
<mgrwt>
<rscale>  0 0.68151341E+02</rscale>
<asrwt>0</asrwt>
<pdfrwt beam="1">  1        1 0.10531264E+00 0.97425382E+02</pdfrwt>
<pdfrwt beam="2">  1       -1 0.17016588E-02 0.97425382E+02</pdfrwt>
<totfact> 0.23149288E+04</totfact>
</mgrwt>
</event>
<event>
 6    1  0.1535419E-002  0.9435141E+02  0.7546771E-02  0.1366219E+00
         -4   -1    0    0    0  501 -0.00000000000E+00  0.00000000000E+00  0.22853145963E+03  0.22853145963E+03  0.00000000000E+00 0.  1.
          4   -1    0    0  501    0  0.00000000000E+00 -0.00000000000E+00 -0.18320647900E+02  0.18320647900E+02  0.00000000000E+00 0. -1.
         23    2    1    2    0    0 -0.15208085182E+02 -0.20843289507E+02  0.11791152900E+03  0.15101429576E+03  0.90754946314E+02 0.  0.
         11    1    3    3    0    0 -0.39747485766E+02 -0.13012241403E+02  0.14225094285E+02  0.44176174104E+02  0.00000000000E+00 0. -1.
        -11    1    3    3    0    0  0.24539400583E+02 -0.78310481035E+01  0.10368643471E+03  0.10683812165E+03  0.00000000000E+00 0.  1.
         22    1    1    2    0    0  0.15208085182E+02  0.20843289507E+02  0.92299282729E+02  0.95837811769E+02  0.00000000000E+00 0.  1.
<mgrwt>
<rscale>  0 0.68229698E+02</rscale>
<asrwt>0</asrwt>
<pdfrwt beam="1">  1        4 0.28185614E-02 0.94351412E+02</pdfrwt>
<pdfrwt beam="2">  1       -4 0.35158684E-01 0.94351412E+02</pdfrwt>
<totfact> 0.68974622E+03</totfact>
</mgrwt>
</event>
<event>
 6    1  0.1535419E-002  0.9296483E+02  0.7546771E-02  0.1392918E+00
          1   -1    0    0  501    0  0.00000000000E+00  0.00000000000E+00  0.29645464956E+03  0.29645464956E+03  0.00000000000E+00 0. -1.
         -1   -1    0    0    0  501 -0.00000000000E+00 -0.00000000000E+00 -0.10336203407E+02  0.10336203407E+02  0.00000000000E+00 0.  1.
         23    2    1    2    0    0 -0.10566031505E+02  0.13881144476E+02  0.24864420261E+03  0.26545508005E+03  0.91313377104E+02 0.  0.
         11    1    3    3    0    0 -0.16670628174E+02  0.16706488141E+02  0.25506576278E+03  0.25615534336E+03  0.00000000000E+00 0. -1.
        -11    1    3    3    0    0  0.61045966689E+01 -0.28253436645E+01 -0.64215601743E+01  0.92997366836E+01  0.00000000000E+00 0.  1.
         22    1    1    2    0    0  0.10566031505E+02 -0.13881144476E+02  0.37474243549E+02  0.41335772925E+02  0.00000000000E+00 0. -1.
<mgrwt>
<rscale>  0 0.61186641E+02</rscale>
<asrwt>0</asrwt>
<pdfrwt beam="1">  1        1 0.45608401E-01 0.92964832E+02</pdfrwt>
<pdfrwt beam="2">  1       -1 0.15901854E-02 0.92964832E+02</pdfrwt>
<totfact> 0.73965892E+04</totfact>
</mgrwt>
</event>
<event>
 6    1  0.1535419E-002  0.9451521E+02  0.7546771E-02  0.1366050E+00
         -2   -1    0    0    0  501 -0.00000000000E+00  0.00000000000E+00  0.50233665356E+02  0.50233665356E+02  0.00000000000E+00 0.  1.
          2   -1    0    0  501    0  0.00000000000E+00 -0.00000000000E+00 -0.78106741589E+02  0.78106741589E+02  0.00000000000E+00 0. -1.
         23    2    1    2    0    0  0.12696250382E+02 -0.22391018374E+02 -0.62471032972E+01  0.94721436363E+02  0.90942683760E+02 0.  0.
         11    1    3    3    0    0  0.79602935608E+00  0.15276422893E+02  0.34641002674E+02  0.37868216560E+02  0.00000000000E+00 0.  1.
        -11    1    3    3    0    0  0.11900221026E+02 -0.37667441267E+02 -0.40888105971E+02  0.56853219803E+02  0.00000000000E+00 0. -1.
         22    1    1    2    0    0 -0.12696250382E+02  0.22391018374E+02 -0.21625972935E+02  0.33618970582E+02  0.00000000000E+00 0.  1.
<mgrwt>
<rscale>  0 0.68277687E+02</rscale>
<asrwt>0</asrwt>
<pdfrwt beam="1">  1        2 0.12016422E-01 0.94515206E+02</pdfrwt>
<pdfrwt beam="2">  1       -2 0.77282563E-02 0.94515206E+02</pdfrwt>
<totfact> 0.44295902E+04</totfact>
</mgrwt>
</event>
<event>
 6    1  0.1535419E-002  0.9183078E+02  0.7546771E-02  0.1397367E+00
         -2   -1    0    0    0  501 -0.00000000000E+00  0.00000000000E+00  0.11496518505E+03  0.11496518505E+03  0.00000000000E+00 0.  1.
          2   -1    0    0  501    0  0.00000000000E+00 -0.00000000000E+00 -0.26040119605E+02  0.26040119605E+02  0.00000000000E+00 0. -1.
         23    2    1    2    0    0  0.15052373499E+02 -0.75941848443E+01  0.68759206651E+02  0.11472018620E+03  0.90269856711E+02 0.  0.
         13    1    3    3    0    0 -0.83872183437E+01  0.57623000981E+01  0.83404766706E+02  0.84023238709E+02  0.00000000000E+00 0.  1.
        -13    1    3    3    0    0  0.23439591842E+02 -0.13356484942E+02 -0.14645560055E+02  0.30696947488E+02  0.00000000000E+00 0. -1.
         22    1    1    2    0    0 -0.15052373499E+02  0.75941848443E+01  0.20165858792E+02  0.26285118456E+02  0.00000000000E+00 0.  1.
<mgrwt>
<rscale>  0 0.60110859E+02</rscale>
<asrwt>0</asrwt>
<pdfrwt beam="1">  1        2 0.40061723E-02 0.91830783E+02</pdfrwt>
<pdfrwt beam="2">  1       -2 0.17686951E-01 0.91830783E+02</pdfrwt>
<totfact> 0.47260411E+04</totfact>
</mgrwt>
</event>
<event>
 6    1  0.1535419E-002  0.9599137E+02  0.7546771E-02  0.1350373E+00
          2   -1    0    0  501    0  0.00000000000E+00  0.00000000000E+00  0.11625684267E+04  0.11625684267E+04  0.00000000000E+00 0. -1.
         -2   -1    0    0    0  501 -0.00000000000E+00 -0.00000000000E+00 -0.53162811684E+01  0.53162811684E+01  0.00000000000E+00 0.  1.
         23    2    1    2    0    0  0.27463417758E+02 -0.16425533662E+02  0.10801304059E+04  0.10843874013E+04  0.90500303857E+02 0.  0.
         13    1    3    3    0    0  0.11080614096E+02 -0.53324338122E+02  0.70136266817E+03  0.70347413410E+03  0.00000000000E+00 0.  1.
        -13    1    3    3    0    0  0.16382803662E+02  0.36898804460E+02  0.37876773771E+03  0.38091326724E+03  0.00000000000E+00 0. -1.
         22    1    1    2    0    0 -0.27463417758E+02  0.16425533662E+02  0.77121739631E+02  0.83497306512E+02  0.00000000000E+00 0.  1.
<mgrwt>
<rscale>  0 0.72939639E+02</rscale>
<asrwt>0</asrwt>
<pdfrwt beam="1">  1        2 0.17885648E+00 0.95991367E+02</pdfrwt>
<pdfrwt beam="2">  1       -2 0.81789033E-03 0.95991367E+02</pdfrwt>
<totfact> 0.54500550E+04</totfact>
</mgrwt>
</event>
<event>
 6    1  0.1535419E-002  0.9142371E+02  0.7546771E-02  0.1426239E+00
         -2   -1    0    0    0  501 -0.00000000000E+00  0.00000000000E+00  0.13498369926E+02  0.13498369926E+02  0.00000000000E+00 0.  1.
          2   -1    0    0  501    0  0.00000000000E+00 -0.00000000000E+00 -0.34171607277E+03  0.34171607277E+03  0.00000000000E+00 0. -1.
         23    2    1    2    0    0 -0.10880058908E+02 -0.66813070124E+00 -0.33146376071E+03  0.34384083411E+03  0.90771539898E+02 0.  0.
         13    1    3    3    0    0  0.10725345492E+02 -0.84063504937E+01 -0.31571153183E+03  0.31600549219E+03  0.00000000000E+00 0. -1.
        -13    1    3    3    0    0 -0.21605404400E+02  0.77382197924E+01 -0.15752228877E+02  0.27835341914E+02  0.00000000000E+00 0.  1.
         22    1    1    2    0    0  0.10880058908E+02  0.66813070124E+00  0.32460578714E+01  0.11373608582E+02  0.00000000000E+00 0.  1.
<mgrwt>
<rscale>  0 0.53722507E+02</rscale>
<asrwt>0</asrwt>
<pdfrwt beam="1">  1        2 0.52571704E-01 0.91423709E+02</pdfrwt>
<pdfrwt beam="2">  1       -2 0.20766723E-02 0.91423709E+02</pdfrwt>
<totfact> 0.60559319E+04</totfact>
</mgrwt>
</event>
<event>
 6    1  0.1535419E-002  0.9240277E+02  0.7546771E-02  0.1417945E+00
          2   -1    0    0  501    0  0.00000000000E+00  0.00000000000E+00  0.42229163928E+02  0.42229163928E+02  0.00000000000E+00 0. -1.
         -2   -1    0    0    0  501 -0.00000000000E+00 -0.00000000000E+00 -0.95432115702E+02  0.95432115702E+02  0.00000000000E+00 0.  1.
         23    2    1    2    0    0  0.62896576588E+01 -0.10207288458E+02 -0.10136540183E+02  0.92957092595E+02  0.91621630010E+02 0.  0.
         13    1    3    3    0    0  0.14659070537E+02  0.96326553557E+01  0.37103558709E+02  0.41040839015E+02  0.00000000000E+00 0. -1.
        -13    1    3    3    0    0 -0.83694128779E+01 -0.19839943814E+02 -0.47240098892E+02  0.51916253580E+02  0.00000000000E+00 0.  1.
         22    1    1    2    0    0 -0.62896576588E+01  0.10207288458E+02 -0.43066411591E+02  0.44704187035E+02  0.00000000000E+00 0.  1.
<mgrwt>
<rscale>  0 0.55457995E+02</rscale>
<asrwt>0</asrwt>
<pdfrwt beam="1">  1        2 0.64967945E-02 0.92402768E+02</pdfrwt>
<pdfrwt beam="2">  1       -2 0.14681864E-01 0.92402768E+02</pdfrwt>
<totfact> 0.34391816E+04</totfact>
</mgrwt>
</event>
<event>
 6    1  0.1535419E-002  0.9444406E+02  0.7546771E-02  0.1404929E+00
          2   -1    0    0  501    0  0.00000000000E+00  0.00000000000E+00  0.58095981069E+03  0.58095981069E+03  0.00000000000E+00 0. -1.
         -2   -1    0    0    0  501 -0.00000000000E+00 -0.00000000000E+00 -0.54796520673E+01  0.54796520673E+01  0.00000000000E+00 0.  1.
         23    2    1    2    0    0 -0.13403353358E+02  0.30776731986E+01  0.54324303134E+03  0.55139157653E+03  0.93437452960E+02 0.  0.
         11    1    3    3    0    0 -0.85902839536E+01  0.17532179287E+02  0.20079843658E+02  0.28006613688E+02  0.00000000000E+00 0.  1.
        -11    1    3    3    0    0 -0.48130694045E+01 -0.14454506089E+02  0.52316318768E+03  0.52338496284E+03  0.00000000000E+00 0. -1.
         22    1    1    2    0    0  0.13403353358E+02 -0.30776731986E+01  0.32237127287E+02  0.35047886231E+02  0.00000000000E+00 0.  1.
<mgrwt>
<rscale>  0 0.58340979E+02</rscale>
<asrwt>0</asrwt>
<pdfrwt beam="1">  1        2 0.89378384E-01 0.94444055E+02</pdfrwt>
<pdfrwt beam="2">  1       -2 0.84302386E-03 0.94444055E+02</pdfrwt>
<totfact> 0.12452018E+05</totfact>
</mgrwt>
</event>
<event>
 6    1  0.1535419E-002  0.9660268E+02  0.7546771E-02  0.1371496E+00
         -1   -1    0    0    0  501 -0.00000000000E+00  0.00000000000E+00  0.20636383839E+03  0.20636383839E+03  0.00000000000E+00 0.  1.
          1   -1    0    0  501    0  0.00000000000E+00 -0.00000000000E+00 -0.18329363257E+02  0.18329363257E+02  0.00000000000E+00 0. -1.
         23    2    1    2    0    0  0.90932757966E+00 -0.22006148342E+02  0.12537133825E+03  0.15827207424E+03  0.94058383940E+02 0.  0.
         11    1    3    3    0    0 -0.57802855906E+01  0.30880236772E+02  0.13197728372E+02  0.34076102459E+02  0.00000000000E+00 0. -1.
        -11    1    3    3    0    0  0.66896131703E+01 -0.52886385114E+02  0.11217360987E+03  0.12419597178E+03  0.00000000000E+00 0.  1.
         22    1    1    2    0    0 -0.90932757966E+00  0.22006148342E+02  0.62663136890E+02  0.66421127410E+02  0.00000000000E+00 0. -1.
<mgrwt>
<rscale>  0 0.66752954E+02</rscale>
<asrwt>0</asrwt>
<pdfrwt beam="1">  1        1 0.28199022E-02 0.96602676E+02</pdfrwt>
<pdfrwt beam="2">  1       -1 0.31748281E-01 0.96602676E+02</pdfrwt>
<totfact> 0.30386263E+04</totfact>
</mgrwt>
</event>
<event>
 6    1  0.1535419E-002  0.9326109E+02  0.7546771E-02  0.1381171E+00
         -1   -1    0    0    0  501 -0.00000000000E+00  0.00000000000E+00  0.13126067820E+02  0.13126067820E+02  0.00000000000E+00 0.  1.
          1   -1    0    0  501    0  0.00000000000E+00 -0.00000000000E+00 -0.42711001030E+03  0.42711001030E+03  0.00000000000E+00 0. -1.
         23    2    1    2    0    0  0.19500074178E+02  0.74843158417E+01 -0.40797943735E+03  0.41850310873E+03  0.90892039496E+02 0.  0.
         11    1    3    3    0    0  0.35783739775E+02 -0.29321223413E+02 -0.13818793139E+03  0.14572616291E+03  0.00000000000E+00 0.  1.
        -11    1    3    3    0    0 -0.16283665597E+02  0.36805539255E+02 -0.26979150596E+03  0.27277694583E+03  0.00000000000E+00 0. -1.
         22    1    1    2    0    0 -0.19500074178E+02 -0.74843158417E+01 -0.60045051340E+01  0.21732969389E+02  0.00000000000E+00 0.  1.
<mgrwt>
<rscale>  0 0.64157069E+02</rscale>
<asrwt>0</asrwt>
<pdfrwt beam="1">  1        1 0.65709214E-01 0.93261089E+02</pdfrwt>
<pdfrwt beam="2">  1       -1 0.20193956E-02 0.93261089E+02</pdfrwt>
<totfact> 0.33549109E+04</totfact>
</mgrwt>
</event>
<event>
 6    1  0.1535419E-002  0.9233348E+02  0.7546771E-02  0.1373511E+00
         -2   -1    0    0    0  501 -0.00000000000E+00  0.00000000000E+00  0.29585315584E+01  0.29585315584E+01  0.00000000000E+00 0.  1.
          2   -1    0    0  501    0  0.00000000000E+00 -0.00000000000E+00 -0.21509632496E+04  0.21509632496E+04  0.00000000000E+00 0. -1.
         23    2    1    2    0    0  0.21665613403E+02 -0.11221393810E+02 -0.20728541893E+04  0.20749096273E+04  0.89051406355E+02 0.  0.
         11    1    3    3    0    0  0.37849638343E+02 -0.38587304998E+02 -0.16394904625E+04  0.16403812215E+04  0.00000000000E+00 0. -1.
        -11    1    3    3    0    0 -0.16184024941E+02  0.27365911188E+02 -0.43336372679E+03  0.43452840581E+03  0.00000000000E+00 0.  1.
         22    1    1    2    0    0 -0.21665613403E+02  0.11221393810E+02 -0.75150528678E+02  0.79012153773E+02  0.00000000000E+00 0.  1.
<mgrwt>
<rscale>  0 0.66200775E+02</rscale>
<asrwt>0</asrwt>
<pdfrwt beam="1">  1        2 0.33091897E+00 0.92333480E+02</pdfrwt>
<pdfrwt beam="2">  1       -2 0.45515657E-03 0.92333480E+02</pdfrwt>
<totfact> 0.38570074E+04</totfact>
</mgrwt>
</event>
<event>
 6    1  0.1535419E-002  0.9282869E+02  0.7546771E-02  0.1419982E+00
          2   -1    0    0  501    0  0.00000000000E+00  0.00000000000E+00  0.60616270250E+03  0.60616270250E+03  0.00000000000E+00 0. -1.
         -2   -1    0    0    0  501 -0.00000000000E+00 -0.00000000000E+00 -0.47657292205E+01  0.47657292205E+01  0.00000000000E+00 0.  1.
         23    2    1    2    0    0 -0.92496939176E+01 -0.67656812351E+01  0.56991397220E+03  0.57742454184E+03  0.92118589495E+02 0.  0.
         13    1    3    3    0    0  0.38003136918E+02  0.14464101934E+02  0.27622492299E+03  0.27920182081E+03  0.00000000000E+00 0. -1.
        -13    1    3    3    0    0 -0.47252830836E+02 -0.21229783169E+02  0.29368904921E+03  0.29822272103E+03  0.00000000000E+00 0.  1.
         22    1    1    2    0    0  0.92496939176E+01  0.67656812351E+01  0.31483001079E+02  0.33503889880E+02  0.00000000000E+00 0. -1.
<mgrwt>
<rscale>  0 0.55024701E+02</rscale>
<asrwt>0</asrwt>
<pdfrwt beam="1">  1        2 0.93255739E-01 0.92828691E+02</pdfrwt>
<pdfrwt beam="2">  1       -2 0.73318959E-03 0.92828691E+02</pdfrwt>
<totfact> 0.14423687E+05</totfact>
</mgrwt>
</event>
<event>
 6    1  0.1535419E-002  0.9431970E+02  0.7546771E-02  0.1385562E+00
          2   -1    0    0  501    0  0.00000000000E+00  0.00000000000E+00  0.76930690797E+03  0.76930690797E+03  0.00000000000E+00 0. -1.
         -2   -1    0    0    0  501 -0.00000000000E+00 -0.00000000000E+00 -0.50872572812E+01  0.50872572812E+01  0.00000000000E+00 0.  1.
         23    2    1    2    0    0 -0.66702755535E+01  0.17579897230E+02  0.72253215421E+03  0.72866241780E+03  0.92426510691E+02 0.  0.
         11    1    3    3    0    0  0.38365770349E+02  0.15472786198E+02  0.49376309564E+03  0.49549302121E+03  0.00000000000E+00 0. -1.
        -11    1    3    3    0    0 -0.45036045903E+02  0.21071110319E+01  0.22876905857E+03  0.23316939659E+03  0.00000000000E+00 0.  1.
         22    1    1    2    0    0  0.66702755535E+01 -0.17579897230E+02  0.41687496472E+02  0.45731747449E+02  0.00000000000E+00 0.  1.
<mgrwt>
<rscale>  0 0.63024214E+02</rscale>
<asrwt>0</asrwt>
<pdfrwt beam="1">  1        2 0.11835482E+00 0.94319697E+02</pdfrwt>
<pdfrwt beam="2">  1       -2 0.78265558E-03 0.94319697E+02</pdfrwt>
<totfact> 0.99972298E+04</totfact>
</mgrwt>
</event>
<event>
 6    1  0.1535419E-002  0.9311665E+02  0.7546771E-02  0.1397890E+00
         -2   -1    0    0    0  501 -0.00000000000E+00  0.00000000000E+00  0.47768262849E+02  0.47768262849E+02  0.00000000000E+00 0.  1.
          2   -1    0    0  501    0  0.00000000000E+00 -0.00000000000E+00 -0.67698821590E+02  0.67698821590E+02  0.00000000000E+00 0. -1.
         23    2    1    2    0    0 -0.23954064295E+01  0.15856973618E+02 -0.45204830103E+01  0.93226310659E+02  0.91725289033E+02 0.  0.
         11    1    3    3    0    0  0.39406957336E+01 -0.30894144141E+02 -0.26766423687E+02  0.41066028078E+02  0.00000000000E+00 0. -1.
        -11    1    3    3    0    0 -0.63361021631E+01  0.46751117759E+02  0.22245940677E+02  0.52160282581E+02  0.00000000000E+00 0.  1.
         22    1    1    2    0    0  0.23954064295E+01 -0.15856973618E+02 -0.15410075731E+02  0.22240773780E+02  0.00000000000E+00 0. -1.
<mgrwt>
<rscale>  0 0.59986080E+02</rscale>
<asrwt>0</asrwt>
<pdfrwt beam="1">  1        2 0.10415203E-01 0.93116649E+02</pdfrwt>
<pdfrwt beam="2">  1       -2 0.73489635E-02 0.93116649E+02</pdfrwt>
<totfact> 0.56649180E+04</totfact>
</mgrwt>
</event>
<event>
 6    1  0.1535419E-002  0.9425467E+02  0.7546771E-02  0.1376341E+00
         -2   -1    0    0    0  501 -0.00000000000E+00  0.00000000000E+00  0.34374287980E+02  0.34374287980E+02  0.00000000000E+00 0.  1.
          2   -1    0    0  501    0  0.00000000000E+00 -0.00000000000E+00 -0.11372355178E+03  0.11372355178E+03  0.00000000000E+00 0. -1.
         23    2    1    2    0    0 -0.17575865965E+02 -0.13056959956E+02 -0.83371680637E+02  0.12583632353E+03  0.91676321476E+02 0.  0.
         13    1    3    3    0    0 -0.18709417698E+02  0.37742481851E+02 -0.27459768792E+02  0.50284949527E+02  0.00000000000E+00 0. -1.
        -13    1    3    3    0    0  0.11335517334E+01 -0.50799441807E+02 -0.55911911845E+02  0.75551374002E+02  0.00000000000E+00 0.  1.
         22    1    1    2    0    0  0.17575865965E+02  0.13056959956E+02  0.40224168372E+01  0.22261516231E+02  0.00000000000E+00 0.  1.
<mgrwt>
<rscale>  0 0.65435569E+02</rscale>
<asrwt>0</asrwt>
<pdfrwt beam="1">  1        2 0.17495931E-01 0.94254672E+02</pdfrwt>
<pdfrwt beam="2">  1       -2 0.52883520E-02 0.94254672E+02</pdfrwt>
<totfact> 0.50695591E+04</totfact>
</mgrwt>
</event>
<event>
 6    1  0.1535419E-002  0.9139531E+02  0.7546771E-02  0.1431551E+00
          2   -1    0    0  501    0  0.00000000000E+00  0.00000000000E+00  0.67966735015E+02  0.67966735015E+02  0.00000000000E+00 0. -1.
         -2   -1    0    0    0  501 -0.00000000000E+00 -0.00000000000E+00 -0.51033490743E+02  0.51033490743E+02  0.00000000000E+00 0.  1.
         23    2    1    2    0    0 -0.24427975670E+01 -0.97642259890E+01  0.35365356873E+02  0.97999031885E+02  0.90839388012E+02 0.  0.
         13    1    3    3    0    0  0.12994095876E+01 -0.45059498129E+02  0.42320385715E+02  0.61830913659E+02  0.00000000000E+00 0. -1.
        -13    1    3    3    0    0 -0.37422071546E+01  0.35295272140E+02 -0.69550288416E+01  0.36168118226E+02  0.00000000000E+00 0.  1.
         22    1    1    2    0    0  0.24427975670E+01  0.97642259890E+01 -0.18432112602E+02  0.21001193873E+02  0.00000000000E+00 0. -1.
<mgrwt>
<rscale>  0 0.52649960E+02</rscale>
<asrwt>0</asrwt>
<pdfrwt beam="1">  1        2 0.10456421E-01 0.91395305E+02</pdfrwt>
<pdfrwt beam="2">  1       -2 0.78513063E-02 0.91395305E+02</pdfrwt>
<totfact> 0.50845978E+04</totfact>
</mgrwt>
</event>
<event>
 6    1  0.1535419E-002  0.9510867E+02  0.7546771E-02  0.1366655E+00
         -2   -1    0    0    0  501 -0.00000000000E+00  0.00000000000E+00  0.74230473354E+01  0.74230473354E+01  0.00000000000E+00 0.  1.
          2   -1    0    0  501    0  0.00000000000E+00 -0.00000000000E+00 -0.74776720428E+03  0.74776720428E+03  0.00000000000E+00 0. -1.
         23    2    1    2    0    0  0.23985882640E+02 -0.70771611168E+01 -0.70772831514E+03  0.71409035001E+03  0.91761926476E+02 0.  0.
         11    1    3    3    0    0  0.11919283546E+02  0.18758890309E+02 -0.40051365836E+02  0.45804772581E+02  0.00000000000E+00 0.  1.
        -11    1    3    3    0    0  0.12066599094E+02 -0.25836051426E+02 -0.66767694930E+03  0.66828557742E+03  0.00000000000E+00 0. -1.
         22    1    1    2    0    0 -0.23985882640E+02  0.70771611168E+01 -0.32615841811E+02  0.41099901612E+02  0.00000000000E+00 0.  1.
<mgrwt>
<rscale>  0 0.68106034E+02</rscale>
<asrwt>0</asrwt>
<pdfrwt beam="1">  1        2 0.11504112E+00 0.95108674E+02</pdfrwt>
<pdfrwt beam="2">  1       -2 0.11420071E-02 0.95108674E+02</pdfrwt>
<totfact> 0.60646830E+04</totfact>
</mgrwt>
</event>
<event>
 6    1  0.1535419E-002  0.9006123E+02  0.7546771E-02  0.1429868E+00
         -1   -1    0    0    0  501 -0.00000000000E+00  0.00000000000E+00  0.14215599892E+02  0.14215599892E+02  0.00000000000E+00 0.  1.
          1   -1    0    0  501    0  0.00000000000E+00 -0.00000000000E+00 -0.17897627602E+03  0.17897627602E+03  0.00000000000E+00 0. -1.
         23    2    1    2    0    0  0.15640261743E+01 -0.10676655118E+02 -0.14853640190E+03  0.17370690179E+03  0.89412459404E+02 0.  0.
         11    1    3    3    0    0  0.72213506360E+01 -0.43153275052E+02 -0.36681696468E+02  0.57095533175E+02  0.00000000000E+00 0.  1.
        -11    1    3    3    0    0 -0.56573244617E+01  0.32476619934E+02 -0.11185470543E+03  0.11661136861E+03  0.00000000000E+00 0. -1.
         22    1    1    2    0    0 -0.15640261743E+01  0.10676655118E+02 -0.16224274222E+02  0.19484974119E+02  0.00000000000E+00 0. -1.
<mgrwt>
<rscale>  0 0.52986453E+02</rscale>
<asrwt>0</asrwt>
<pdfrwt beam="1">  1        1 0.27534813E-01 0.90061229E+02</pdfrwt>
<pdfrwt beam="2">  1       -1 0.21870153E-02 0.90061229E+02</pdfrwt>
<totfact> 0.86681571E+04</totfact>
</mgrwt>
</event>
<event>
 6    1  0.1535419E-002  0.9496169E+02  0.7546771E-02  0.1373894E+00
          1   -1    0    0  501    0  0.00000000000E+00  0.00000000000E+00  0.28550855920E+03  0.28550855920E+03  0.00000000000E+00 0. -1.
         -1   -1    0    0    0  501 -0.00000000000E+00 -0.00000000000E+00 -0.16321400771E+02  0.16321400771E+02  0.00000000000E+00 0.  1.
         23    2    1    2    0    0 -0.25516735662E+01 -0.22141223572E+02  0.26157354891E+03  0.27827763802E+03  0.92309141002E+02 0.  0.
         11    1    3    3    0    0  0.11038239702E+02 -0.38555136832E+02  0.43501538592E+02  0.59166926333E+02  0.00000000000E+00 0.  1.
        -11    1    3    3    0    0 -0.13589913268E+02  0.16413913260E+02  0.21807201032E+03  0.21911071169E+03  0.00000000000E+00 0. -1.
         22    1    1    2    0    0  0.25516735662E+01  0.22141223572E+02  0.76136095116E+01  0.23552321946E+02  0.00000000000E+00 0.  1.
<mgrwt>
<rscale>  0 0.66096428E+02</rscale>
<asrwt>0</asrwt>
<pdfrwt beam="1">  1        1 0.43924390E-01 0.94961689E+02</pdfrwt>
<pdfrwt beam="2">  1       -1 0.25109850E-02 0.94961689E+02</pdfrwt>
<totfact> 0.40443000E+04</totfact>
</mgrwt>
</event>
<event>
 6    1  0.1535419E-002  0.9457084E+02  0.7546771E-02  0.1360038E+00
         -2   -1    0    0    0  501 -0.00000000000E+00  0.00000000000E+00  0.32304019587E+02  0.32304019587E+02  0.00000000000E+00 0.  1.
          2   -1    0    0  501    0  0.00000000000E+00 -0.00000000000E+00 -0.12566705389E+03  0.12566705389E+03  0.00000000000E+00 0. -1.
         23    2    1    2    0    0 -0.27990535445E+02  0.48820781908E+01 -0.87746607637E+02  0.12900818325E+03  0.90201659800E+02 0.  0.
         13    1    3    3    0    0 -0.19101722639E+02  0.27766187292E+02 -0.97064923148E+02  0.10274938574E+03  0.00000000000E+00 0. -1.
        -13    1    3    3    0    0 -0.88888128056E+01 -0.22884109101E+02  0.93183155105E+01  0.26258797505E+02  0.00000000000E+00 0.  1.
         22    1    1    2    0    0  0.27990535445E+02 -0.48820781908E+01 -0.56164266655E+01  0.28962890230E+02  0.00000000000E+00 0. -1.
<mgrwt>
<rscale>  0 0.70016054E+02</rscale>
<asrwt>0</asrwt>
<pdfrwt beam="1">  1        2 0.19333393E-01 0.94570842E+02</pdfrwt>
<pdfrwt beam="2">  1       -2 0.49698492E-02 0.94570842E+02</pdfrwt>
<totfact> 0.49698139E+04</totfact>
</mgrwt>
</event>
<event>
 6    1  0.1535419E-002  0.1118206E+03  0.7546771E-02  0.1372698E+00
         -2   -1    0    0    0  501 -0.00000000000E+00  0.00000000000E+00  0.48030920194E+02  0.48030920194E+02  0.00000000000E+00 0. -1.
          2   -1    0    0  501    0  0.00000000000E+00 -0.00000000000E+00 -0.25905360329E+04  0.25905360329E+04  0.00000000000E+00 0.  1.
         23    2    1    2    0    0 -0.13592852383E+02  0.30090802382E+01 -0.25882940254E+04  0.25907083622E+04  0.11095060014E+03 0.  0.
         13    1    3    3    0    0 -0.26373772562E+02 -0.56714592607E+01 -0.15265205673E+03  0.15501739178E+03  0.00000000000E+00 0. -1.
        -13    1    3    3    0    0  0.12780920179E+02  0.86805394989E+01 -0.24356419687E+04  0.24356909704E+04  0.00000000000E+00 0.  1.
         22    1    1    2    0    0  0.13592852383E+02 -0.30090802382E+01  0.45788912695E+02  0.47858590928E+02  0.00000000000E+00 0. -1.
<mgrwt>
<rscale>  0 0.66422675E+02</rscale>
<asrwt>0</asrwt>
<pdfrwt beam="1">  1        2 0.39854409E+00 0.11182064E+03</pdfrwt>
<pdfrwt beam="2">  1       -2 0.73893708E-02 0.11182064E+03</pdfrwt>
<totfact> 0.40518847E+02</totfact>
</mgrwt>
</event>
<event>
 6    1  0.1535419E-002  0.9178801E+02  0.7546771E-02  0.1398380E+00
          4   -1    0    0  501    0  0.00000000000E+00  0.00000000000E+00  0.97388362768E+03  0.97388362768E+03  0.00000000000E+00 0. -1.
         -4   -1    0    0    0  501 -0.00000000000E+00 -0.00000000000E+00 -0.11893858617E+02  0.11893858617E+02  0.00000000000E+00 0.  1.
         23    2    1    2    0    0 -0.15174868890E+02 -0.67632414865E+01  0.96460227711E+03  0.96895954114E+03  0.90271929614E+02 0.  0.
         11    1    3    3    0    0 -0.11328957929E+02 -0.48517845429E+02  0.53683337876E+03  0.53914042991E+03  0.00000000000E+00 0. -1.
        -11    1    3    3    0    0 -0.38459109612E+01  0.41754603943E+02  0.42776889835E+03  0.42981911123E+03  0.00000000000E+00 0.  1.
         22    1    1    2    0    0  0.15174868890E+02  0.67632414865E+01 -0.26125080422E+01  0.16817945163E+02  0.00000000000E+00 0.  1.
<mgrwt>
<rscale>  0 0.59869643E+02</rscale>
<asrwt>0</asrwt>
<pdfrwt beam="1">  1        4 0.14982819E+00 0.91788013E+02</pdfrwt>
<pdfrwt beam="2">  1       -4 0.18298252E-02 0.91788013E+02</pdfrwt>
<totfact> 0.57118737E+02</totfact>
</mgrwt>
</event>
<event>
 6    1  0.1535419E-002  0.9336091E+02  0.7546771E-02  0.1374706E+00
          1   -1    0    0  501    0  0.00000000000E+00  0.00000000000E+00  0.12242854996E+03  0.12242854996E+03  0.00000000000E+00 0. -1.
         -1   -1    0    0    0  501 -0.00000000000E+00 -0.00000000000E+00 -0.27744882713E+02  0.27744882713E+02  0.00000000000E+00 0.  1.
         23    2    1    2    0    0 -0.22802896476E+02 -0.39527991059E+01  0.77763653058E+02  0.12150492053E+03  0.90447019114E+02 0.  0.
         13    1    3    3    0    0  0.56553563606E+01 -0.31019262001E+02  0.75897443788E+02  0.82186371402E+02  0.00000000000E+00 0. -1.
        -13    1    3    3    0    0 -0.28458252837E+02  0.27066462895E+02  0.18662092696E+01  0.39318549124E+02  0.00000000000E+00 0.  1.
         22    1    1    2    0    0  0.22802896476E+02  0.39527991059E+01  0.16920014185E+02  0.28668512143E+02  0.00000000000E+00 0.  1.
<mgrwt>
<rscale>  0 0.65876202E+02</rscale>
<asrwt>0</asrwt>
<pdfrwt beam="1">  1        1 0.18835161E-01 0.93360912E+02</pdfrwt>
<pdfrwt beam="2">  1       -1 0.42684436E-02 0.93360912E+02</pdfrwt>
<totfact> 0.53335800E+04</totfact>
</mgrwt>
</event>
<event>
 6    1  0.1535419E-002  0.9278483E+02  0.7546771E-02  0.1416410E+00
         -2   -1    0    0    0  501 -0.00000000000E+00  0.00000000000E+00  0.40472800378E+03  0.40472800378E+03  0.00000000000E+00 0.  1.
          2   -1    0    0  501    0  0.00000000000E+00 -0.00000000000E+00 -0.68463980137E+01  0.68463980137E+01  0.00000000000E+00 0. -1.
         23    2    1    2    0    0 -0.11180612823E+02 -0.46946430569E+01  0.33977363133E+03  0.35221463032E+03  0.91989018293E+02 0.  0.
         13    1    3    3    0    0  0.24905753990E+02 -0.14117397066E+02  0.28199256288E+03  0.28344206287E+03  0.00000000000E+00 0.  1.
        -13    1    3    3    0    0 -0.36086366813E+02  0.94227540095E+01  0.57781068452E+02  0.68772567455E+02  0.00000000000E+00 0. -1.
         22    1    1    2    0    0  0.11180612823E+02  0.46946430569E+01  0.58107974429E+02  0.59359771469E+02  0.00000000000E+00 0. -1.
<mgrwt>
<rscale>  0 0.55787810E+02</rscale>
<asrwt>0</asrwt>
<pdfrwt beam="1">  1        2 0.10532923E-02 0.92784833E+02</pdfrwt>
<pdfrwt beam="2">  1       -2 0.62265828E-01 0.92784833E+02</pdfrwt>
<totfact> 0.28627104E+04</totfact>
</mgrwt>
</event>
<event>
 6    1  0.1535419E-002  0.9392319E+02  0.7546771E-02  0.1390090E+00
          1   -1    0    0  501    0  0.00000000000E+00  0.00000000000E+00  0.56214186242E+02  0.56214186242E+02  0.00000000000E+00 0. -1.
         -1   -1    0    0    0  501 -0.00000000000E+00 -0.00000000000E+00 -0.55577975953E+02  0.55577975953E+02  0.00000000000E+00 0.  1.
         23    2    1    2    0    0  0.15864080123E+02  0.78528474429E+01  0.27611800490E+01  0.93963764970E+02  0.92240060500E+02 0.  0.
         13    1    3    3    0    0  0.32868785651E+02  0.19923593434E+02 -0.34250248297E+02  0.51481901227E+02  0.00000000000E+00 0.  1.
        -13    1    3    3    0    0 -0.17004705528E+02 -0.12070745992E+02  0.37011428346E+02  0.42481863743E+02  0.00000000000E+00 0. -1.
         22    1    1    2    0    0 -0.15864080123E+02 -0.78528474429E+01 -0.21249697599E+01  0.17828397224E+02  0.00000000000E+00 0. -1.
<mgrwt>
<rscale>  0 0.61884366E+02</rscale>
<asrwt>0</asrwt>
<pdfrwt beam="1">  1        1 0.86483364E-02 0.93923187E+02</pdfrwt>
<pdfrwt beam="2">  1       -1 0.85504578E-02 0.93923187E+02</pdfrwt>
<totfact> 0.52344836E+04</totfact>
</mgrwt>
</event>
<event>
 6    1  0.1535419E-002  0.8104541E+02  0.7546771E-02  0.1405099E+00
         -3   -1    0    0    0  501 -0.00000000000E+00  0.00000000000E+00  0.38270701620E+01  0.38270701620E+01  0.00000000000E+00 0.  1.
          3   -1    0    0  501    0  0.00000000000E+00 -0.00000000000E+00 -0.92817935998E+03  0.92817935998E+03  0.00000000000E+00 0. -1.
         23    2    1    2    0    0  0.14761828917E+02  0.15911428448E+02 -0.86538064577E+03  0.86916742991E+03  0.78085043372E+02 0.  0.
         13    1    3    3    0    0  0.86518473593E+01 -0.23111605008E+02 -0.10910719937E+03  0.11186322766E+03  0.00000000000E+00 0.  1.
        -13    1    3    3    0    0  0.61099815572E+01  0.39023033456E+02 -0.75627344640E+03  0.75730420225E+03  0.00000000000E+00 0. -1.
         22    1    1    2    0    0 -0.14761828917E+02 -0.15911428448E+02 -0.58971644055E+02  0.62839000236E+02  0.00000000000E+00 0.  1.
<mgrwt>
<rscale>  0 0.58302041E+02</rscale>
<asrwt>0</asrwt>
<pdfrwt beam="1">  1        3 0.14279667E+00 0.81045414E+02</pdfrwt>
<pdfrwt beam="2">  1       -3 0.58878066E-03 0.81045414E+02</pdfrwt>
<totfact> 0.48092438E+03</totfact>
</mgrwt>
</event>
<event>
 6    1  0.1535419E-002  0.9893995E+02  0.7546771E-02  0.1348427E+00
         -2   -1    0    0    0  501 -0.00000000000E+00  0.00000000000E+00  0.23028919166E+02  0.23028919166E+02  0.00000000000E+00 0.  1.
          2   -1    0    0  501    0  0.00000000000E+00 -0.00000000000E+00 -0.19690120049E+03  0.19690120049E+03  0.00000000000E+00 0. -1.
         23    2    1    2    0    0  0.11137409925E+02 -0.28083561295E+02 -0.15629038955E+03  0.18497513098E+03  0.94214568411E+02 0.  0.
         13    1    3    3    0    0 -0.33033287410E+02 -0.32627475286E+02 -0.11627040266E+03  0.12519807010E+03  0.00000000000E+00 0. -1.
        -13    1    3    3    0    0  0.44170697335E+02  0.45439139911E+01 -0.40019986886E+02  0.59777060883E+02  0.00000000000E+00 0.  1.
         22    1    1    2    0    0 -0.11137409925E+02  0.28083561295E+02 -0.17581891772E+02  0.34954988673E+02  0.00000000000E+00 0.  1.
<mgrwt>
<rscale>  0 0.73548098E+02</rscale>
<asrwt>0</asrwt>
<pdfrwt beam="1">  1        2 0.30292494E-01 0.98939948E+02</pdfrwt>
<pdfrwt beam="2">  1       -2 0.35429105E-02 0.98939948E+02</pdfrwt>
<totfact> 0.50372203E+04</totfact>
</mgrwt>
</event>
<event>
 6    1  0.1535419E-002  0.9028579E+02  0.7546771E-02  0.1432717E+00
          2   -1    0    0  501    0  0.00000000000E+00  0.00000000000E+00  0.45897688323E+03  0.45897688323E+03  0.00000000000E+00 0. -1.
         -2   -1    0    0    0  501 -0.00000000000E+00 -0.00000000000E+00 -0.64301385948E+01  0.64301385948E+01  0.00000000000E+00 0.  1.
         23    2    1    2    0    0  0.79518042624E+01 -0.64808960068E+01  0.44015829201E+03  0.44932265169E+03  0.89701115352E+02 0.  0.
         11    1    3    3    0    0  0.35740141518E+01  0.12885868294E+02  0.42261733982E+03  0.42282884847E+03  0.00000000000E+00 0. -1.
        -11    1    3    3    0    0  0.43777901106E+01 -0.19366764300E+02  0.17540952192E+02  0.26493803228E+02  0.00000000000E+00 0.  1.
         22    1    1    2    0    0 -0.79518042624E+01  0.64808960068E+01  0.12388452625E+02  0.16084370131E+02  0.00000000000E+00 0.  1.
<mgrwt>
<rscale>  0 0.52418385E+02</rscale>
<asrwt>0</asrwt>
<pdfrwt beam="1">  1        2 0.70611802E-01 0.90285787E+02</pdfrwt>
<pdfrwt beam="2">  1       -2 0.98925245E-03 0.90285787E+02</pdfrwt>
<totfact> 0.12748772E+05</totfact>
</mgrwt>
</event>
<event>
 6    1  0.1535419E-002  0.6479650E+02  0.7546771E-02  0.1493550E+00
         -2   -1    0    0    0  501 -0.00000000000E+00  0.00000000000E+00  0.40239393846E+01  0.40239393846E+01  0.00000000000E+00 0.  1.
          2   -1    0    0  501    0  0.00000000000E+00 -0.00000000000E+00 -0.41624796119E+03  0.41624796119E+03  0.00000000000E+00 0. -1.
         23    2    1    2    0    0 -0.76773943434E+01  0.85721683966E+01 -0.38892754532E+03  0.39428824665E+03  0.63766460451E+02 0.  0.
         11    1    3    3    0    0  0.13785757568E+02  0.26063382933E+02 -0.10647864019E+03  0.11048550972E+03  0.00000000000E+00 0.  1.
        -11    1    3    3    0    0 -0.21463151911E+02 -0.17491214537E+02 -0.28244890513E+03  0.28380273693E+03  0.00000000000E+00 0. -1.
         22    1    1    2    0    0  0.76773943434E+01 -0.85721683966E+01 -0.23296476484E+02  0.25983653929E+02  0.00000000000E+00 0.  1.
<mgrwt>
<rscale>  0 0.42063913E+02</rscale>
<asrwt>0</asrwt>
<pdfrwt beam="1">  1        2 0.64038135E-01 0.64796496E+02</pdfrwt>
<pdfrwt beam="2">  1       -2 0.61906772E-03 0.64796496E+02</pdfrwt>
<totfact> 0.25770068E+05</totfact>
</mgrwt>
</event>
<event>
 6    1  0.1535419E-002  0.9186065E+02  0.7546771E-02  0.1425038E+00
         -2   -1    0    0    0  501 -0.00000000000E+00  0.00000000000E+00  0.10774212740E+02  0.10774212740E+02  0.00000000000E+00 0. -1.
          2   -1    0    0  501    0  0.00000000000E+00 -0.00000000000E+00 -0.24719493821E+03  0.24719493821E+03  0.00000000000E+00 0.  1.
         23    2    1    2    0    0  0.65888673692E+01  0.87388298065E+01 -0.21764344700E+03  0.23623515670E+03  0.91206353488E+02 0.  0.
         11    1    3    3    0    0  0.15231673327E+02  0.37902627556E+02 -0.44361930626E+02  0.60304178436E+02  0.00000000000E+00 0. -1.
        -11    1    3    3    0    0 -0.86428059579E+01 -0.29163797749E+02 -0.17328151638E+03  0.17593097826E+03  0.00000000000E+00 0.  1.
         22    1    1    2    0    0 -0.65888673692E+01 -0.87388298065E+01 -0.18777278469E+02  0.21733994255E+02  0.00000000000E+00 0.  1.
<mgrwt>
<rscale>  0 0.53969118E+02</rscale>
<asrwt>0</asrwt>
<pdfrwt beam="1">  1        2 0.38029988E-01 0.91860651E+02</pdfrwt>
<pdfrwt beam="2">  1       -2 0.16575713E-02 0.91860651E+02</pdfrwt>
<totfact> 0.11749931E+05</totfact>
</mgrwt>
</event>
<event>
 6    1  0.1535419E-002  0.9253232E+02  0.7546771E-02  0.1376801E+00
          1   -1    0    0  501    0  0.00000000000E+00  0.00000000000E+00  0.12851392330E+02  0.12851392330E+02  0.00000000000E+00 0. -1.
         -1   -1    0    0    0  501 -0.00000000000E+00 -0.00000000000E+00 -0.28616924267E+03  0.28616924267E+03  0.00000000000E+00 0.  1.
         23    2    1    2    0    0 -0.19429010723E+02 -0.12246896325E+02 -0.17391565649E+03  0.19699971033E+03  0.89636808133E+02 0.  0.
         13    1    3    3    0    0  0.89079405177E+01 -0.35120563869E+02 -0.25817505551E+02  0.44489875294E+02  0.00000000000E+00 0. -1.
        -13    1    3    3    0    0 -0.28336951241E+02  0.22873667544E+02 -0.14809815094E+03  0.15250983504E+03  0.00000000000E+00 0.  1.
         22    1    1    2    0    0  0.19429010723E+02  0.12246896325E+02 -0.99402193848E+02  0.10202092466E+03  0.00000000000E+00 0. -1.
<mgrwt>
<rscale>  0 0.65312320E+02</rscale>
<asrwt>0</asrwt>
<pdfrwt beam="1">  1        1 0.19771374E-02 0.92532320E+02</pdfrwt>
<pdfrwt beam="2">  1       -1 0.44026035E-01 0.92532320E+02</pdfrwt>
<totfact> 0.28087994E+04</totfact>
</mgrwt>
</event>
<event>
 6    1  0.1535419E-002  0.9433489E+02  0.7546771E-02  0.1382042E+00
          4   -1    0    0  501    0  0.00000000000E+00  0.00000000000E+00  0.89257452067E+02  0.89257452067E+02  0.00000000000E+00 0. -1.
         -4   -1    0    0    0  501 -0.00000000000E+00 -0.00000000000E+00 -0.51751103720E+02  0.51751103720E+02  0.00000000000E+00 0.  1.
         23    2    1    2    0    0  0.68352835729E+01  0.18686878510E+02  0.59357165754E+02  0.11145557368E+03  0.92212533034E+02 0.  0.
         13    1    3    3    0    0  0.47981138271E+02  0.13838766333E+02  0.18459600542E+02  0.53239627493E+02  0.00000000000E+00 0.  1.
        -13    1    3    3    0    0 -0.41145854698E+02  0.48481121773E+01  0.40897565211E+02  0.58215946189E+02  0.00000000000E+00 0. -1.
         22    1    1    2    0    0 -0.68352835729E+01 -0.18686878510E+02 -0.21850817407E+02  0.29552982105E+02  0.00000000000E+00 0.  1.
<mgrwt>
<rscale>  0 0.63930083E+02</rscale>
<asrwt>0</asrwt>
<pdfrwt beam="1">  1        4 0.13731916E-01 0.94334892E+02</pdfrwt>
<pdfrwt beam="2">  1       -4 0.79617083E-02 0.94334892E+02</pdfrwt>
<totfact> 0.72252543E+03</totfact>
</mgrwt>
</event>
<event>
 6    1  0.1535419E-002  0.9100815E+02  0.7546771E-02  0.1411493E+00
          2   -1    0    0  501    0  0.00000000000E+00  0.00000000000E+00  0.28614989152E+02  0.28614989152E+02  0.00000000000E+00 0. -1.
         -2   -1    0    0    0  501 -0.00000000000E+00 -0.00000000000E+00 -0.96135528015E+02  0.96135528015E+02  0.00000000000E+00 0.  1.
         23    2    1    2    0    0  0.10634883231E+02 -0.89024407610E+01 -0.57735004480E+02  0.10777668802E+03  0.89945147421E+02 0.  0.
         13    1    3    3    0    0 -0.82352769544E+00  0.40239764579E+02 -0.21297717940E+02  0.45535806138E+02  0.00000000000E+00 0. -1.
        -13    1    3    3    0    0  0.11458410927E+02 -0.49142205340E+02 -0.36437286540E+02  0.62240881878E+02  0.00000000000E+00 0.  1.
         22    1    1    2    0    0 -0.10634883231E+02  0.89024407610E+01 -0.97855343831E+01  0.16973829150E+02  0.00000000000E+00 0. -1.
<mgrwt>
<rscale>  0 0.56862104E+02</rscale>
<asrwt>0</asrwt>
<pdfrwt beam="1">  1        2 0.44023061E-02 0.91008152E+02</pdfrwt>
<pdfrwt beam="2">  1       -2 0.14790081E-01 0.91008152E+02</pdfrwt>
<totfact> 0.55884735E+04</totfact>
</mgrwt>
</event>
<event>
 6    1  0.1535419E-002  0.1049595E+03  0.7546771E-02  0.1393923E+00
          2   -1    0    0  501    0  0.00000000000E+00  0.00000000000E+00  0.23877346176E+02  0.23877346176E+02  0.00000000000E+00 0. -1.
         -2   -1    0    0    0  501 -0.00000000000E+00 -0.00000000000E+00 -0.14393577757E+03  0.14393577757E+03  0.00000000000E+00 0.  1.
         23    2    1    2    0    0  0.10308125655E+02  0.60027248728E+01 -0.11151434069E+03  0.15314030376E+03  0.10427950084E+03 0.  0.
         11    1    3    3    0    0  0.84897695073E+01  0.16918893315E+01  0.19869394553E+02  0.21673290375E+02  0.00000000000E+00 0. -1.
        -11    1    3    3    0    0  0.18183561476E+01  0.43108355413E+01 -0.13138373524E+03  0.13146701338E+03  0.00000000000E+00 0.  1.
         22    1    1    2    0    0 -0.10308125655E+02 -0.60027248728E+01 -0.85440907087E+01  0.14672819990E+02  0.00000000000E+00 0.  1.
<mgrwt>
<rscale>  0 0.60941521E+02</rscale>
<asrwt>0</asrwt>
<pdfrwt beam="1">  1        2 0.36734378E-02 0.10495954E+03</pdfrwt>
<pdfrwt beam="2">  1       -2 0.22143966E-01 0.10495954E+03</pdfrwt>
<totfact> 0.37010929E+04</totfact>
</mgrwt>
</event>
<event>
 6    1  0.1535419E-002  0.9207096E+02  0.7546771E-02  0.1418892E+00
          1   -1    0    0  501    0  0.00000000000E+00  0.00000000000E+00  0.84798670541E+01  0.84798670541E+01  0.00000000000E+00 0. -1.
         -1   -1    0    0    0  501 -0.00000000000E+00 -0.00000000000E+00 -0.32614265319E+03  0.32614265319E+03  0.00000000000E+00 0.  1.
         23    2    1    2    0    0 -0.31080801395E+01 -0.11532534503E+02 -0.26241390151E+03  0.27809731555E+03  0.91292944370E+02 0.  0.
         13    1    3    3    0    0 -0.55348583426E+01  0.23871095250E+02 -0.16282339602E+02  0.29420714271E+02  0.00000000000E+00 0. -1.
        -13    1    3    3    0    0  0.24267782031E+01 -0.35403629754E+02 -0.24613156191E+03  0.24867660127E+03  0.00000000000E+00 0.  1.
         22    1    1    2    0    0  0.31080801395E+01  0.11532534503E+02 -0.55248884626E+02  0.56525204703E+02  0.00000000000E+00 0. -1.
<mgrwt>
<rscale>  0 0.55256018E+02</rscale>
<asrwt>0</asrwt>
<pdfrwt beam="1">  1        1 0.13045950E-02 0.92070957E+02</pdfrwt>
<pdfrwt beam="2">  1       -1 0.50175791E-01 0.92070957E+02</pdfrwt>
<totfact> 0.39476645E+04</totfact>
</mgrwt>
</event>
<event>
 6    1  0.1535419E-002  0.1009607E+03  0.7546771E-02  0.1315148E+00
          2   -1    0    0  501    0  0.00000000000E+00  0.00000000000E+00  0.65600484847E+03  0.65600484847E+03  0.00000000000E+00 0. -1.
         -2   -1    0    0    0  501 -0.00000000000E+00 -0.00000000000E+00 -0.19402593909E+02  0.19402593909E+02  0.00000000000E+00 0.  1.
         23    2    1    2    0    0  0.48218730646E+02 -0.16564755113E+02  0.60923158321E+03  0.61754043324E+03  0.87141422994E+02 0.  0.
         13    1    3    3    0    0  0.49818055227E+01  0.22866919384E+02  0.49448949584E+02  0.54707522365E+02  0.00000000000E+00 0.  1.
        -13    1    3    3    0    0  0.43236925123E+02 -0.39431674497E+02  0.55978263363E+03  0.56283291087E+03  0.00000000000E+00 0. -1.
         22    1    1    2    0    0 -0.48218730646E+02  0.16564755113E+02  0.27370671349E+02  0.57867009143E+02  0.00000000000E+00 0.  1.
<mgrwt>
<rscale>  0 0.85108749E+02</rscale>
<asrwt>0</asrwt>
<pdfrwt beam="1">  1        2 0.10092381E+00 0.10096071E+03</pdfrwt>
<pdfrwt beam="2">  1       -2 0.29850150E-02 0.10096071E+03</pdfrwt>
<totfact> 0.17878873E+04</totfact>
</mgrwt>
</event>
<event>
 6    1  0.1535419E-002  0.6930259E+02  0.7546771E-02  0.1485756E+00
          1   -1    0    0  501    0  0.00000000000E+00  0.00000000000E+00  0.23383954532E+03  0.23383954532E+03  0.00000000000E+00 0. -1.
         -1   -1    0    0    0  501 -0.00000000000E+00 -0.00000000000E+00 -0.69141122983E+01  0.69141122983E+01  0.00000000000E+00 0.  1.
         23    2    1    2    0    0 -0.71553648692E+01  0.76641021007E+01  0.20606078182E+03  0.21740261102E+03  0.68504830245E+02 0.  0.
         13    1    3    3    0    0 -0.16857219135E+02  0.12983372111E+02  0.15027488156E+02  0.26049168674E+02  0.00000000000E+00 0. -1.
        -13    1    3    3    0    0  0.97018542658E+01 -0.53192700105E+01  0.19103329367E+03  0.19135344235E+03  0.00000000000E+00 0.  1.
         22    1    1    2    0    0  0.71553648692E+01 -0.76641021007E+01  0.20864651196E+02  0.23351046593E+02  0.00000000000E+00 0.  1.
<mgrwt>
<rscale>  0 0.43222059E+02</rscale>
<asrwt>0</asrwt>
<pdfrwt beam="1">  1        1 0.35975309E-01 0.69302594E+02</pdfrwt>
<pdfrwt beam="2">  1       -1 0.10637098E-02 0.69302594E+02</pdfrwt>
<totfact> 0.16588024E+05</totfact>
</mgrwt>
</event>
<event>
 6    1  0.1535419E-002  0.9201025E+02  0.7546771E-02  0.1406838E+00
          2   -1    0    0  501    0  0.00000000000E+00  0.00000000000E+00  0.32445583606E+03  0.32445583606E+03  0.00000000000E+00 0. -1.
         -2   -1    0    0    0  501 -0.00000000000E+00 -0.00000000000E+00 -0.87313950028E+01  0.87313950028E+01  0.00000000000E+00 0.  1.
         23    2    1    2    0    0 -0.25270106292E+01  0.14210342833E+02  0.27154948272E+03  0.28671415745E+03  0.90871155464E+02 0.  0.
         11    1    3    3    0    0  0.92856855620E+01 -0.22091219860E+01  0.26540179652E+03  0.26557337550E+03  0.00000000000E+00 0. -1.
        -11    1    3    3    0    0 -0.11812696191E+02  0.16419464819E+02  0.61476861951E+01  0.21140781958E+02  0.00000000000E+00 0.  1.
         22    1    1    2    0    0  0.25270106292E+01 -0.14210342833E+02  0.44174958340E+02  0.46473073607E+02  0.00000000000E+00 0. -1.
<mgrwt>
<rscale>  0 0.57905316E+02</rscale>
<asrwt>0</asrwt>
<pdfrwt beam="1">  1        2 0.49916273E-01 0.92010252E+02</pdfrwt>
<pdfrwt beam="2">  1       -2 0.13432918E-02 0.92010252E+02</pdfrwt>
<totfact> 0.11933562E+05</totfact>
</mgrwt>
</event>
<event>
 6    1  0.1535419E-002  0.9212835E+02  0.7546771E-02  0.1397510E+00
         -2   -1    0    0    0  501 -0.00000000000E+00  0.00000000000E+00  0.20091433758E+02  0.20091433758E+02  0.00000000000E+00 0.  1.
          2   -1    0    0  501    0  0.00000000000E+00 -0.00000000000E+00 -0.15169767225E+03  0.15169767225E+03  0.00000000000E+00 0. -1.
         23    2    1    2    0    0 -0.67428897931E+01 -0.15233106093E+02 -0.12084159309E+03  0.15195500218E+03  0.90609701379E+02 0.  0.
         13    1    3    3    0    0  0.56543167460E+00 -0.50116338770E+02 -0.96672402217E+02  0.10889224249E+03  0.00000000000E+00 0. -1.
        -13    1    3    3    0    0 -0.73083214677E+01  0.34883232677E+02 -0.24169190873E+02  0.43062759691E+02  0.00000000000E+00 0.  1.
         22    1    1    2    0    0  0.67428897931E+01  0.15233106093E+02 -0.10764645405E+02  0.19834103829E+02  0.00000000000E+00 0.  1.
<mgrwt>
<rscale>  0 0.60076633E+02</rscale>
<asrwt>0</asrwt>
<pdfrwt beam="1">  1        2 0.23338103E-01 0.92128346E+02</pdfrwt>
<pdfrwt beam="2">  1       -2 0.30909898E-02 0.92128346E+02</pdfrwt>
<totfact> 0.80780471E+04</totfact>
</mgrwt>
</event>
<event>
 6    1  0.1535419E-002  0.9925721E+02  0.7546771E-02  0.1391944E+00
         -2   -1    0    0    0  501 -0.00000000000E+00  0.00000000000E+00  0.34975294161E+02  0.34975294161E+02  0.00000000000E+00 0.  1.
          2   -1    0    0  501    0  0.00000000000E+00 -0.00000000000E+00 -0.92747752145E+02  0.92747752145E+02  0.00000000000E+00 0. -1.
         23    2    1    2    0    0  0.13139932704E+02 -0.62682726963E+01 -0.52085627968E+02  0.11209329552E+03  0.98183731776E+02 0.  0.
         11    1    3    3    0    0 -0.60103144997E+01  0.34409135036E+01 -0.78075278649E+02  0.78381840386E+02  0.00000000000E+00 0. -1.
        -11    1    3    3    0    0  0.19150247204E+02 -0.97091861999E+01  0.25989650681E+02  0.33711455133E+02  0.00000000000E+00 0.  1.
         22    1    1    2    0    0 -0.13139932704E+02  0.62682726963E+01 -0.56868300163E+01  0.15629750788E+02  0.00000000000E+00 0.  1.
<mgrwt>
<rscale>  0 0.61425754E+02</rscale>
<asrwt>0</asrwt>
<pdfrwt beam="1">  1        2 0.14268885E-01 0.99257213E+02</pdfrwt>
<pdfrwt beam="2">  1       -2 0.53808145E-02 0.99257213E+02</pdfrwt>
<totfact> 0.62916951E+04</totfact>
</mgrwt>
</event>
<event>
 6    1  0.1535419E-002  0.9946441E+02  0.7546771E-02  0.1390529E+00
          2   -1    0    0  501    0  0.00000000000E+00  0.00000000000E+00  0.12453816000E+03  0.12453816000E+03  0.00000000000E+00 0. -1.
         -2   -1    0    0    0  501 -0.00000000000E+00 -0.00000000000E+00 -0.26336136070E+02  0.26336136070E+02  0.00000000000E+00 0.  1.
         23    2    1    2    0    0  0.14761067484E+02  0.10718880364E+01  0.88830565620E+02  0.13335681086E+03  0.98357163225E+02 0.  0.
         11    1    3    3    0    0  0.28239398605E+02  0.19135945841E+01 -0.12635159256E+02  0.30996334094E+02  0.00000000000E+00 0.  1.
        -11    1    3    3    0    0 -0.13478331122E+02 -0.84170654778E+00  0.10146572488E+03  0.10236047677E+03  0.00000000000E+00 0. -1.
         22    1    1    2    0    0 -0.14761067484E+02 -0.10718880364E+01  0.93714583141E+01  0.17517485212E+02  0.00000000000E+00 0.  1.
<mgrwt>
<rscale>  0 0.61775425E+02</rscale>
<asrwt>0</asrwt>
<pdfrwt beam="1">  1        2 0.19159717E-01 0.99464414E+02</pdfrwt>
<pdfrwt beam="2">  1       -2 0.40517133E-02 0.99464414E+02</pdfrwt>
<totfact> 0.68403575E+04</totfact>
</mgrwt>
</event>
<event>
 6    1  0.1535419E-002  0.9222967E+02  0.7546771E-02  0.1384366E+00
         -2   -1    0    0    0  501 -0.00000000000E+00  0.00000000000E+00  0.29290380458E+01  0.29290380458E+01  0.00000000000E+00 0.  1.
          2   -1    0    0  501    0  0.00000000000E+00 -0.00000000000E+00 -0.12888346215E+04  0.12888346215E+04  0.00000000000E+00 0. -1.
         23    2    1    2    0    0  0.67452932495E+01  0.19362097103E+02 -0.11959491567E+04  0.11995001863E+04  0.89921753104E+02 0.  0.
         11    1    3    3    0    0  0.11308044668E+02  0.39022702562E+02 -0.24567710532E+03  0.24901382144E+03  0.00000000000E+00 0.  1.
        -11    1    3    3    0    0 -0.45627514189E+01 -0.19660605459E+02 -0.95027205138E+03  0.95048636483E+03  0.00000000000E+00 0. -1.
         22    1    1    2    0    0 -0.67452932495E+01 -0.19362097103E+02 -0.89956426746E+02  0.92263473260E+02  0.00000000000E+00 0. -1.
<mgrwt>
<rscale>  0 0.63330002E+02</rscale>
<asrwt>0</asrwt>
<pdfrwt beam="1">  1        2 0.19828193E+00 0.92229667E+02</pdfrwt>
<pdfrwt beam="2">  1       -2 0.45062196E-03 0.92229667E+02</pdfrwt>
<totfact> 0.10721692E+05</totfact>
</mgrwt>
</event>
<event>
 6    1  0.1535419E-002  0.9479610E+02  0.7546771E-02  0.1377969E+00
          4   -1    0    0  501    0  0.00000000000E+00  0.00000000000E+00  0.27549863914E+03  0.27549863914E+03  0.00000000000E+00 0. -1.
         -4   -1    0    0    0  501 -0.00000000000E+00 -0.00000000000E+00 -0.12183174809E+02  0.12183174809E+02  0.00000000000E+00 0.  1.
         23    2    1    2    0    0 -0.20200213951E+02 -0.55762337512E+01  0.22047284217E+03  0.23998869809E+03  0.92450841268E+02 0.  0.
         11    1    3    3    0    0 -0.34338805247E+02 -0.38308026332E+02  0.17380584233E+03  0.18125983906E+03  0.00000000000E+00 0. -1.
        -11    1    3    3    0    0  0.14138591296E+02  0.32731792581E+02  0.46666999839E+02  0.58728859033E+02  0.00000000000E+00 0.  1.
         22    1    1    2    0    0  0.20200213951E+02  0.55762337512E+01  0.42842622158E+02  0.47693115854E+02  0.00000000000E+00 0. -1.
<mgrwt>
<rscale>  0 0.65000786E+02</rscale>
<asrwt>0</asrwt>
<pdfrwt beam="1">  1        4 0.42384401E-01 0.94796103E+02</pdfrwt>
<pdfrwt beam="2">  1       -4 0.18743348E-02 0.94796103E+02</pdfrwt>
<totfact> 0.89939209E+03</totfact>
</mgrwt>
</event>
<event>
 6    1  0.1535419E-002  0.9184812E+02  0.7546771E-02  0.1422482E+00
          2   -1    0    0  501    0  0.00000000000E+00  0.00000000000E+00  0.72867176506E+03  0.72867176506E+03  0.00000000000E+00 0. -1.
         -2   -1    0    0    0  501 -0.00000000000E+00 -0.00000000000E+00 -0.38223392321E+01  0.38223392321E+01  0.00000000000E+00 0.  1.
         23    2    1    2    0    0  0.11177584912E+02 -0.21659626901E+01  0.68203408777E+03  0.68819079773E+03  0.91139713674E+02 0.  0.
         13    1    3    3    0    0  0.96515749104E+01 -0.25050237552E+02  0.63779688333E+03  0.63836159948E+03  0.00000000000E+00 0. -1.
        -13    1    3    3    0    0  0.15260100014E+01  0.22884274862E+02  0.44237204435E+02  0.49829198255E+02  0.00000000000E+00 0.  1.
         22    1    1    2    0    0 -0.11177584912E+02  0.21659626901E+01  0.42815338058E+02  0.44303306556E+02  0.00000000000E+00 0.  1.
<mgrwt>
<rscale>  0 0.54499286E+02</rscale>
<asrwt>0</asrwt>
<pdfrwt beam="1">  1        2 0.11210324E+00 0.91848120E+02</pdfrwt>
<pdfrwt beam="2">  1       -2 0.58805277E-03 0.91848120E+02</pdfrwt>
<totfact> 0.15892296E+05</totfact>
</mgrwt>
</event>
<event>
 6    1  0.1535419E-002  0.9919718E+02  0.7546771E-02  0.1338874E+00
          2   -1    0    0  501    0  0.00000000000E+00  0.00000000000E+00  0.33247728031E+03  0.33247728031E+03  0.00000000000E+00 0.  1.
         -2   -1    0    0    0  501 -0.00000000000E+00 -0.00000000000E+00 -0.13696644856E+02  0.13696644856E+02  0.00000000000E+00 0. -1.
         23    2    1    2    0    0  0.10824009661E+02 -0.33641510984E+02  0.24668545064E+03  0.26588304075E+03  0.92688561086E+02 0.  0.
         11    1    3    3    0    0  0.51233329362E+02 -0.27453636898E+02  0.13661352404E+03  0.14846484826E+03  0.00000000000E+00 0. -1.
        -11    1    3    3    0    0 -0.40409319701E+02 -0.61878740865E+01  0.11007192659E+03  0.11741819249E+03  0.00000000000E+00 0.  1.
         22    1    1    2    0    0 -0.10824009661E+02  0.33641510984E+02  0.72095184817E+02  0.80290884416E+02  0.00000000000E+00 0. -1.
<mgrwt>
<rscale>  0 0.76637423E+02</rscale>
<asrwt>0</asrwt>
<pdfrwt beam="1">  1        2 0.51150345E-01 0.99197176E+02</pdfrwt>
<pdfrwt beam="2">  1       -2 0.21071764E-02 0.99197176E+02</pdfrwt>
<totfact> 0.61690670E+04</totfact>
</mgrwt>
</event>
<event>
 6    1  0.1535419E-002  0.9845223E+02  0.7546771E-02  0.1314775E+00
         -1   -1    0    0    0  501 -0.00000000000E+00  0.00000000000E+00  0.15936747357E+02  0.15936747357E+02  0.00000000000E+00 0.  1.
          1   -1    0    0  501    0  0.00000000000E+00 -0.00000000000E+00 -0.10902793785E+04  0.10902793785E+04  0.00000000000E+00 0. -1.
         23    2    1    2    0    0  0.35241075532E+02 -0.42684912989E+02 -0.10315845689E+04  0.10362719546E+04  0.81418093299E+02 0.  0.
         11    1    3    3    0    0  0.14009693632E+02 -0.36960249812E+02 -0.97126928667E+03  0.97207322708E+03  0.00000000000E+00 0. -1.
        -11    1    3    3    0    0  0.21231381900E+02 -0.57246631772E+01 -0.60315282263E+02  0.64198727560E+02  0.00000000000E+00 0.  1.
         22    1    1    2    0    0 -0.35241075532E+02  0.42684912989E+02 -0.42758062186E+02  0.69944171190E+02  0.00000000000E+00 0.  1.
<mgrwt>
<rscale>  0 0.85251908E+02</rscale>
<asrwt>0</asrwt>
<pdfrwt beam="1">  1        1 0.16773536E+00 0.98452228E+02</pdfrwt>
<pdfrwt beam="2">  1       -1 0.24518062E-02 0.98452228E+02</pdfrwt>
<totfact> 0.66723633E+03</totfact>
</mgrwt>
</event>
<event>
 6    1  0.1535419E-002  0.9344859E+02  0.7546771E-02  0.1366257E+00
         -1   -1    0    0    0  501 -0.00000000000E+00  0.00000000000E+00  0.26420092789E+03  0.26420092789E+03  0.00000000000E+00 0.  1.
          1   -1    0    0  501    0  0.00000000000E+00 -0.00000000000E+00 -0.14766036911E+02  0.14766036911E+02  0.00000000000E+00 0. -1.
         23    2    1    2    0    0  0.40905972444E+01  0.26222587900E+02  0.15611452424E+03  0.18194610132E+03  0.89600680829E+02 0.  0.
         11    1    3    3    0    0 -0.12194416509E+02 -0.28623298990E+02  0.28924850718E+02  0.42481102011E+02  0.00000000000E+00 0. -1.
        -11    1    3    3    0    0  0.16285013753E+02  0.54845886890E+02  0.12718967352E+03  0.13946499931E+03  0.00000000000E+00 0.  1.
         22    1    1    2    0    0 -0.40905972444E+01 -0.26222587900E+02  0.93320366741E+02  0.97020863481E+02  0.00000000000E+00 0. -1.
<mgrwt>
<rscale>  0 0.68218738E+02</rscale>
<asrwt>0</asrwt>
<pdfrwt beam="1">  1        1 0.22716982E-02 0.93448591E+02</pdfrwt>
<pdfrwt beam="2">  1       -1 0.40646293E-01 0.93448591E+02</pdfrwt>
<totfact> 0.26714148E+04</totfact>
</mgrwt>
</event>
<event>
 6    1  0.1535419E-002  0.9088870E+02  0.7546771E-02  0.1405657E+00
         -2   -1    0    0    0  501 -0.00000000000E+00  0.00000000000E+00  0.75236644967E+01  0.75236644967E+01  0.00000000000E+00 0.  1.
          2   -1    0    0  501    0  0.00000000000E+00 -0.00000000000E+00 -0.49687047767E+03  0.49687047767E+03  0.00000000000E+00 0. -1.
         23    2    1    2    0    0  0.89601862657E+01  0.12345413984E+02 -0.47443375351E+03  0.48306122082E+03  0.89599455433E+02 0.  0.
         11    1    3    3    0    0  0.29167590363E+02  0.16849814961E+02 -0.44902056169E+03  0.45028227748E+03  0.00000000000E+00 0. -1.
        -11    1    3    3    0    0 -0.20207404097E+02 -0.45044009771E+01 -0.25413191815E+02  0.32778943344E+02  0.00000000000E+00 0.  1.
         22    1    1    2    0    0 -0.89601862657E+01 -0.12345413984E+02 -0.14913059665E+02  0.21332921341E+02  0.00000000000E+00 0.  1.
<mgrwt>
<rscale>  0 0.58174228E+02</rscale>
<asrwt>0</asrwt>
<pdfrwt beam="1">  1        2 0.76441607E-01 0.90888704E+02</pdfrwt>
<pdfrwt beam="2">  1       -2 0.11574869E-02 0.90888704E+02</pdfrwt>
<totfact> 0.93813082E+04</totfact>
</mgrwt>
</event>
<event>
 6    1  0.1535419E-002  0.9812951E+02  0.7546771E-02  0.1339539E+00
         -2   -1    0    0    0  501 -0.00000000000E+00  0.00000000000E+00  0.14921992472E+03  0.14921992472E+03  0.00000000000E+00 0.  1.
          2   -1    0    0  501    0  0.00000000000E+00 -0.00000000000E+00 -0.33313722233E+02  0.33313722233E+02  0.00000000000E+00 0. -1.
         23    2    1    2    0    0 -0.68689253536E+01 -0.35428006549E+02  0.10735646915E+03  0.14544694147E+03  0.91252811084E+02 0.  0.
         13    1    3    3    0    0 -0.12274614676E+02 -0.13645511412E+02 -0.13334835838E+02  0.22686647923E+02  0.00000000000E+00 0. -1.
        -13    1    3    3    0    0  0.54056893220E+01 -0.21782495137E+02  0.12069130499E+03  0.12276029355E+03  0.00000000000E+00 0.  1.
         22    1    1    2    0    0  0.68689253536E+01  0.35428006549E+02  0.85497333344E+01  0.37086705484E+02  0.00000000000E+00 0. -1.
<mgrwt>
<rscale>  0 0.76416948E+02</rscale>
<asrwt>0</asrwt>
<pdfrwt beam="1">  1        2 0.51251881E-02 0.98129513E+02</pdfrwt>
<pdfrwt beam="2">  1       -2 0.22956911E-01 0.98129513E+02</pdfrwt>
<totfact> 0.22333304E+04</totfact>
</mgrwt>
</event>
<event>
 6    1  0.1535419E-002  0.9316440E+02  0.7546771E-02  0.1395935E+00
          1   -1    0    0  501    0  0.00000000000E+00  0.00000000000E+00  0.12382414448E+04  0.12382414448E+04  0.00000000000E+00 0. -1.
         -1   -1    0    0    0  501 -0.00000000000E+00 -0.00000000000E+00 -0.38137852824E+01  0.38137852824E+01  0.00000000000E+00 0.  1.
         23    2    1    2    0    0 -0.16518078519E+02  0.59981840080E-01  0.12025376437E+04  0.12061411155E+04  0.91688360901E+02 0.  0.
         13    1    3    3    0    0 -0.40621236875E+02 -0.40899609031E+01  0.25175136114E+03  0.25504031152E+03  0.00000000000E+00 0.  1.
        -13    1    3    3    0    0  0.24103158356E+02  0.41499427432E+01  0.95078628257E+03  0.95110080402E+03  0.00000000000E+00 0. -1.
         22    1    1    2    0    0  0.16518078519E+02 -0.59981840080E-01  0.31890015827E+02  0.35914114568E+02  0.00000000000E+00 0.  1.
<mgrwt>
<rscale>  0 0.60454426E+02</rscale>
<asrwt>0</asrwt>
<pdfrwt beam="1">  1        1 0.19049836E+00 0.93164403E+02</pdfrwt>
<pdfrwt beam="2">  1       -1 0.58673718E-03 0.93164403E+02</pdfrwt>
<totfact> 0.39974446E+04</totfact>
</mgrwt>
</event>
<event>
 6    1  0.1535419E-002  0.7375079E+02  0.7546771E-02  0.1419699E+00
          2   -1    0    0  501    0  0.00000000000E+00  0.00000000000E+00  0.25804714198E+03  0.25804714198E+03  0.00000000000E+00 0.  1.
         -2   -1    0    0    0  501 -0.00000000000E+00 -0.00000000000E+00 -0.12949569936E+02  0.12949569936E+02  0.00000000000E+00 0. -1.
         23    2    1    2    0    0  0.16531889214E+02 -0.15921500670E+02  0.23429711065E+03  0.24563044473E+03  0.70088385459E+02 0.  0.
         13    1    3    3    0    0  0.57411702993E+01 -0.66433316314E-01  0.22359322598E+03  0.22366693129E+03  0.00000000000E+00 0.  1.
        -13    1    3    3    0    0  0.10790718915E+02 -0.15855067354E+02  0.10703884664E+02  0.21963513435E+02  0.00000000000E+00 0. -1.
         22    1    1    2    0    0 -0.16531889214E+02  0.15921500670E+02  0.10800461398E+02  0.25366267187E+02  0.00000000000E+00 0. -1.
<mgrwt>
<rscale>  0 0.55084636E+02</rscale>
<asrwt>0</asrwt>
<pdfrwt beam="1">  1        2 0.39699557E-01 0.73750792E+02</pdfrwt>
<pdfrwt beam="2">  1       -2 0.19922417E-02 0.73750792E+02</pdfrwt>
<totfact> 0.83466663E+04</totfact>
</mgrwt>
</event>
<event>
 6    1  0.1535419E-002  0.9229282E+02  0.7546771E-02  0.1405075E+00
          2   -1    0    0  501    0  0.00000000000E+00  0.00000000000E+00  0.44714977113E+03  0.44714977113E+03  0.00000000000E+00 0.  1.
         -2   -1    0    0    0  501 -0.00000000000E+00 -0.00000000000E+00 -0.86163332160E+01  0.86163332160E+01  0.00000000000E+00 0. -1.
         23    2    1    2    0    0 -0.72740219789E+01 -0.12777050363E+02  0.42759222471E+03  0.43743922360E+03  0.91114210162E+02 0.  0.
         11    1    3    3    0    0 -0.21041511677E+01 -0.35028871306E+02  0.62856672117E+02  0.71988961006E+02  0.00000000000E+00 0. -1.
        -11    1    3    3    0    0 -0.51698708112E+01  0.22251820943E+02  0.36473555260E+03  0.36545026259E+03  0.00000000000E+00 0.  1.
         22    1    1    2    0    0  0.72740219789E+01  0.12777050363E+02  0.10941213202E+02  0.18326880751E+02  0.00000000000E+00 0. -1.
<mgrwt>
<rscale>  0 0.58307436E+02</rscale>
<asrwt>0</asrwt>
<pdfrwt beam="1">  1        2 0.68792254E-01 0.92292815E+02</pdfrwt>
<pdfrwt beam="2">  1       -2 0.13255901E-02 0.92292815E+02</pdfrwt>
<totfact> 0.86813433E+04</totfact>
</mgrwt>
</event>
<event>
 6    1  0.1535419E-002  0.9793183E+02  0.7546771E-02  0.1362791E+00
         -1   -1    0    0    0  501 -0.00000000000E+00  0.00000000000E+00  0.23248112987E+02  0.23248112987E+02  0.00000000000E+00 0.  1.
          1   -1    0    0  501    0  0.00000000000E+00 -0.00000000000E+00 -0.16334796261E+03  0.16334796261E+03  0.00000000000E+00 0. -1.
         23    2    1    2    0    0  0.24326668760E+02 -0.22735470325E+01 -0.12047717967E+03  0.15525911651E+03  0.94835049469E+02 0.  0.
         11    1    3    3    0    0 -0.12793324440E+02 -0.28321882173E+02 -0.53653061451E+01  0.31537036482E+02  0.00000000000E+00 0.  1.
        -11    1    3    3    0    0  0.37119993200E+02  0.26048335140E+02 -0.11511187353E+03  0.12372208003E+03  0.00000000000E+00 0. -1.
         22    1    1    2    0    0 -0.24326668760E+02  0.22735470325E+01 -0.19622669954E+02  0.31336959093E+02  0.00000000000E+00 0.  1.
<mgrwt>
<rscale>  0 0.69212679E+02</rscale>
<asrwt>0</asrwt>
<pdfrwt beam="1">  1        1 0.25130456E-01 0.97931825E+02</pdfrwt>
<pdfrwt beam="2">  1       -1 0.35766327E-02 0.97931825E+02</pdfrwt>
<totfact> 0.48385548E+04</totfact>
</mgrwt>
</event>
<event>
 6    1  0.1535419E-002  0.9464906E+02  0.7546771E-02  0.1373103E+00
          2   -1    0    0  501    0  0.00000000000E+00  0.00000000000E+00  0.20215366278E+03  0.20215366278E+03  0.00000000000E+00 0. -1.
         -2   -1    0    0    0  501 -0.00000000000E+00 -0.00000000000E+00 -0.79636597710E+02  0.79636597710E+02  0.00000000000E+00 0.  1.
         23    2    1    2    0    0  0.17668530994E+02  0.14417745483E+02  0.18907053376E+03  0.21143819892E+03  0.91860747081E+02 0.  0.
         11    1    3    3    0    0 -0.91355107801E+01 -0.84432841266E+01  0.17171697417E+03  0.17216697077E+03  0.00000000000E+00 0. -1.
        -11    1    3    3    0    0  0.26804041774E+02  0.22861029610E+02  0.17353559585E+02  0.39271228151E+02  0.00000000000E+00 0.  1.
         22    1    1    2    0    0 -0.17668530994E+02 -0.14417745483E+02 -0.66553468690E+02  0.70352061568E+02  0.00000000000E+00 0.  1.
<mgrwt>
<rscale>  0 0.66312089E+02</rscale>
<asrwt>0</asrwt>
<pdfrwt beam="1">  1        2 0.31100563E-01 0.94649064E+02</pdfrwt>
<pdfrwt beam="2">  1       -2 0.12251784E-01 0.94649064E+02</pdfrwt>
<totfact> 0.74298579E+03</totfact>
</mgrwt>
</event>
<event>
 6    1  0.1535419E-002  0.1107493E+03  0.7546771E-02  0.1294437E+00
          2   -1    0    0  501    0  0.00000000000E+00  0.00000000000E+00  0.30407545342E+03  0.30407545342E+03  0.00000000000E+00 0.  1.
         -2   -1    0    0    0  501 -0.00000000000E+00 -0.00000000000E+00 -0.26834168195E+02  0.26834168195E+02  0.00000000000E+00 0. -1.
         23    2    1    2    0    0 -0.55999570503E+02 -0.69058982904E+01  0.23701900742E+03  0.26161694552E+03  0.95298336718E+02 0.  0.
         11    1    3    3    0    0 -0.22747906331E+02  0.44176182079E+02  0.11224360131E+03  0.12275026819E+03  0.00000000000E+00 0. -1.
        -11    1    3    3    0    0 -0.33251664172E+02 -0.51082080370E+02  0.12477540611E+03  0.13886667733E+03  0.00000000000E+00 0.  1.
         22    1    1    2    0    0  0.55999570503E+02  0.69058982904E+01  0.40222277810E+02  0.69292676091E+02  0.00000000000E+00 0. -1.
<mgrwt>
<rscale>  0 0.93566721E+02</rscale>
<asrwt>0</asrwt>
<pdfrwt beam="1">  1        2 0.46780836E-01 0.11074934E+03</pdfrwt>
<pdfrwt beam="2">  1       -2 0.41283338E-02 0.11074934E+03</pdfrwt>
<totfact> 0.25724174E+04</totfact>
</mgrwt>
</event>
<event>
 6    1  0.1535419E-002  0.9257100E+02  0.7546771E-02  0.1424056E+00
         -2   -1    0    0    0  501 -0.00000000000E+00  0.00000000000E+00  0.71232658462E+02  0.71232658462E+02  0.00000000000E+00 0.  1.
          2   -1    0    0  501    0  0.00000000000E+00 -0.00000000000E+00 -0.39348833835E+02  0.39348833835E+02  0.00000000000E+00 0. -1.
         23    2    1    2    0    0 -0.96726066788E+01 -0.49288875306E+01  0.20426501196E+02  0.94797845302E+02  0.91932237385E+02 0.  0.
         13    1    3    3    0    0 -0.34721274859E+02 -0.45914735537E+01 -0.24925191483E+02  0.42987367071E+02  0.00000000000E+00 0. -1.
        -13    1    3    3    0    0  0.25048668180E+02 -0.33741397692E+00  0.45351692678E+02  0.51810478232E+02  0.00000000000E+00 0.  1.
         22    1    1    2    0    0  0.96726066788E+01  0.49288875306E+01  0.11457323432E+02  0.15783646995E+02  0.00000000000E+00 0.  1.
<mgrwt>
<rscale>  0 0.54171879E+02</rscale>
<asrwt>0</asrwt>
<pdfrwt beam="1">  1        2 0.60536668E-02 0.92570997E+02</pdfrwt>
<pdfrwt beam="2">  1       -2 0.10958870E-01 0.92570997E+02</pdfrwt>
<totfact> 0.59908461E+04</totfact>
</mgrwt>
</event>
<event>
 6    1  0.1535419E-002  0.1616622E+03  0.7546771E-02  0.1195452E+00
          2   -1    0    0  501    0  0.00000000000E+00  0.00000000000E+00  0.48385823650E+02  0.48385823650E+02  0.00000000000E+00 0. -1.
         -2   -1    0    0    0  501 -0.00000000000E+00 -0.00000000000E+00 -0.46274226717E+03  0.46274226717E+03  0.00000000000E+00 0.  1.
         23    2    1    2    0    0  0.49083484740E+02 -0.12434329896E+03 -0.18522499073E+03  0.24585150473E+03  0.90907759372E+02 0.  0.
         11    1    3    3    0    0 -0.14967585435E+02  0.60277246347E+01 -0.23048059915E+02  0.28134945244E+02  0.00000000000E+00 0.  1.
        -11    1    3    3    0    0  0.64051070175E+02 -0.13037102360E+03 -0.16217693082E+03  0.21771655948E+03  0.00000000000E+00 0. -1.
         22    1    1    2    0    0 -0.49083484740E+02  0.12434329896E+03 -0.22913145279E+03  0.26527658609E+03  0.00000000000E+00 0.  1.
<mgrwt>
<rscale>  0 0.15416056E+03</rscale>
<asrwt>0</asrwt>
<pdfrwt beam="1">  1        2 0.74439731E-02 0.16166219E+03</pdfrwt>
<pdfrwt beam="2">  1       -2 0.71191115E-01 0.16166219E+03</pdfrwt>
<totfact> 0.16734088E+03</totfact>
</mgrwt>
</event>
<event>
 6    1  0.1535419E-002  0.9352410E+02  0.7546771E-02  0.1419515E+00
          2   -1    0    0  501    0  0.00000000000E+00  0.00000000000E+00  0.23182481601E+03  0.23182481601E+03  0.00000000000E+00 0. -1.
         -2   -1    0    0    0  501 -0.00000000000E+00 -0.00000000000E+00 -0.11852086028E+02  0.11852086028E+02  0.00000000000E+00 0.  1.
         23    2    1    2    0    0  0.11222936134E+02  0.12015856966E+01  0.19462489089E+03  0.21592963099E+03  0.92840504547E+02 0.  0.
         13    1    3    3    0    0  0.33225696021E+02  0.85487446058E+01  0.18896224413E+03  0.19205144524E+03  0.00000000000E+00 0. -1.
        -13    1    3    3    0    0 -0.22002759887E+02 -0.73471589092E+01  0.56626467541E+01  0.23878185755E+02  0.00000000000E+00 0.  1.
         22    1    1    2    0    0 -0.11222936134E+02 -0.12015856966E+01  0.25347839095E+02  0.27747271045E+02  0.00000000000E+00 0. -1.
<mgrwt>
<rscale>  0 0.55123657E+02</rscale>
<asrwt>0</asrwt>
<pdfrwt beam="1">  1        2 0.35665353E-01 0.93524101E+02</pdfrwt>
<pdfrwt beam="2">  1       -2 0.18233980E-02 0.93524101E+02</pdfrwt>
<totfact> 0.10998434E+05</totfact>
</mgrwt>
</event>
<event>
 6    1  0.1535419E-002  0.9387549E+02  0.7546771E-02  0.1393210E+00
          2   -1    0    0  501    0  0.00000000000E+00  0.00000000000E+00  0.58384631158E+03  0.58384631158E+03  0.00000000000E+00 0. -1.
         -2   -1    0    0    0  501 -0.00000000000E+00 -0.00000000000E+00 -0.56764263331E+01  0.56764263331E+01  0.00000000000E+00 0.  1.
         23    2    1    2    0    0 -0.13439403209E+02 -0.10185864583E+02  0.53504635188E+03  0.54321929823E+03  0.92348459218E+02 0.  0.
         11    1    3    3    0    0  0.31617782368E+02 -0.28299747752E+02  0.18396827708E+03  0.18879853510E+03  0.00000000000E+00 0.  1.
        -11    1    3    3    0    0 -0.45057185577E+02  0.18113883169E+02  0.35107807480E+03  0.35442076313E+03  0.00000000000E+00 0. -1.
         22    1    1    2    0    0  0.13439403209E+02  0.10185864583E+02  0.43123533372E+02  0.46303439682E+02  0.00000000000E+00 0. -1.
<mgrwt>
<rscale>  0 0.61115239E+02</rscale>
<asrwt>0</asrwt>
<pdfrwt beam="1">  1        2 0.89822462E-01 0.93875488E+02</pdfrwt>
<pdfrwt beam="2">  1       -2 0.87329682E-03 0.93875488E+02</pdfrwt>
<totfact> 0.11770925E+05</totfact>
</mgrwt>
</event>
<event>
 6    1  0.1535419E-002  0.9026855E+02  0.7546771E-02  0.1426775E+00
          2   -1    0    0  501    0  0.00000000000E+00  0.00000000000E+00  0.19335255259E+04  0.19335255259E+04  0.00000000000E+00 0. -1.
         -2   -1    0    0    0  501 -0.00000000000E+00 -0.00000000000E+00 -0.19654861219E+01  0.19654861219E+01  0.00000000000E+00 0.  1.
         23    2    1    2    0    0  0.41570847139E+01 -0.10434725948E+02  0.18971040102E+04  0.18992503880E+04  0.89566990216E+02 0.  0.
         11    1    3    3    0    0  0.17249334948E+01 -0.12846223229E+02  0.18953647575E+04  0.18954090759E+04  0.00000000000E+00 0. -1.
        -11    1    3    3    0    0  0.24321512190E+01  0.24114972808E+01  0.17392527085E+01  0.38413121029E+01  0.00000000000E+00 0.  1.
         22    1    1    2    0    0 -0.41570847139E+01  0.10434725948E+02  0.34456029522E+02  0.36240624020E+02  0.00000000000E+00 0.  1.
<mgrwt>
<rscale>  0 0.53612942E+02</rscale>
<asrwt>0</asrwt>
<pdfrwt beam="1">  1        2 0.29746394E+00 0.90268547E+02</pdfrwt>
<pdfrwt beam="2">  1       -2 0.30238403E-03 0.90268547E+02</pdfrwt>
<totfact> 0.87688856E+04</totfact>
</mgrwt>
</event>
<event>
 6    1  0.1535419E-002  0.9372449E+02  0.7546771E-02  0.1383187E+00
         -2   -1    0    0    0  501 -0.00000000000E+00  0.00000000000E+00  0.12207731691E+03  0.12207731691E+03  0.00000000000E+00 0.  1.
          2   -1    0    0  501    0  0.00000000000E+00 -0.00000000000E+00 -0.28520345108E+02  0.28520345108E+02  0.00000000000E+00 0. -1.
         23    2    1    2    0    0  0.19821713125E+02 -0.19257355730E+01  0.59107532996E+02  0.11080604729E+03  0.91584228392E+02 0.  0.
         13    1    3    3    0    0  0.56525831397E+02  0.30908843308E+01  0.33642082656E+02  0.65852205024E+02  0.00000000000E+00 0. -1.
        -13    1    3    3    0    0 -0.36704118272E+02 -0.50166199038E+01  0.25465450340E+02  0.44953842265E+02  0.00000000000E+00 0.  1.
         22    1    1    2    0    0 -0.19821713125E+02  0.19257355730E+01  0.34449438804E+02  0.39791614727E+02  0.00000000000E+00 0. -1.
<mgrwt>
<rscale>  0 0.63633395E+02</rscale>
<asrwt>0</asrwt>
<pdfrwt beam="1">  1        2 0.43877455E-02 0.93724488E+02</pdfrwt>
<pdfrwt beam="2">  1       -2 0.18781125E-01 0.93724488E+02</pdfrwt>
<totfact> 0.38104481E+04</totfact>
</mgrwt>
</event>
<event>
 6    1  0.1535419E-002  0.8846923E+02  0.7546771E-02  0.1437280E+00
         -2   -1    0    0    0  501 -0.00000000000E+00  0.00000000000E+00  0.65881393685E+02  0.65881393685E+02  0.00000000000E+00 0.  1.
          2   -1    0    0  501    0  0.00000000000E+00 -0.00000000000E+00 -0.37977793537E+02  0.37977793537E+02  0.00000000000E+00 0. -1.
         23    2    1    2    0    0  0.27069352001E+01 -0.98130810739E+01  0.30092123854E+02  0.93446997522E+02  0.87881632720E+02 0.  0.
         13    1    3    3    0    0 -0.12856933475E+02 -0.38422293443E+02 -0.10060180991E+02  0.41746623976E+02  0.00000000000E+00 0. -1.
        -13    1    3    3    0    0  0.15563868675E+02  0.28609212369E+02  0.40152304845E+02  0.51700373547E+02  0.00000000000E+00 0.  1.
         22    1    1    2    0    0 -0.27069352001E+01  0.98130810739E+01 -0.21885237066E+01  0.10412189700E+02  0.00000000000E+00 0. -1.
<mgrwt>
<rscale>  0 0.51526041E+02</rscale>
<asrwt>0</asrwt>
<pdfrwt beam="1">  1        2 0.58427375E-02 0.88469234E+02</pdfrwt>
<pdfrwt beam="2">  1       -2 0.10135599E-01 0.88469234E+02</pdfrwt>
<totfact> 0.70323239E+04</totfact>
</mgrwt>
</event>
<event>
 6    1  0.1535419E-002  0.9498941E+02  0.7546771E-02  0.1371653E+00
          2   -1    0    0  501    0  0.00000000000E+00  0.00000000000E+00  0.19606669668E+04  0.19606669668E+04  0.00000000000E+00 0.  1.
         -2   -1    0    0    0  501 -0.00000000000E+00 -0.00000000000E+00 -0.26347010716E+01  0.26347010716E+01  0.00000000000E+00 0. -1.
         23    2    1    2    0    0  0.13700428965E+01  0.23065618241E+02  0.18658937583E+04  0.18683100666E+04  0.92136246432E+02 0.  0.
         11    1    3    3    0    0 -0.35562906391E+02 -0.12537965192E+02  0.11307564624E+04  0.11313850353E+04  0.00000000000E+00 0. -1.
        -11    1    3    3    0    0  0.36932949288E+02  0.35603583432E+02  0.73513729598E+03  0.73692503135E+03  0.00000000000E+00 0.  1.
         22    1    1    2    0    0 -0.13700428965E+01 -0.23065618241E+02  0.92138507423E+02  0.94991601274E+02  0.00000000000E+00 0. -1.
<mgrwt>
<rscale>  0 0.66709679E+02</rscale>
<asrwt>0</asrwt>
<pdfrwt beam="1">  1        2 0.30163991E+00 0.94989408E+02</pdfrwt>
<pdfrwt beam="2">  1       -2 0.40534019E-03 0.94989408E+02</pdfrwt>
<totfact> 0.56727158E+04</totfact>
</mgrwt>
</event>
<event>
 6    1  0.1535419E-002  0.9119741E+02  0.7546771E-02  0.1379510E+00
          2   -1    0    0  501    0  0.00000000000E+00  0.00000000000E+00  0.70478662057E+03  0.70478662057E+03  0.00000000000E+00 0. -1.
         -2   -1    0    0    0  501 -0.00000000000E+00 -0.00000000000E+00 -0.47148440915E+01  0.47148440915E+01  0.00000000000E+00 0.  1.
         23    2    1    2    0    0  0.22900033915E+02  0.15201117489E+01  0.59533944582E+03  0.60228400630E+03  0.88262371362E+02 0.  0.
         13    1    3    3    0    0  0.15513802688E+02  0.19711108330E+02  0.56837946549E+03  0.56893270485E+03  0.00000000000E+00 0. -1.
        -13    1    3    3    0    0  0.73862312265E+01 -0.18190996581E+02  0.26959980333E+02  0.33351301443E+02  0.00000000000E+00 0.  1.
         22    1    1    2    0    0 -0.22900033915E+02 -0.15201117489E+01  0.10473233066E+03  0.10721745837E+03  0.00000000000E+00 0.  1.
<mgrwt>
<rscale>  0 0.64592874E+02</rscale>
<asrwt>0</asrwt>
<pdfrwt beam="1">  1        2 0.10842863E+00 0.91197415E+02</pdfrwt>
<pdfrwt beam="2">  1       -2 0.72536119E-03 0.91197415E+02</pdfrwt>
<totfact> 0.12290433E+05</totfact>
</mgrwt>
</event>
<event>
 6    1  0.1535419E-002  0.9120223E+02  0.7546771E-02  0.1425255E+00
          2   -1    0    0  501    0  0.00000000000E+00  0.00000000000E+00  0.20594817658E+03  0.20594817658E+03  0.00000000000E+00 0. -1.
         -2   -1    0    0    0  501 -0.00000000000E+00 -0.00000000000E+00 -0.15676735179E+02  0.15676735179E+02  0.00000000000E+00 0.  1.
         23    2    1    2    0    0  0.43860107091E+00  0.11137499318E+02  0.18967542331E+03  0.21046285551E+03  0.90518567615E+02 0.  0.
         11    1    3    3    0    0 -0.32672179669E+02  0.30291427564E+02  0.56789071766E+02  0.72180610833E+02  0.00000000000E+00 0.  1.
        -11    1    3    3    0    0  0.33110780740E+02 -0.19153928246E+02  0.13288635154E+03  0.13828224468E+03  0.00000000000E+00 0. -1.
         22    1    1    2    0    0 -0.43860107091E+00 -0.11137499318E+02  0.59601809030E+00  0.11162056240E+02  0.00000000000E+00 0. -1.
<mgrwt>
<rscale>  0 0.53924379E+02</rscale>
<asrwt>0</asrwt>
<pdfrwt beam="1">  1        2 0.31684333E-01 0.91202233E+02</pdfrwt>
<pdfrwt beam="2">  1       -2 0.24118056E-02 0.91202233E+02</pdfrwt>
<totfact> 0.83072765E+04</totfact>
</mgrwt>
</event>
<event>
 6    1  0.1535419E-002  0.9193115E+02  0.7546771E-02  0.1393857E+00
          2   -1    0    0  501    0  0.00000000000E+00  0.00000000000E+00  0.77717687512E+03  0.77717687512E+03  0.00000000000E+00 0.  1.
         -2   -1    0    0    0  501 -0.00000000000E+00 -0.00000000000E+00 -0.49268291641E+01  0.49268291641E+01  0.00000000000E+00 0. -1.
         23    2    1    2    0    0 -0.92973906788E+01 -0.15145307096E+02  0.73613368581E+03  0.74185183140E+03  0.90197087359E+02 0.  0.
         11    1    3    3    0    0 -0.38754142612E+02  0.44355825021E+01  0.16201507395E+03  0.16664465832E+03  0.00000000000E+00 0. -1.
        -11    1    3    3    0    0  0.29456751934E+02 -0.19580889599E+02  0.57411861186E+03  0.57520717307E+03  0.00000000000E+00 0.  1.
         22    1    1    2    0    0  0.92973906788E+01  0.15145307096E+02  0.36116360152E+02  0.40251872889E+02  0.00000000000E+00 0. -1.
<mgrwt>
<rscale>  0 0.60957519E+02</rscale>
<asrwt>0</asrwt>
<pdfrwt beam="1">  1        2 0.11956558E+00 0.91931150E+02</pdfrwt>
<pdfrwt beam="2">  1       -2 0.75797433E-03 0.91931150E+02</pdfrwt>
<totfact> 0.10296021E+05</totfact>
</mgrwt>
</event>
<event>
 6    1  0.1535419E-002  0.1285556E+03  0.7546771E-02  0.1246596E+00
         -2   -1    0    0    0  501 -0.00000000000E+00  0.00000000000E+00  0.71931971347E+02  0.71931971347E+02  0.00000000000E+00 0.  1.
          2   -1    0    0  501    0  0.00000000000E+00 -0.00000000000E+00 -0.19298239619E+03  0.19298239619E+03  0.00000000000E+00 0. -1.
         23    2    1    2    0    0  0.75315777073E+02 -0.50995464885E+02 -0.11706673516E+03  0.17387111684E+03  0.90849001501E+02 0.  0.
         11    1    3    3    0    0  0.90047667299E+02 -0.56574321136E+02 -0.11701334138E+03  0.15811817814E+03  0.00000000000E+00 0. -1.
        -11    1    3    3    0    0 -0.14731890226E+02  0.55788562512E+01 -0.53393783813E-01  0.15752938697E+02  0.00000000000E+00 0.  1.
         22    1    1    2    0    0 -0.75315777073E+02  0.50995464885E+02 -0.39836896825E+01  0.91043250702E+02  0.00000000000E+00 0.  1.
<mgrwt>
<rscale>  0 0.11790336E+03</rscale>
<asrwt>0</asrwt>
<pdfrwt beam="1">  1        2 0.29689600E-01 0.12855561E+03</pdfrwt>
<pdfrwt beam="2">  1       -2 0.11066457E-01 0.12855561E+03</pdfrwt>
<totfact> 0.94009128E+03</totfact>
</mgrwt>
</event>
<event>
 6    1  0.1535419E-002  0.9320449E+02  0.7546771E-02  0.1410122E+00
          2   -1    0    0  501    0  0.00000000000E+00  0.00000000000E+00  0.80536884314E+03  0.80536884314E+03  0.00000000000E+00 0. -1.
         -2   -1    0    0    0  501 -0.00000000000E+00 -0.00000000000E+00 -0.35390533209E+01  0.35390533209E+01  0.00000000000E+00 0.  1.
         23    2    1    2    0    0  0.12552768533E+02  0.40515771886E+01  0.72286435648E+03  0.72884837524E+03  0.92266402046E+02 0.  0.
         11    1    3    3    0    0  0.33930721716E+02  0.19358586220E+02  0.65352209451E+03  0.65468861052E+03  0.00000000000E+00 0. -1.
        -11    1    3    3    0    0 -0.21377953183E+02 -0.15307009031E+02  0.69342261966E+02  0.74159764714E+02  0.00000000000E+00 0.  1.
         22    1    1    2    0    0 -0.12552768533E+02 -0.40515771886E+01  0.78965433345E+02  0.80059521226E+02  0.00000000000E+00 0.  1.
<mgrwt>
<rscale>  0 0.57166591E+02</rscale>
<asrwt>0</asrwt>
<pdfrwt beam="1">  1        2 0.12390275E+00 0.93204486E+02</pdfrwt>
<pdfrwt beam="2">  1       -2 0.54447038E-03 0.93204486E+02</pdfrwt>
<totfact> 0.15731751E+05</totfact>
</mgrwt>
</event>
<event>
 6    1  0.1535419E-002  0.9386682E+02  0.7546771E-02  0.1416087E+00
         -2   -1    0    0    0  501 -0.00000000000E+00  0.00000000000E+00  0.21064843180E+02  0.21064843180E+02  0.00000000000E+00 0.  1.
          2   -1    0    0  501    0  0.00000000000E+00 -0.00000000000E+00 -0.13263954657E+03  0.13263954657E+03  0.00000000000E+00 0. -1.
         23    2    1    2    0    0 -0.87370551883E+01  0.78869192959E+01 -0.10096156225E+03  0.13785578116E+03  0.93125934724E+02 0.  0.
         13    1    3    3    0    0 -0.43265763185E+02 -0.14211328714E+02 -0.79409560259E+02  0.91541063945E+02  0.00000000000E+00 0.  1.
        -13    1    3    3    0    0  0.34528707996E+02  0.22098248010E+02 -0.21552001994E+02  0.46314717218E+02  0.00000000000E+00 0. -1.
         22    1    1    2    0    0  0.87370551883E+01 -0.78869192959E+01 -0.10613141135E+02  0.15848608585E+02  0.00000000000E+00 0.  1.
<mgrwt>
<rscale>  0 0.55857413E+02</rscale>
<asrwt>0</asrwt>
<pdfrwt beam="1">  1        2 0.20406084E-01 0.93866817E+02</pdfrwt>
<pdfrwt beam="2">  1       -2 0.32407451E-02 0.93866817E+02</pdfrwt>
<totfact> 0.87711109E+04</totfact>
</mgrwt>
</event>
<event>
 6    1  0.1535419E-002  0.9237752E+02  0.7546771E-02  0.1389512E+00
         -2   -1    0    0    0  501 -0.00000000000E+00  0.00000000000E+00  0.36128622735E+01  0.36128622735E+01  0.00000000000E+00 0.  1.
          2   -1    0    0  501    0  0.00000000000E+00 -0.00000000000E+00 -0.90935252693E+03  0.90935252693E+03  0.00000000000E+00 0. -1.
         23    2    1    2    0    0  0.89774007308E+00  0.18756792684E+02 -0.82037929417E+03  0.82556392435E+03  0.90448790347E+02 0.  0.
         13    1    3    3    0    0  0.12816980547E+02  0.49836417530E+02 -0.64529606957E+03  0.64734454574E+03  0.00000000000E+00 0. -1.
        -13    1    3    3    0    0 -0.11919240473E+02 -0.31079624846E+02 -0.17508322461E+03  0.17821937861E+03  0.00000000000E+00 0.  1.
         22    1    1    2    0    0 -0.89774007308E+00 -0.18756792684E+02 -0.85360370480E+02  0.87401464847E+02  0.00000000000E+00 0.  1.
<mgrwt>
<rscale>  0 0.62028117E+02</rscale>
<asrwt>0</asrwt>
<pdfrwt beam="1">  1        2 0.13990053E+00 0.92377524E+02</pdfrwt>
<pdfrwt beam="2">  1       -2 0.55582441E-03 0.92377524E+02</pdfrwt>
<totfact> 0.13102712E+05</totfact>
</mgrwt>
</event>
<event>
 6    1  0.1535419E-002  0.9428663E+02  0.7546771E-02  0.1392204E+00
          2   -1    0    0  501    0  0.00000000000E+00  0.00000000000E+00  0.62083865103E+03  0.62083865103E+03  0.00000000000E+00 0. -1.
         -2   -1    0    0    0  501 -0.00000000000E+00 -0.00000000000E+00 -0.53773975357E+01  0.53773975357E+01  0.00000000000E+00 0.  1.
         23    2    1    2    0    0  0.96049770815E+01 -0.13922046057E+02  0.56927212178E+03  0.57702748445E+03  0.92757157270E+02 0.  0.
         13    1    3    3    0    0  0.49429898047E+02 -0.18423935929E+02  0.27225080840E+03  0.27731436838E+03  0.00000000000E+00 0. -1.
        -13    1    3    3    0    0 -0.39824920966E+02  0.45018898722E+01  0.29702131338E+03  0.29971311607E+03  0.00000000000E+00 0.  1.
         22    1    1    2    0    0 -0.96049770815E+01  0.13922046057E+02  0.46189131714E+02  0.49188564114E+02  0.00000000000E+00 0. -1.
<mgrwt>
<rscale>  0 0.61361834E+02</rscale>
<asrwt>0</asrwt>
<pdfrwt beam="1">  1        2 0.95513582E-01 0.94286633E+02</pdfrwt>
<pdfrwt beam="2">  1       -2 0.82729242E-03 0.94286633E+02</pdfrwt>
<totfact> 0.11867746E+05</totfact>
</mgrwt>
</event>
<event>
 6    1  0.1535419E-002  0.9172849E+02  0.7546771E-02  0.1399498E+00
         -2   -1    0    0    0  501 -0.00000000000E+00  0.00000000000E+00  0.55018810835E+01  0.55018810835E+01  0.00000000000E+00 0.  1.
          2   -1    0    0  501    0  0.00000000000E+00 -0.00000000000E+00 -0.54066044188E+03  0.54066044188E+03  0.00000000000E+00 0. -1.
         23    2    1    2    0    0 -0.12519763778E+02 -0.10521181163E+02 -0.47743352438E+03  0.48616549332E+03  0.90258943901E+02 0.  0.
         11    1    3    3    0    0 -0.35738436832E+02 -0.35090921506E+02 -0.18071172286E+03  0.18752422622E+03  0.00000000000E+00 0.  1.
        -11    1    3    3    0    0  0.23218673054E+02  0.24569740343E+02 -0.29672180152E+03  0.29864126710E+03  0.00000000000E+00 0. -1.
         22    1    1    2    0    0  0.12519763778E+02  0.10521181163E+02 -0.57725036417E+02  0.59996829645E+02  0.00000000000E+00 0. -1.
<mgrwt>
<rscale>  0 0.59604828E+02</rscale>
<asrwt>0</asrwt>
<pdfrwt beam="1">  1        2 0.83178535E-01 0.91728494E+02</pdfrwt>
<pdfrwt beam="2">  1       -2 0.84644319E-03 0.91728494E+02</pdfrwt>
<totfact> 0.13345637E+05</totfact>
</mgrwt>
</event>
<event>
 6    1  0.1535419E-002  0.9560501E+02  0.7546771E-02  0.1365427E+00
         -2   -1    0    0    0  501 -0.00000000000E+00  0.00000000000E+00  0.17317512675E+02  0.17317512675E+02  0.00000000000E+00 0.  1.
          2   -1    0    0  501    0  0.00000000000E+00 -0.00000000000E+00 -0.21493851900E+03  0.21493851900E+03  0.00000000000E+00 0. -1.
         23    2    1    2    0    0  0.25126290000E+02 -0.38382909691E+00 -0.16900413509E+03  0.19417187364E+03  0.92243379499E+02 0.  0.
         11    1    3    3    0    0 -0.35122906159E+02  0.26011108854E+01 -0.65723819517E+02  0.74565439493E+02  0.00000000000E+00 0.  1.
        -11    1    3    3    0    0  0.60249196159E+02 -0.29849399824E+01 -0.10328031557E+03  0.11960643415E+03  0.00000000000E+00 0. -1.
         22    1    1    2    0    0 -0.25126290000E+02  0.38382909691E+00 -0.28616871239E+02  0.38084158038E+02  0.00000000000E+00 0.  1.
<mgrwt>
<rscale>  0 0.68455014E+02</rscale>
<asrwt>0</asrwt>
<pdfrwt beam="1">  1        2 0.33067462E-01 0.95605015E+02</pdfrwt>
<pdfrwt beam="2">  1       -2 0.26642329E-02 0.95605015E+02</pdfrwt>
<totfact> 0.69194162E+04</totfact>
</mgrwt>
</event>
<event>
 6    1  0.1535419E-002  0.9863775E+02  0.7546771E-02  0.1325685E+00
         -2   -1    0    0    0  501 -0.00000000000E+00  0.00000000000E+00  0.28067355171E+02  0.28067355171E+02  0.00000000000E+00 0. -1.
          2   -1    0    0  501    0  0.00000000000E+00 -0.00000000000E+00 -0.18726976037E+03  0.18726976037E+03  0.00000000000E+00 0.  1.
         23    2    1    2    0    0 -0.39453038598E+02 -0.22252555482E+02 -0.12078291396E+03  0.15594203336E+03  0.87622411427E+02 0.  0.
         13    1    3    3    0    0 -0.98305285258E+01 -0.23022543628E+02 -0.12366162084E+03  0.12617001734E+03  0.00000000000E+00 0.  1.
        -13    1    3    3    0    0 -0.29622510072E+02  0.76998814587E+00  0.28787068824E+01  0.29772016023E+02  0.00000000000E+00 0. -1.
         22    1    1    2    0    0  0.39453038598E+02  0.22252555482E+02 -0.38419491246E+02  0.59395082185E+02  0.00000000000E+00 0. -1.
<mgrwt>
<rscale>  0 0.81198328E+02</rscale>
<asrwt>0</asrwt>
<pdfrwt beam="1">  1        2 0.28810733E-01 0.98637749E+02</pdfrwt>
<pdfrwt beam="2">  1       -2 0.43180545E-02 0.98637749E+02</pdfrwt>
<totfact> 0.39709563E+04</totfact>
</mgrwt>
</event>
<event>
 6    1  0.1535419E-002  0.9114349E+02  0.7546771E-02  0.1415201E+00
         -1   -1    0    0    0  501 -0.00000000000E+00  0.00000000000E+00  0.20403757443E+02  0.20403757443E+02  0.00000000000E+00 0.  1.
          1   -1    0    0  501    0  0.00000000000E+00 -0.00000000000E+00 -0.16200011407E+03  0.16200011407E+03  0.00000000000E+00 0. -1.
         23    2    1    2    0    0  0.12241664436E+02 -0.44772425631E+01 -0.14269899693E+03  0.16932259234E+03  0.90206610081E+02 0.  0.
         13    1    3    3    0    0  0.93686530022E+01 -0.47183727018E+02 -0.81562742372E+02  0.94691904076E+02  0.00000000000E+00 0. -1.
        -13    1    3    3    0    0  0.28730114336E+01  0.42706484454E+02 -0.61136254562E+02  0.74630688266E+02  0.00000000000E+00 0.  1.
         22    1    1    2    0    0 -0.12241664436E+02  0.44772425631E+01  0.11026403061E+01  0.13081279172E+02  0.00000000000E+00 0. -1.
<mgrwt>
<rscale>  0 0.56049239E+02</rscale>
<asrwt>0</asrwt>
<pdfrwt beam="1">  1        1 0.24923096E-01 0.91143494E+02</pdfrwt>
<pdfrwt beam="2">  1       -1 0.31390395E-02 0.91143494E+02</pdfrwt>
<totfact> 0.58469560E+04</totfact>
</mgrwt>
</event>
<event>
 6    1  0.1535419E-002  0.9281150E+02  0.7546771E-02  0.1409300E+00
         -2   -1    0    0    0  501 -0.00000000000E+00  0.00000000000E+00  0.17561083216E+03  0.17561083216E+03  0.00000000000E+00 0.  1.
          2   -1    0    0  501    0  0.00000000000E+00 -0.00000000000E+00 -0.18361742872E+02  0.18361742872E+02  0.00000000000E+00 0. -1.
         23    2    1    2    0    0  0.13475095166E+02 -0.12312578024E+01  0.10564083141E+03  0.14061991374E+03  0.91819827348E+02 0.  0.
         11    1    3    3    0    0 -0.18537338682E+02 -0.17527692740E+02 -0.34712291431E+01  0.25746890491E+02  0.00000000000E+00 0. -1.
        -11    1    3    3    0    0  0.32012433849E+02  0.16296434937E+02  0.10911206055E+03  0.11487302325E+03  0.00000000000E+00 0.  1.
         22    1    1    2    0    0 -0.13475095166E+02  0.12312578024E+01  0.51608257878E+02  0.53352661290E+02  0.00000000000E+00 0. -1.
<mgrwt>
<rscale>  0 0.57350297E+02</rscale>
<asrwt>0</asrwt>
<pdfrwt beam="1">  1        2 0.28248836E-02 0.92811502E+02</pdfrwt>
<pdfrwt beam="2">  1       -2 0.27017050E-01 0.92811502E+02</pdfrwt>
<totfact> 0.36566565E+04</totfact>
</mgrwt>
</event>
<event>
 6    1  0.1535419E-002  0.9533348E+02  0.7546771E-02  0.1356674E+00
          2   -1    0    0  501    0  0.00000000000E+00  0.00000000000E+00  0.16633755098E+03  0.16633755098E+03  0.00000000000E+00 0. -1.
         -2   -1    0    0    0  501 -0.00000000000E+00 -0.00000000000E+00 -0.24367877140E+02  0.24367877140E+02  0.00000000000E+00 0.  1.
         23    2    1    2    0    0  0.63811449525E+01  0.28652185121E+02  0.90472703577E+02  0.13142976136E+03  0.90701738443E+02 0.  0.
         11    1    3    3    0    0  0.41364939952E+02  0.29898355012E+02  0.24212376256E+02  0.56490787334E+02  0.00000000000E+00 0.  1.
        -11    1    3    3    0    0 -0.34983794999E+02 -0.12461698914E+01  0.66260327321E+02  0.74938974030E+02  0.00000000000E+00 0. -1.
         22    1    1    2    0    0 -0.63811449525E+01 -0.28652185121E+02  0.51496970267E+02  0.59275666760E+02  0.00000000000E+00 0. -1.
<mgrwt>
<rscale>  0 0.71015229E+02</rscale>
<asrwt>0</asrwt>
<pdfrwt beam="1">  1        2 0.25590392E-01 0.95333478E+02</pdfrwt>
<pdfrwt beam="2">  1       -2 0.37489043E-02 0.95333478E+02</pdfrwt>
<totfact> 0.55350183E+04</totfact>
</mgrwt>
</event>
<event>
 6    1  0.1535419E-002  0.8650375E+02  0.7546771E-02  0.1378646E+00
          2   -1    0    0  501    0  0.00000000000E+00  0.00000000000E+00  0.98890923361E+03  0.98890923361E+03  0.00000000000E+00 0.  1.
         -2   -1    0    0    0  501 -0.00000000000E+00 -0.00000000000E+00 -0.16982535176E+02  0.16982535176E+02  0.00000000000E+00 0. -1.
         23    2    1    2    0    0  0.21764996971E+02  0.16437376413E+02  0.97465031194E+03  0.97848154247E+03  0.82091387832E+02 0.  0.
         11    1    3    3    0    0 -0.30251977397E+02  0.13834171559E+02  0.46056185510E+03  0.46176161470E+03  0.00000000000E+00 0. -1.
        -11    1    3    3    0    0  0.52016974367E+02  0.26032048538E+01  0.51408845684E+03  0.51671992777E+03  0.00000000000E+00 0.  1.
         22    1    1    2    0    0 -0.21764996971E+02 -0.16437376413E+02 -0.27236134996E+01  0.27410226321E+02  0.00000000000E+00 0. -1.
<mgrwt>
<rscale>  0 0.64820995E+02</rscale>
<asrwt>0</asrwt>
<pdfrwt beam="1">  1        2 0.15213984E+00 0.86503748E+02</pdfrwt>
<pdfrwt beam="2">  1       -2 0.26126985E-02 0.86503748E+02</pdfrwt>
<totfact> 0.12917436E+04</totfact>
</mgrwt>
</event>
<event>
 6    1  0.1535419E-002  0.9406271E+02  0.7546771E-02  0.1387029E+00
          2   -1    0    0  501    0  0.00000000000E+00  0.00000000000E+00  0.85854752648E+02  0.85854752648E+02  0.00000000000E+00 0. -1.
         -2   -1    0    0    0  501 -0.00000000000E+00 -0.00000000000E+00 -0.60115848917E+02  0.60115848917E+02  0.00000000000E+00 0.  1.
         23    2    1    2    0    0  0.56803610907E+01 -0.17620236682E+02  0.56748311805E+02  0.10985519444E+03  0.92222847546E+02 0.  0.
         13    1    3    3    0    0  0.20577780806E+02 -0.28547788790E+02  0.75643302000E+02  0.83428594889E+02  0.00000000000E+00 0. -1.
        -13    1    3    3    0    0 -0.14897419715E+02  0.10927552109E+02 -0.18894990195E+02  0.26426599549E+02  0.00000000000E+00 0.  1.
         22    1    1    2    0    0 -0.56803610907E+01  0.17620236682E+02 -0.31009408074E+02  0.36115407127E+02  0.00000000000E+00 0.  1.
<mgrwt>
<rscale>  0 0.62651804E+02</rscale>
<asrwt>0</asrwt>
<pdfrwt beam="1">  1        2 0.13208423E-01 0.94062707E+02</pdfrwt>
<pdfrwt beam="2">  1       -2 0.92485922E-02 0.94062707E+02</pdfrwt>
<totfact> 0.30042359E+04</totfact>
</mgrwt>
</event>
<event>
 6    1  0.1535419E-002  0.9799721E+02  0.7546771E-02  0.1336081E+00
          2   -1    0    0  501    0  0.00000000000E+00  0.00000000000E+00  0.25864805765E+02  0.25864805765E+02  0.00000000000E+00 0. -1.
         -2   -1    0    0    0  501 -0.00000000000E+00 -0.00000000000E+00 -0.18221086828E+03  0.18221086828E+03  0.00000000000E+00 0.  1.
         23    2    1    2    0    0  0.38436776382E+02  0.17992600878E+01 -0.12211481381E+03  0.15657420316E+03  0.90126745353E+02 0.  0.
         13    1    3    3    0    0  0.38112408615E+02 -0.39464788917E+02 -0.84434708745E+02  0.10069381955E+03  0.00000000000E+00 0.  1.
        -13    1    3    3    0    0  0.32436776767E+00  0.41264049005E+02 -0.37680105064E+02  0.55880383609E+02  0.00000000000E+00 0. -1.
         22    1    1    2    0    0 -0.38436776382E+02 -0.17992600878E+01 -0.34231248710E+02  0.51501470889E+02  0.00000000000E+00 0.  1.
<mgrwt>
<rscale>  0 0.77573940E+02</rscale>
<asrwt>0</asrwt>
<pdfrwt beam="1">  1        2 0.39792008E-02 0.97997211E+02</pdfrwt>
<pdfrwt beam="2">  1       -2 0.28032442E-01 0.97997211E+02</pdfrwt>
<totfact> 0.21937920E+04</totfact>
</mgrwt>
</event>
<event>
 6    1  0.1535419E-002  0.9855926E+02  0.7546771E-02  0.1392868E+00
          2   -1    0    0  501    0  0.00000000000E+00  0.00000000000E+00  0.46662628261E+03  0.46662628261E+03  0.00000000000E+00 0. -1.
         -2   -1    0    0    0  501 -0.00000000000E+00 -0.00000000000E+00 -0.79799335538E+02  0.79799335538E+02  0.00000000000E+00 0.  1.
         23    2    1    2    0    0  0.13747296251E+02  0.50675996055E+01  0.46069437954E+03  0.47111913570E+03  0.97464147065E+02 0.  0.
         11    1    3    3    0    0  0.51422977702E+02 -0.15255487963E+02  0.30334476583E+03  0.30805048207E+03  0.00000000000E+00 0.  1.
        -11    1    3    3    0    0 -0.37675681452E+02  0.20323087568E+02  0.15734961371E+03  0.16306865363E+03  0.00000000000E+00 0. -1.
         22    1    1    2    0    0 -0.13747296251E+02 -0.50675996055E+01 -0.73867432465E+02  0.75306482450E+02  0.00000000000E+00 0.  1.
<mgrwt>
<rscale>  0 0.61198980E+02</rscale>
<asrwt>0</asrwt>
<pdfrwt beam="1">  1        2 0.71788657E-01 0.98559265E+02</pdfrwt>
<pdfrwt beam="2">  1       -2 0.12276821E-01 0.98559265E+02</pdfrwt>
<totfact> 0.30725950E+03</totfact>
</mgrwt>
</event>
<event>
 6    1  0.1535419E-002  0.1040287E+03  0.7546771E-02  0.1392598E+00
         -4   -1    0    0    0  501 -0.00000000000E+00  0.00000000000E+00  0.72370254824E+01  0.72370254824E+01  0.00000000000E+00 0.  1.
          4   -1    0    0  501    0  0.00000000000E+00 -0.00000000000E+00 -0.56869511567E+03  0.56869511567E+03  0.00000000000E+00 0. -1.
         23    2    1    2    0    0  0.10015329574E+02 -0.75026360505E+01 -0.54702813389E+03  0.55683187903E+03  0.10327325825E+03 0.  0.
         11    1    3    3    0    0  0.45025190011E+02 -0.14217638722E+01 -0.46823287000E+03  0.47039484446E+03  0.00000000000E+00 0. -1.
        -11    1    3    3    0    0 -0.35009860438E+02 -0.60808721784E+01 -0.78795263886E+02  0.86437034570E+02  0.00000000000E+00 0.  1.
         22    1    1    2    0    0 -0.10015329574E+02  0.75026360505E+01 -0.14429956297E+02  0.19100262116E+02  0.00000000000E+00 0.  1.
<mgrwt>
<rscale>  0 0.61265004E+02</rscale>
<asrwt>0</asrwt>
<pdfrwt beam="1">  1        4 0.87491556E-01 0.10402866E+03</pdfrwt>
<pdfrwt beam="2">  1       -4 0.11133885E-02 0.10402866E+03</pdfrwt>
<totfact> 0.44489244E+03</totfact>
</mgrwt>
</event>
<event>
 6    1  0.1535419E-002  0.1046372E+03  0.7546771E-02  0.1341191E+00
         -2   -1    0    0    0  501 -0.00000000000E+00  0.00000000000E+00  0.31842242211E+02  0.31842242211E+02  0.00000000000E+00 0. -1.
          2   -1    0    0  501    0  0.00000000000E+00 -0.00000000000E+00 -0.16227520770E+03  0.16227520770E+03  0.00000000000E+00 0.  1.
         23    2    1    2    0    0  0.17212993772E+02 -0.23245797117E+02 -0.12765432022E+03  0.16505931667E+03  0.10055992398E+03 0.  0.
         13    1    3    3    0    0 -0.63961739339E+01 -0.36850273213E+02 -0.13224037866E+03  0.13742769526E+03  0.00000000000E+00 0.  1.
        -13    1    3    3    0    0  0.23609167706E+02  0.13604476096E+02  0.45860584434E+01  0.27631621408E+02  0.00000000000E+00 0. -1.
         22    1    1    2    0    0 -0.17212993772E+02  0.23245797117E+02 -0.27786452780E+01  0.29058133246E+02  0.00000000000E+00 0.  1.
<mgrwt>
<rscale>  0 0.75872251E+02</rscale>
<asrwt>0</asrwt>
<pdfrwt beam="1">  1        2 0.24965417E-01 0.10463724E+03</pdfrwt>
<pdfrwt beam="2">  1       -2 0.48988065E-02 0.10463724E+03</pdfrwt>
<totfact> 0.38747147E+04</totfact>
</mgrwt>
</event>
<event>
 6    1  0.1535419E-002  0.1198901E+03  0.7546771E-02  0.1264297E+00
          3   -1    0    0  501    0  0.00000000000E+00  0.00000000000E+00  0.75678608157E+02  0.75678608157E+02  0.00000000000E+00 0. -1.
         -3   -1    0    0    0  501 -0.00000000000E+00 -0.00000000000E+00 -0.15846604166E+03  0.15846604166E+03  0.00000000000E+00 0.  1.
         23    2    1    2    0    0 -0.78827682727E+02  0.49397583050E+01 -0.22927778592E+00  0.11989031138E+03  0.90196615336E+02 0.  0.
         13    1    3    3    0    0 -0.35500065267E+02 -0.40204534489E+02 -0.14810015509E+02  0.55641673112E+02  0.00000000000E+00 0. -1.
        -13    1    3    3    0    0 -0.43327617461E+02  0.45144292793E+02  0.14580737723E+02  0.64248638267E+02  0.00000000000E+00 0.  1.
         22    1    1    2    0    0  0.78827682727E+02 -0.49397583050E+01 -0.82558155719E+02  0.11425433844E+03  0.00000000000E+00 0. -1.
<mgrwt>
<rscale>  0 0.10801148E+03</rscale>
<asrwt>0</asrwt>
<pdfrwt beam="1">  1        3 0.11642863E-01 0.11989009E+03</pdfrwt>
<pdfrwt beam="2">  1       -3 0.24379391E-01 0.11989009E+03</pdfrwt>
<totfact> 0.20155857E+03</totfact>
</mgrwt>
</event>
<event>
 6    1  0.1535419E-002  0.9285074E+02  0.7546771E-02  0.1396430E+00
         -2   -1    0    0    0  501 -0.00000000000E+00  0.00000000000E+00  0.85632230790E+01  0.85632230790E+01  0.00000000000E+00 0.  1.
          2   -1    0    0  501    0  0.00000000000E+00 -0.00000000000E+00 -0.38502395955E+03  0.38502395955E+03  0.00000000000E+00 0. -1.
         23    2    1    2    0    0 -0.16483737009E+02  0.15353702246E+01 -0.35207615359E+03  0.36411382467E+03  0.91362948924E+02 0.  0.
         13    1    3    3    0    0 -0.15888810501E+02  0.61426970676E+01 -0.35696415361E+03  0.35737038768E+03  0.00000000000E+00 0. -1.
        -13    1    3    3    0    0 -0.59492650830E+00 -0.46073268430E+01  0.48880000193E+01  0.67434369854E+01  0.00000000000E+00 0.  1.
         22    1    1    2    0    0  0.16483737009E+02 -0.15353702246E+01 -0.24384582879E+02  0.29473357964E+02  0.00000000000E+00 0.  1.
<mgrwt>
<rscale>  0 0.60335358E+02</rscale>
<asrwt>0</asrwt>
<pdfrwt beam="1">  1        2 0.59234457E-01 0.92850737E+02</pdfrwt>
<pdfrwt beam="2">  1       -2 0.13174189E-02 0.92850737E+02</pdfrwt>
<totfact> 0.10267527E+05</totfact>
</mgrwt>
</event>
<event>
 6    1  0.1535419E-002  0.9669176E+02  0.7546771E-02  0.1351130E+00
          2   -1    0    0  501    0  0.00000000000E+00  0.00000000000E+00  0.72440663852E+03  0.72440663852E+03  0.00000000000E+00 0. -1.
         -2   -1    0    0    0  501 -0.00000000000E+00 -0.00000000000E+00 -0.65749974633E+01  0.65749974633E+01  0.00000000000E+00 0.  1.
         23    2    1    2    0    0 -0.68102347407E+01 -0.30149036047E+02  0.63956640658E+03  0.64683420228E+03  0.91618519618E+02 0.  0.
         13    1    3    3    0    0  0.30608290593E+02 -0.42066760066E+02  0.25399434757E+03  0.25926744561E+03  0.00000000000E+00 0. -1.
        -13    1    3    3    0    0 -0.37418525334E+02  0.11917724019E+02  0.38557205901E+03  0.38756675667E+03  0.00000000000E+00 0.  1.
         22    1    1    2    0    0  0.68102347407E+01  0.30149036047E+02  0.78265234477E+02  0.84147433707E+02  0.00000000000E+00 0.  1.
<mgrwt>
<rscale>  0 0.72704628E+02</rscale>
<asrwt>0</asrwt>
<pdfrwt beam="1">  1        2 0.11144711E+00 0.96691762E+02</pdfrwt>
<pdfrwt beam="2">  1       -2 0.10115386E-02 0.96691762E+02</pdfrwt>
<totfact> 0.74965020E+04</totfact>
</mgrwt>
</event>
<event>
 6    1  0.1535419E-002  0.9536030E+02  0.7546771E-02  0.1358307E+00
         -2   -1    0    0    0  501 -0.00000000000E+00  0.00000000000E+00  0.73686299509E+02  0.73686299509E+02  0.00000000000E+00 0.  1.
          2   -1    0    0  501    0  0.00000000000E+00 -0.00000000000E+00 -0.56000150641E+02  0.56000150641E+02  0.00000000000E+00 0. -1.
         23    2    1    2    0    0  0.21415336260E+02  0.18854856280E+02 -0.13789476123E+01  0.95370271221E+02  0.90991565014E+02 0.  0.
         11    1    3    3    0    0  0.30412010164E+02 -0.28038822993E+02 -0.17582766726E+02  0.44946853536E+02  0.00000000000E+00 0. -1.
        -11    1    3    3    0    0 -0.89966739042E+01  0.46893679273E+02  0.16203819114E+02  0.50423417685E+02  0.00000000000E+00 0.  1.
         22    1    1    2    0    0 -0.21415336260E+02 -0.18854856280E+02  0.19065096481E+02  0.34316178929E+02  0.00000000000E+00 0.  1.
<mgrwt>
<rscale>  0 0.70528056E+02</rscale>
<asrwt>0</asrwt>
<pdfrwt beam="1">  1        2 0.86154078E-02 0.95360302E+02</pdfrwt>
<pdfrwt beam="2">  1       -2 0.11336354E-01 0.95360302E+02</pdfrwt>
<totfact> 0.36653941E+04</totfact>
</mgrwt>
</event>
<event>
 6    1  0.1535419E-002  0.8854092E+02  0.7546771E-02  0.1419448E+00
         -2   -1    0    0    0  501 -0.00000000000E+00  0.00000000000E+00  0.23303937169E+01  0.23303937169E+01  0.00000000000E+00 0. -1.
          2   -1    0    0  501    0  0.00000000000E+00 -0.00000000000E+00 -0.27722395542E+04  0.27722395542E+04  0.00000000000E+00 0.  1.
         23    2    1    2    0    0 -0.10264951634E+02  0.84817311706E+01 -0.27441015145E+04  0.27455295694E+04  0.87533909522E+02 0.  0.
         11    1    3    3    0    0 -0.46614428004E+02 -0.14791540795E+01 -0.10878234725E+04  0.10888227588E+04  0.00000000000E+00 0.  1.
        -11    1    3    3    0    0  0.36349476369E+02  0.99608852502E+01 -0.16562780420E+04  0.16567068106E+04  0.00000000000E+00 0. -1.
         22    1    1    2    0    0  0.10264951634E+02 -0.84817311706E+01 -0.25807645949E+02  0.29040378530E+02  0.00000000000E+00 0. -1.
<mgrwt>
<rscale>  0 0.55137791E+02</rscale>
<asrwt>0</asrwt>
<pdfrwt beam="1">  1        2 0.42650103E+00 0.88540919E+02</pdfrwt>
<pdfrwt beam="2">  1       -2 0.35851989E-03 0.88540919E+02</pdfrwt>
<totfact> 0.25385268E+04</totfact>
</mgrwt>
</event>
<event>
 6    1  0.1535419E-002  0.9844790E+02  0.7546771E-02  0.1339676E+00
          2   -1    0    0  501    0  0.00000000000E+00  0.00000000000E+00  0.16786649878E+03  0.16786649878E+03  0.00000000000E+00 0. -1.
         -2   -1    0    0    0  501 -0.00000000000E+00 -0.00000000000E+00 -0.29731836485E+02  0.29731836485E+02  0.00000000000E+00 0.  1.
         23    2    1    2    0    0  0.35575294407E+02 -0.23670849609E+01  0.12607717191E+03  0.15996075116E+03  0.91764829705E+02 0.  0.
         11    1    3    3    0    0  0.22053268950E+02  0.30500900418E+02  0.11752573567E+03  0.12340563254E+03  0.00000000000E+00 0. -1.
        -11    1    3    3    0    0  0.13522025456E+02 -0.32867985378E+02  0.85514362372E+01  0.36555118616E+02  0.00000000000E+00 0.  1.
         22    1    1    2    0    0 -0.35575294407E+02  0.23670849609E+01  0.12057490391E+02  0.37637584113E+02  0.00000000000E+00 0. -1.
<mgrwt>
<rscale>  0 0.76371579E+02</rscale>
<asrwt>0</asrwt>
<pdfrwt beam="1">  1        2 0.25825615E-01 0.98447898E+02</pdfrwt>
<pdfrwt beam="2">  1       -2 0.45741288E-02 0.98447898E+02</pdfrwt>
<totfact> 0.41034387E+04</totfact>
</mgrwt>
</event>
<event>
 6    1  0.1535419E-002  0.1164343E+03  0.7546771E-02  0.1274937E+00
         -1   -1    0    0    0  501 -0.00000000000E+00  0.00000000000E+00  0.43072399661E+02  0.43072399661E+02  0.00000000000E+00 0.  1.
          1   -1    0    0  501    0  0.00000000000E+00 -0.00000000000E+00 -0.64488197346E+03  0.64488197346E+03  0.00000000000E+00 0. -1.
         23    2    1    2    0    0  0.19008485320E+02  0.67557814998E+02 -0.60653955029E+03  0.61761410329E+03  0.92906262658E+02 0.  0.
         11    1    3    3    0    0  0.18490792208E+02  0.16824171324E+01 -0.19633748708E+02  0.27022657386E+02  0.00000000000E+00 0.  1.
        -11    1    3    3    0    0  0.51769311256E+00  0.65875397866E+02 -0.58690580158E+03  0.59059144591E+03  0.00000000000E+00 0. -1.
         22    1    1    2    0    0 -0.19008485320E+02 -0.67557814998E+02  0.47299764913E+01  0.70340269825E+02  0.00000000000E+00 0.  1.
<mgrwt>
<rscale>  0 0.10259254E+03</rscale>
<asrwt>0</asrwt>
<pdfrwt beam="1">  1        1 0.99212609E-01 0.11643434E+03</pdfrwt>
<pdfrwt beam="2">  1       -1 0.66265232E-02 0.11643434E+03</pdfrwt>
<totfact> 0.35316596E+03</totfact>
</mgrwt>
</event>
<event>
 6    1  0.1535419E-002  0.9188985E+02  0.7546771E-02  0.1402137E+00
         -2   -1    0    0    0  501 -0.00000000000E+00  0.00000000000E+00  0.24688297475E+01  0.24688297475E+01  0.00000000000E+00 0.  1.
          2   -1    0    0  501    0  0.00000000000E+00 -0.00000000000E+00 -0.14090501822E+04  0.14090501822E+04  0.00000000000E+00 0. -1.
         23    2    1    2    0    0 -0.15558376386E+02  0.11730663959E+01 -0.13394544404E+04  0.13426026751E+04  0.90555541858E+02 0.  0.
         11    1    3    3    0    0 -0.36207711757E+02  0.29648976234E+02 -0.10462102933E+04  0.10472564338E+04  0.00000000000E+00 0. -1.
        -11    1    3    3    0    0  0.20649335370E+02 -0.28475909838E+02 -0.29324414708E+03  0.29534624137E+03  0.00000000000E+00 0.  1.
         22    1    1    2    0    0  0.15558376386E+02 -0.11730663959E+01 -0.67126912049E+02  0.68916336828E+02  0.00000000000E+00 0. -1.
<mgrwt>
<rscale>  0 0.58986072E+02</rscale>
<asrwt>0</asrwt>
<pdfrwt beam="1">  1        2 0.21677717E+00 0.91889854E+02</pdfrwt>
<pdfrwt beam="2">  1       -2 0.37981958E-03 0.91889854E+02</pdfrwt>
<totfact> 0.11772931E+05</totfact>
</mgrwt>
</event>
<event>
 6    1  0.1535419E-002  0.9091649E+02  0.7546771E-02  0.1382179E+00
         -2   -1    0    0    0  501 -0.00000000000E+00  0.00000000000E+00  0.36083885137E+02  0.36083885137E+02  0.00000000000E+00 0.  1.
          2   -1    0    0  501    0  0.00000000000E+00 -0.00000000000E+00 -0.91595877181E+02  0.91595877181E+02  0.00000000000E+00 0. -1.
         23    2    1    2    0    0  0.19738544440E+02 -0.10111945476E+02 -0.34845675005E+02  0.97365438346E+02  0.88169983214E+02 0.  0.
         13    1    3    3    0    0 -0.56943102275E+01 -0.45720408525E+02 -0.10366743634E+02  0.47225525918E+02  0.00000000000E+00 0.  1.
        -13    1    3    3    0    0  0.25432854667E+02  0.35608463049E+02 -0.24478931371E+02  0.50139912428E+02  0.00000000000E+00 0. -1.
         22    1    1    2    0    0 -0.19738544440E+02  0.10111945476E+02 -0.20666317039E+02  0.30314323972E+02  0.00000000000E+00 0. -1.
<mgrwt>
<rscale>  0 0.63894334E+02</rscale>
<asrwt>0</asrwt>
<pdfrwt beam="1">  1        2 0.14091673E-01 0.90916487E+02</pdfrwt>
<pdfrwt beam="2">  1       -2 0.55513671E-02 0.90916487E+02</pdfrwt>
<totfact> 0.60187185E+04</totfact>
</mgrwt>
</event>
<event>
 6    1  0.1535419E-002  0.9249712E+02  0.7546771E-02  0.1408216E+00
         -2   -1    0    0    0  501 -0.00000000000E+00  0.00000000000E+00  0.57330130884E+01  0.57330130884E+01  0.00000000000E+00 0. -1.
          2   -1    0    0  501    0  0.00000000000E+00 -0.00000000000E+00 -0.60213964434E+03  0.60213964434E+03  0.00000000000E+00 0.  1.
         23    2    1    2    0    0 -0.74322967847E+01 -0.11750086048E+02 -0.57469362062E+03  0.58208974859E+03  0.91446237053E+02 0.  0.
         13    1    3    3    0    0 -0.19490645107E+02  0.21385499390E+02 -0.64661930714E+02  0.70840596515E+02  0.00000000000E+00 0. -1.
        -13    1    3    3    0    0  0.12058348322E+02 -0.33135585438E+02 -0.51003168991E+03  0.51124915207E+03  0.00000000000E+00 0.  1.
         22    1    1    2    0    0  0.74322967847E+01  0.11750086048E+02 -0.21713010630E+02  0.25782908840E+02  0.00000000000E+00 0. -1.
<mgrwt>
<rscale>  0 0.57593855E+02</rscale>
<asrwt>0</asrwt>
<pdfrwt beam="1">  1        2 0.92636784E-01 0.92497123E+02</pdfrwt>
<pdfrwt beam="2">  1       -2 0.88200281E-03 0.92497123E+02</pdfrwt>
<totfact> 0.11190121E+05</totfact>
</mgrwt>
</event>
<event>
 6    1  0.1535419E-002  0.9139189E+02  0.7546771E-02  0.1396314E+00
          1   -1    0    0  501    0  0.00000000000E+00  0.00000000000E+00  0.88501069237E+03  0.88501069237E+03  0.00000000000E+00 0. -1.
         -1   -1    0    0    0  501 -0.00000000000E+00 -0.00000000000E+00 -0.55672552333E+01  0.55672552333E+01  0.00000000000E+00 0.  1.
         23    2    1    2    0    0  0.11462750809E+02  0.13080923330E+02  0.85851475348E+03  0.86336554214E+03  0.89721637355E+02 0.  0.
         13    1    3    3    0    0 -0.21043280219E+00  0.40097654008E+02  0.74562780846E+03  0.74670522624E+03  0.00000000000E+00 0. -1.
        -13    1    3    3    0    0  0.11673183611E+02 -0.27016730678E+02  0.11288694502E+03  0.11666031591E+03  0.00000000000E+00 0.  1.
         22    1    1    2    0    0 -0.11462750809E+02 -0.13080923330E+02  0.20928683662E+02  0.27212405463E+02  0.00000000000E+00 0.  1.
<mgrwt>
<rscale>  0 0.60363213E+02</rscale>
<asrwt>0</asrwt>
<pdfrwt beam="1">  1        1 0.13615538E+00 0.91391889E+02</pdfrwt>
<pdfrwt beam="2">  1       -1 0.85650151E-03 0.91391889E+02</pdfrwt>
<totfact> 0.41667324E+04</totfact>
</mgrwt>
</event>
<event>
 6    1  0.1535419E-002  0.1071251E+03  0.7546771E-02  0.1379228E+00
         -1   -1    0    0    0  501 -0.00000000000E+00  0.00000000000E+00  0.20436297060E+02  0.20436297060E+02  0.00000000000E+00 0.  1.
          1   -1    0    0  501    0  0.00000000000E+00 -0.00000000000E+00 -0.18356664286E+03  0.18356664286E+03  0.00000000000E+00 0. -1.
         23    2    1    2    0    0 -0.10855654728E+02  0.91930675837E+01 -0.15192176766E+03  0.18589244696E+03  0.10617636563E+03 0.  0.
         11    1    3    3    0    0  0.18254770511E+02  0.13799810888E+01 -0.15455640155E+03  0.15563682808E+03  0.00000000000E+00 0. -1.
        -11    1    3    3    0    0 -0.29110425239E+02  0.78130864949E+01  0.26346338960E+01  0.30255618882E+02  0.00000000000E+00 0.  1.
         22    1    1    2    0    0  0.10855654728E+02 -0.91930675837E+01 -0.11208578147E+02  0.18110492960E+02  0.00000000000E+00 0.  1.
<mgrwt>
<rscale>  0 0.64667085E+02</rscale>
<asrwt>0</asrwt>
<pdfrwt beam="1">  1        1 0.28241022E-01 0.10712506E+03</pdfrwt>
<pdfrwt beam="2">  1       -1 0.31440457E-02 0.10712506E+03</pdfrwt>
<totfact> 0.51070056E+04</totfact>
</mgrwt>
</event>
<event>
 6    1  0.1535419E-002  0.9250346E+02  0.7546771E-02  0.1416243E+00
          2   -1    0    0  501    0  0.00000000000E+00  0.00000000000E+00  0.11745631397E+02  0.11745631397E+02  0.00000000000E+00 0. -1.
         -2   -1    0    0    0  501 -0.00000000000E+00 -0.00000000000E+00 -0.26046285336E+03  0.26046285336E+03  0.00000000000E+00 0.  1.
         23    2    1    2    0    0 -0.96043706597E+01  0.76339568715E+01 -0.17972119064E+03  0.20213014594E+03  0.91686249234E+02 0.  0.
         11    1    3    3    0    0  0.22798194907E+02  0.21806407303E+02 -0.15689909321E+03  0.16003937810E+03  0.00000000000E+00 0.  1.
        -11    1    3    3    0    0 -0.32402565567E+02 -0.14172450431E+02 -0.22822097427E+02  0.42090767842E+02  0.00000000000E+00 0. -1.
         22    1    1    2    0    0  0.96043706597E+01 -0.76339568715E+01 -0.68996031323E+02  0.70078338819E+02  0.00000000000E+00 0. -1.
<mgrwt>
<rscale>  0 0.55823645E+02</rscale>
<asrwt>0</asrwt>
<pdfrwt beam="1">  1        2 0.18070202E-02 0.92503457E+02</pdfrwt>
<pdfrwt beam="2">  1       -2 0.40071208E-01 0.92503457E+02</pdfrwt>
<totfact> 0.32602358E+04</totfact>
</mgrwt>
</event>
<event>
 6    1  0.1535419E-002  0.9442116E+02  0.7546771E-02  0.1376125E+00
         -4   -1    0    0    0  501 -0.00000000000E+00  0.00000000000E+00  0.55077672181E+02  0.55077672181E+02  0.00000000000E+00 0.  1.
          4   -1    0    0  501    0  0.00000000000E+00 -0.00000000000E+00 -0.69238655318E+02  0.69238655318E+02  0.00000000000E+00 0. -1.
         23    2    1    2    0    0  0.21028437136E+02  0.59600991278E+01 -0.27952852533E+02  0.98471915889E+02  0.91856618183E+02 0.  0.
         11    1    3    3    0    0  0.34571076031E+02 -0.24597159193E+02  0.14140184303E+02  0.44722749808E+02  0.00000000000E+00 0.  1.
        -11    1    3    3    0    0 -0.13542638894E+02  0.30557258320E+02 -0.42093036836E+02  0.53749166081E+02  0.00000000000E+00 0. -1.
         22    1    1    2    0    0 -0.21028437136E+02 -0.59600991278E+01  0.13791869396E+02  0.25844411610E+02  0.00000000000E+00 0.  1.
<mgrwt>
<rscale>  0 0.65493539E+02</rscale>
<asrwt>0</asrwt>
<pdfrwt beam="1">  1        4 0.10652101E-01 0.94421164E+02</pdfrwt>
<pdfrwt beam="2">  1       -4 0.84734881E-02 0.94421164E+02</pdfrwt>
<totfact> 0.10039979E+04</totfact>
</mgrwt>
</event>
<event>
 6    1  0.1535419E-002  0.9960851E+02  0.7546771E-02  0.1395486E+00
          1   -1    0    0  501    0  0.00000000000E+00  0.00000000000E+00  0.23566861576E+02  0.23566861576E+02  0.00000000000E+00 0. -1.
         -1   -1    0    0    0  501 -0.00000000000E+00 -0.00000000000E+00 -0.13727753335E+03  0.13727753335E+03  0.00000000000E+00 0.  1.
         23    2    1    2    0    0 -0.63329865342E+01  0.12049197881E+02 -0.94523483917E+02  0.13731913051E+03  0.98674032570E+02 0.  0.
         11    1    3    3    0    0 -0.32431080174E+02 -0.15507622108E+02 -0.52976828468E+00  0.35951939574E+02  0.00000000000E+00 0. -1.
        -11    1    3    3    0    0  0.26098093640E+02  0.27556819988E+02 -0.93993715632E+02  0.10136719093E+03  0.00000000000E+00 0.  1.
         22    1    1    2    0    0  0.63329865342E+01 -0.12049197881E+02 -0.19187187853E+02  0.23525264413E+02  0.00000000000E+00 0. -1.
<mgrwt>
<rscale>  0 0.60562499E+02</rscale>
<asrwt>0</asrwt>
<pdfrwt beam="1">  1        1 0.36256710E-02 0.99608507E+02</pdfrwt>
<pdfrwt beam="2">  1       -1 0.21119621E-01 0.99608507E+02</pdfrwt>
<totfact> 0.42130716E+04</totfact>
</mgrwt>
</event>
<event>
 6    1  0.1535419E-002  0.8738766E+02  0.7546771E-02  0.1420147E+00
          2   -1    0    0  501    0  0.00000000000E+00  0.00000000000E+00  0.19728748664E+04  0.19728748664E+04  0.00000000000E+00 0.  1.
         -2   -1    0    0    0  501 -0.00000000000E+00 -0.00000000000E+00 -0.12999502186E+02  0.12999502186E+02  0.00000000000E+00 0. -1.
         23    2    1    2    0    0  0.51521809401E+00 -0.13692253777E+02  0.19680036474E+04  0.19699428825E+04  0.86306782527E+02 0.  0.
         11    1    3    3    0    0 -0.23503624547E+02 -0.38041486078E+02  0.15108497104E+04  0.15115113041E+04  0.00000000000E+00 0.  1.
        -11    1    3    3    0    0  0.24018842641E+02  0.24349232301E+02  0.45715393701E+03  0.45843157836E+03  0.00000000000E+00 0. -1.
         22    1    1    2    0    0 -0.51521809401E+00  0.13692253777E+02 -0.81282831752E+01  0.15931486138E+02  0.00000000000E+00 0. -1.
<mgrwt>
<rscale>  0 0.54989927E+02</rscale>
<asrwt>0</asrwt>
<pdfrwt beam="1">  1        2 0.30351897E+00 0.87387665E+02</pdfrwt>
<pdfrwt beam="2">  1       -2 0.19999250E-02 0.87387665E+02</pdfrwt>
<totfact> 0.58228440E+03</totfact>
</mgrwt>
</event>
<event>
 6    1  0.1535419E-002  0.9262325E+02  0.7546771E-02  0.1413310E+00
         -2   -1    0    0    0  501 -0.00000000000E+00  0.00000000000E+00  0.73932677264E+02  0.73932677264E+02  0.00000000000E+00 0.  1.
          2   -1    0    0  501    0  0.00000000000E+00 -0.00000000000E+00 -0.42235062042E+02  0.42235062042E+02  0.00000000000E+00 0. -1.
         23    2    1    2    0    0  0.12525768479E+02 -0.25847408532E+01  0.13024424514E+02  0.93534493571E+02  0.91735980359E+02 0.  0.
         13    1    3    3    0    0  0.32744785759E+02  0.34809871766E+02 -0.35146391522E+01  0.47919733463E+02  0.00000000000E+00 0. -1.
        -13    1    3    3    0    0 -0.20219017281E+02 -0.37394612620E+02  0.16539063666E+02  0.45614760108E+02  0.00000000000E+00 0.  1.
         22    1    1    2    0    0 -0.12525768479E+02  0.25847408532E+01  0.18673190708E+02  0.22633245734E+02  0.00000000000E+00 0.  1.
<mgrwt>
<rscale>  0 0.56461820E+02</rscale>
<asrwt>0</asrwt>
<pdfrwt beam="1">  1        2 0.64977019E-02 0.92623247E+02</pdfrwt>
<pdfrwt beam="2">  1       -2 0.11374258E-01 0.92623247E+02</pdfrwt>
<totfact> 0.51660592E+04</totfact>
</mgrwt>
</event>
<event>
 6    1  0.1535419E-002  0.9404136E+02  0.7546771E-02  0.1365183E+00
          1   -1    0    0  501    0  0.00000000000E+00  0.00000000000E+00  0.78002581775E+03  0.78002581775E+03  0.00000000000E+00 0. -1.
         -1   -1    0    0    0  501 -0.00000000000E+00 -0.00000000000E+00 -0.48209717757E+01  0.48209717757E+01  0.00000000000E+00 0.  1.
         23    2    1    2    0    0 -0.25542300325E+02 -0.71021660928E+01  0.65763716523E+03  0.66432704249E+03  0.90227093644E+02 0.  0.
         11    1    3    3    0    0  0.19960944049E+02 -0.10178214597E+02  0.49245320222E+03  0.49296266767E+03  0.00000000000E+00 0. -1.
        -11    1    3    3    0    0 -0.45503244374E+02  0.30760485039E+01  0.16518396301E+03  0.17136437482E+03  0.00000000000E+00 0.  1.
         22    1    1    2    0    0  0.25542300325E+02  0.71021660928E+01  0.11756768075E+03  0.12051974704E+03  0.00000000000E+00 0. -1.
<mgrwt>
<rscale>  0 0.68524680E+02</rscale>
<asrwt>0</asrwt>
<pdfrwt beam="1">  1        1 0.12000387E+00 0.94041365E+02</pdfrwt>
<pdfrwt beam="2">  1       -1 0.74168858E-03 0.94041365E+02</pdfrwt>
<totfact> 0.61943230E+04</totfact>
</mgrwt>
</event>
<event>
 6    1  0.1535419E-002  0.9323363E+02  0.7546771E-02  0.1396887E+00
         -2   -1    0    0    0  501 -0.00000000000E+00  0.00000000000E+00  0.15460080837E+02  0.15460080837E+02  0.00000000000E+00 0.  1.
          2   -1    0    0  501    0  0.00000000000E+00 -0.00000000000E+00 -0.20023075618E+03  0.20023075618E+03  0.00000000000E+00 0. -1.
         23    2    1    2    0    0 -0.92637974908E+01 -0.13330651577E+02 -0.16925552003E+03  0.19323545326E+03  0.91809504513E+02 0.  0.
         11    1    3    3    0    0 -0.39145239198E+02 -0.62015358799E+01 -0.27623485525E+02  0.48310099893E+02  0.00000000000E+00 0.  1.
        -11    1    3    3    0    0  0.29881441707E+02 -0.71291156972E+01 -0.14163203451E+03  0.14492535337E+03  0.00000000000E+00 0. -1.
         22    1    1    2    0    0  0.92637974908E+01  0.13330651577E+02 -0.15515155307E+02  0.22455383756E+02  0.00000000000E+00 0. -1.
<mgrwt>
<rscale>  0 0.60225720E+02</rscale>
<asrwt>0</asrwt>
<pdfrwt beam="1">  1        2 0.30804732E-01 0.93233628E+02</pdfrwt>
<pdfrwt beam="2">  1       -2 0.23784740E-02 0.93233628E+02</pdfrwt>
<totfact> 0.87622904E+04</totfact>
</mgrwt>
</event>
<event>
 6    1  0.1535419E-002  0.1029383E+03  0.7546771E-02  0.1356274E+00
          2   -1    0    0  501    0  0.00000000000E+00  0.00000000000E+00  0.25939913050E+03  0.25939913050E+03  0.00000000000E+00 0. -1.
         -2   -1    0    0    0  501 -0.00000000000E+00 -0.00000000000E+00 -0.16303513653E+02  0.16303513653E+02  0.00000000000E+00 0.  1.
         23    2    1    2    0    0 -0.23399456544E+02  0.18888112075E+01  0.21939492711E+03  0.24234361436E+03  0.10022570134E+03 0.  0.
         13    1    3    3    0    0 -0.44677907006E+02  0.19195665615E+02  0.46483747591E+02  0.67270556285E+02  0.00000000000E+00 0.  1.
        -13    1    3    3    0    0  0.21278450462E+02 -0.17306854407E+02  0.17291117951E+03  0.17507305808E+03  0.00000000000E+00 0. -1.
         22    1    1    2    0    0  0.23399456544E+02 -0.18888112075E+01  0.23700689741E+02  0.33359029790E+02  0.00000000000E+00 0. -1.
<mgrwt>
<rscale>  0 0.71135560E+02</rscale>
<asrwt>0</asrwt>
<pdfrwt beam="1">  1        2 0.39907556E-01 0.10293830E+03</pdfrwt>
<pdfrwt beam="2">  1       -2 0.25082331E-02 0.10293830E+03</pdfrwt>
<totfact> 0.62524508E+04</totfact>
</mgrwt>
</event>
<event>
 6    1  0.1535419E-002  0.9518312E+02  0.7546771E-02  0.1360820E+00
         -2   -1    0    0    0  501 -0.00000000000E+00  0.00000000000E+00  0.11918450233E+02  0.11918450233E+02  0.00000000000E+00 0. -1.
          2   -1    0    0  501    0  0.00000000000E+00 -0.00000000000E+00 -0.31723549101E+03  0.31723549101E+03  0.00000000000E+00 0.  1.
         23    2    1    2    0    0  0.15003983246E+02 -0.23052145629E+02 -0.24591736029E+03  0.26369522927E+03  0.91122472069E+02 0.  0.
         13    1    3    3    0    0 -0.73677919704E+01  0.52510506975E+01 -0.21771488416E+03  0.21790279640E+03  0.00000000000E+00 0.  1.
        -13    1    3    3    0    0  0.22371775216E+02 -0.28303196326E+02 -0.28202476129E+02  0.45792432873E+02  0.00000000000E+00 0. -1.
         22    1    1    2    0    0 -0.15003983246E+02  0.23052145629E+02 -0.59399680484E+02  0.65458711971E+02  0.00000000000E+00 0. -1.
<mgrwt>
<rscale>  0 0.69786684E+02</rscale>
<asrwt>0</asrwt>
<pdfrwt beam="1">  1        2 0.48805459E-01 0.95183117E+02</pdfrwt>
<pdfrwt beam="2">  1       -2 0.18336078E-02 0.95183117E+02</pdfrwt>
<totfact> 0.78705781E+04</totfact>
</mgrwt>
</event>
<event>
 6    1  0.1535419E-002  0.9202101E+02  0.7546771E-02  0.1426709E+00
          2   -1    0    0  501    0  0.00000000000E+00  0.00000000000E+00  0.12120527820E+04  0.12120527820E+04  0.00000000000E+00 0. -1.
         -2   -1    0    0    0  501 -0.00000000000E+00 -0.00000000000E+00 -0.23189164078E+01  0.23189164078E+01  0.00000000000E+00 0.  1.
         23    2    1    2    0    0 -0.33811626276E+01 -0.10060379791E+02  0.11520714404E+04  0.11557406590E+04  0.91406912163E+02 0.  0.
         13    1    3    3    0    0  0.26690681501E+00 -0.44463932659E+02  0.92310064706E+03  0.92417093503E+03  0.00000000000E+00 0. -1.
        -13    1    3    3    0    0 -0.36480694426E+01  0.34403552868E+02  0.22897079333E+03  0.23156972397E+03  0.00000000000E+00 0.  1.
         22    1    1    2    0    0  0.33811626276E+01  0.10060379791E+02  0.57662425158E+02  0.58631039368E+02  0.00000000000E+00 0.  1.
<mgrwt>
<rscale>  0 0.53626386E+02</rscale>
<asrwt>0</asrwt>
<pdfrwt beam="1">  1        2 0.18646915E+00 0.92021014E+02</pdfrwt>
<pdfrwt beam="2">  1       -2 0.35675734E-03 0.92021014E+02</pdfrwt>
<totfact> 0.16333575E+05</totfact>
</mgrwt>
</event>
<event>
 6    1  0.1535419E-002  0.9082349E+02  0.7546771E-02  0.1399744E+00
          2   -1    0    0  501    0  0.00000000000E+00  0.00000000000E+00  0.10162736522E+04  0.10162736522E+04  0.00000000000E+00 0. -1.
         -2   -1    0    0    0  501 -0.00000000000E+00 -0.00000000000E+00 -0.40468288183E+01  0.40468288183E+01  0.00000000000E+00 0.  1.
         23    2    1    2    0    0  0.72455863754E+01 -0.15136791534E+02  0.97792627149E+03  0.98213476589E+03  0.89259648893E+02 0.  0.
         13    1    3    3    0    0  0.41596987564E+02  0.15885716222E+02  0.48682683418E+03  0.48885890790E+03  0.00000000000E+00 0. -1.
        -13    1    3    3    0    0 -0.34351401189E+02 -0.31022507756E+02  0.49109943731E+03  0.49327585799E+03  0.00000000000E+00 0.  1.
         22    1    1    2    0    0 -0.72455863754E+01  0.15136791534E+02  0.34300551906E+02  0.38185715142E+02  0.00000000000E+00 0. -1.
<mgrwt>
<rscale>  0 0.59546571E+02</rscale>
<asrwt>0</asrwt>
<pdfrwt beam="1">  1        2 0.15634959E+00 0.90823488E+02</pdfrwt>
<pdfrwt beam="2">  1       -2 0.62258986E-03 0.90823488E+02</pdfrwt>
<totfact> 0.96215844E+04</totfact>
</mgrwt>
</event>
<event>
 6    1  0.1535419E-002  0.9293676E+02  0.7546771E-02  0.1406949E+00
         -1   -1    0    0    0  501 -0.00000000000E+00  0.00000000000E+00  0.24770919970E+02  0.24770919970E+02  0.00000000000E+00 0.  1.
          1   -1    0    0  501    0  0.00000000000E+00 -0.00000000000E+00 -0.16706698513E+03  0.16706698513E+03  0.00000000000E+00 0. -1.
         23    2    1    2    0    0 -0.12897000085E+02  0.53993635927E+01 -0.14955873000E+03  0.17608252383E+03  0.91879027754E+02 0.  0.
         13    1    3    3    0    0  0.31321444127E+02  0.16311692939E+02 -0.11075500235E+03  0.11624876229E+03  0.00000000000E+00 0. -1.
        -13    1    3    3    0    0 -0.44218444212E+02 -0.10912329347E+02 -0.38803727648E+02  0.59833761537E+02  0.00000000000E+00 0.  1.
         22    1    1    2    0    0  0.12897000085E+02 -0.53993635927E+01  0.72626648385E+01  0.15755381270E+02  0.00000000000E+00 0.  1.
<mgrwt>
<rscale>  0 0.57880201E+02</rscale>
<asrwt>0</asrwt>
<pdfrwt beam="1">  1        1 0.25702613E-01 0.92936761E+02</pdfrwt>
<pdfrwt beam="2">  1       -1 0.38109108E-02 0.92936761E+02</pdfrwt>
<totfact> 0.42622809E+04</totfact>
</mgrwt>
</event>
<event>
 6    1  0.1535419E-002  0.9187242E+02  0.7546771E-02  0.1384872E+00
         -2   -1    0    0    0  501 -0.00000000000E+00  0.00000000000E+00  0.21382936314E+02  0.21382936314E+02  0.00000000000E+00 0. -1.
          2   -1    0    0  501    0  0.00000000000E+00 -0.00000000000E+00 -0.19334206675E+03  0.19334206675E+03  0.00000000000E+00 0.  1.
         23    2    1    2    0    0 -0.20100781488E+02 -0.43885469822E+01 -0.17101323202E+03  0.19412899653E+03  0.89539047395E+02 0.  0.
         11    1    3    3    0    0 -0.17383904776E+02 -0.82667348110E+01  0.34885761460E+01  0.19562955125E+02  0.00000000000E+00 0. -1.
        -11    1    3    3    0    0 -0.27168767121E+01  0.38781878288E+01 -0.17450180817E+03  0.17456604141E+03  0.00000000000E+00 0.  1.
         22    1    1    2    0    0  0.20100781488E+02  0.43885469822E+01 -0.94589841374E+00  0.20596006527E+02  0.00000000000E+00 0. -1.
<mgrwt>
<rscale>  0 0.63200426E+02</rscale>
<asrwt>0</asrwt>
<pdfrwt beam="1">  1        2 0.29744934E-01 0.91872421E+02</pdfrwt>
<pdfrwt beam="2">  1       -2 0.32896824E-02 0.91872421E+02</pdfrwt>
<totfact> 0.56692586E+04</totfact>
</mgrwt>
</event>
<event>
 6    1  0.1535419E-002  0.9421360E+02  0.7546771E-02  0.1425724E+00
          1   -1    0    0  501    0  0.00000000000E+00  0.00000000000E+00  0.11333926722E+04  0.11333926722E+04  0.00000000000E+00 0. -1.
         -1   -1    0    0    0  501 -0.00000000000E+00 -0.00000000000E+00 -0.45237625902E+01  0.45237625902E+01  0.00000000000E+00 0.  1.
         23    2    1    2    0    0  0.94657315367E+01 -0.33440292383E+01  0.11215316860E+04  0.11254819080E+04  0.93677211751E+02 0.  0.
         13    1    3    3    0    0 -0.13604561838E+02 -0.44728850087E+02  0.58031784655E+03  0.58219803947E+03  0.00000000000E+00 0.  1.
        -13    1    3    3    0    0  0.23070293375E+02  0.41384820849E+02  0.54121383946E+03  0.54328386858E+03  0.00000000000E+00 0. -1.
         22    1    1    2    0    0 -0.94657315367E+01  0.33440292383E+01  0.73372235787E+01  0.12434526727E+02  0.00000000000E+00 0.  1.
<mgrwt>
<rscale>  0 0.53828019E+02</rscale>
<asrwt>0</asrwt>
<pdfrwt beam="1">  1        1 0.17436788E+00 0.94213601E+02</pdfrwt>
<pdfrwt beam="2">  1       -1 0.69596438E-03 0.94213601E+02</pdfrwt>
<totfact> 0.37079137E+04</totfact>
</mgrwt>
</event>
<event>
 6    1  0.1535419E-002  0.9415400E+02  0.7546771E-02  0.1372118E+00
         -2   -1    0    0    0  501 -0.00000000000E+00  0.00000000000E+00  0.35918778093E+02  0.35918778093E+02  0.00000000000E+00 0.  1.
          2   -1    0    0  501    0  0.00000000000E+00 -0.00000000000E+00 -0.10639281563E+03  0.10639281563E+03  0.00000000000E+00 0. -1.
         23    2    1    2    0    0  0.56092009110E+01 -0.22867722250E+02 -0.72277308778E+02  0.11869702951E+03  0.91162380363E+02 0.  0.
         11    1    3    3    0    0 -0.98432146947E+01 -0.48063527583E+02 -0.74338375916E+02  0.89068432641E+02  0.00000000000E+00 0. -1.
        -11    1    3    3    0    0  0.15452415606E+02  0.25195805333E+02  0.20610671380E+01  0.29628596865E+02  0.00000000000E+00 0.  1.
         22    1    1    2    0    0 -0.56092009110E+01  0.22867722250E+02  0.18032712457E+01  0.23614564213E+02  0.00000000000E+00 0.  1.
<mgrwt>
<rscale>  0 0.66581960E+02</rscale>
<asrwt>0</asrwt>
<pdfrwt beam="1">  1        2 0.16368125E-01 0.94153999E+02</pdfrwt>
<pdfrwt beam="2">  1       -2 0.55259659E-02 0.94153999E+02</pdfrwt>
<totfact> 0.51218940E+04</totfact>
</mgrwt>
</event>
<event>
 6    1  0.1535419E-002  0.9133578E+02  0.7546771E-02  0.1373013E+00
         -2   -1    0    0    0  501 -0.00000000000E+00  0.00000000000E+00  0.36515436874E+01  0.36515436874E+01  0.00000000000E+00 0.  1.
          2   -1    0    0  501    0  0.00000000000E+00 -0.00000000000E+00 -0.13284546489E+04  0.13284546489E+04  0.00000000000E+00 0. -1.
         23    2    1    2    0    0 -0.25296742237E+02  0.24496736733E+01 -0.12451797952E+04  0.12485251088E+04  0.87728552230E+02 0.  0.
         11    1    3    3    0    0 -0.25724674614E+01  0.43066126624E+02 -0.71794257962E+03  0.71923769123E+03  0.00000000000E+00 0. -1.
        -11    1    3    3    0    0 -0.22724274775E+02 -0.40616452951E+02 -0.52723721558E+03  0.52928741758E+03  0.00000000000E+00 0.  1.
         22    1    1    2    0    0  0.25296742237E+02 -0.24496736733E+01 -0.79623310043E+02  0.83581083812E+02  0.00000000000E+00 0.  1.
<mgrwt>
<rscale>  0 0.66336654E+02</rscale>
<asrwt>0</asrwt>
<pdfrwt beam="1">  1        2 0.20437817E+00 0.91335781E+02</pdfrwt>
<pdfrwt beam="2">  1       -2 0.56177450E-03 0.91335781E+02</pdfrwt>
<totfact> 0.74923630E+04</totfact>
</mgrwt>
</event>
<event>
 6    1  0.1535419E-002  0.1170919E+03  0.7546771E-02  0.1356458E+00
         -1   -1    0    0    0  501 -0.00000000000E+00  0.00000000000E+00  0.21836731160E+02  0.21836731160E+02  0.00000000000E+00 0.  1.
          1   -1    0    0  501    0  0.00000000000E+00 -0.00000000000E+00 -0.28436866765E+03  0.28436866765E+03  0.00000000000E+00 0. -1.
         23    2    1    2    0    0  0.10980869362E+02 -0.11500032020E+02 -0.26536884668E+03  0.29005367172E+03  0.11600723021E+03 0.  0.
         13    1    3    3    0    0  0.34602239027E+02  0.15787140883E+02 -0.24632981744E+03  0.24924872662E+03  0.00000000000E+00 0. -1.
        -13    1    3    3    0    0 -0.23621369665E+02 -0.27287172904E+02 -0.19039029240E+02  0.40804945097E+02  0.00000000000E+00 0.  1.
         22    1    1    2    0    0 -0.10980869362E+02  0.11500032020E+02  0.28369101949E+01  0.16151727086E+02  0.00000000000E+00 0.  1.
<mgrwt>
<rscale>  0 0.71080210E+02</rscale>
<asrwt>0</asrwt>
<pdfrwt beam="1">  1        1 0.43749026E-01 0.11709188E+03</pdfrwt>
<pdfrwt beam="2">  1       -1 0.33594970E-02 0.11709188E+03</pdfrwt>
<totfact> 0.27340221E+04</totfact>
</mgrwt>
</event>
<event>
 6    1  0.1535419E-002  0.8838294E+02  0.7546771E-02  0.1435934E+00
          2   -1    0    0  501    0  0.00000000000E+00  0.00000000000E+00  0.24174158605E+03  0.24174158605E+03  0.00000000000E+00 0.  1.
         -2   -1    0    0    0  501 -0.00000000000E+00 -0.00000000000E+00 -0.11410036701E+02  0.11410036701E+02  0.00000000000E+00 0. -1.
         23    2    1    2    0    0  0.17451319471E+01 -0.10270793686E+02  0.22436599144E+03  0.24114651677E+03  0.87766791824E+02 0.  0.
         11    1    3    3    0    0 -0.51750600186E+01  0.30419544187E+02  0.32199900099E+02  0.44597796819E+02  0.00000000000E+00 0. -1.
        -11    1    3    3    0    0  0.69201919657E+01 -0.40690337873E+02  0.19216609134E+03  0.19654871995E+03  0.00000000000E+00 0.  1.
         22    1    1    2    0    0 -0.17451319471E+01  0.10270793686E+02  0.59655579097E+01  0.12005105981E+02  0.00000000000E+00 0. -1.
<mgrwt>
<rscale>  0 0.51787198E+02</rscale>
<asrwt>0</asrwt>
<pdfrwt beam="1">  1        2 0.37191010E-01 0.88382942E+02</pdfrwt>
<pdfrwt beam="2">  1       -2 0.17553904E-02 0.88382942E+02</pdfrwt>
<totfact> 0.11015193E+05</totfact>
</mgrwt>
</event>
<event>
 6    1  0.1535419E-002  0.1000303E+03  0.7546771E-02  0.1327384E+00
         -2   -1    0    0    0  501 -0.00000000000E+00  0.00000000000E+00  0.22072729435E+02  0.22072729435E+02  0.00000000000E+00 0.  1.
          2   -1    0    0  501    0  0.00000000000E+00 -0.00000000000E+00 -0.12868751161E+04  0.12868751161E+04  0.00000000000E+00 0. -1.
         23    2    1    2    0    0  0.33986782198E+02  0.24920765920E+02 -0.12628003100E+04  0.12667559713E+04  0.90718918526E+02 0.  0.
         11    1    3    3    0    0  0.58672038637E+02 -0.65212298335E+01 -0.83914641627E+03  0.84122032934E+03  0.00000000000E+00 0.  1.
        -11    1    3    3    0    0 -0.24685256439E+02  0.31441995753E+02 -0.42365389368E+03  0.42553564200E+03  0.00000000000E+00 0. -1.
         22    1    1    2    0    0 -0.33986782198E+02 -0.24920765920E+02 -0.20020767309E+01  0.42191874211E+02  0.00000000000E+00 0.  1.
<mgrwt>
<rscale>  0 0.80590458E+02</rscale>
<asrwt>0</asrwt>
<pdfrwt beam="1">  1        2 0.19798075E+00 0.10003034E+03</pdfrwt>
<pdfrwt beam="2">  1       -2 0.33958051E-02 0.10003034E+03</pdfrwt>
<totfact> 0.60723959E+03</totfact>
</mgrwt>
</event>
<event>
 6    1  0.1535419E-002  0.9482029E+02  0.7546771E-02  0.1362253E+00
          1   -1    0    0  501    0  0.00000000000E+00  0.00000000000E+00  0.81352145936E+02  0.81352145936E+02  0.00000000000E+00 0. -1.
         -1   -1    0    0    0  501 -0.00000000000E+00 -0.00000000000E+00 -0.50651029178E+02  0.50651029178E+02  0.00000000000E+00 0.  1.
         23    2    1    2    0    0  0.23732868337E+02 -0.13208979267E+02  0.40528847766E+02  0.10311874212E+03  0.90846911350E+02 0.  0.
         13    1    3    3    0    0  0.37110143586E+02 -0.32847538604E+02  0.55987390778E+02  0.74771060414E+02  0.00000000000E+00 0. -1.
        -13    1    3    3    0    0 -0.13377275249E+02  0.19638559337E+02 -0.15458543012E+02  0.28347681703E+02  0.00000000000E+00 0.  1.
         22    1    1    2    0    0 -0.23732868337E+02  0.13208979267E+02 -0.98277310073E+01  0.28884432997E+02  0.00000000000E+00 0.  1.
<mgrwt>
<rscale>  0 0.69368589E+02</rscale>
<asrwt>0</asrwt>
<pdfrwt beam="1">  1        1 0.12515715E-01 0.94820290E+02</pdfrwt>
<pdfrwt beam="2">  1       -1 0.77924660E-02 0.94820290E+02</pdfrwt>
<totfact> 0.37127827E+04</totfact>
</mgrwt>
</event>
<event>
 6    1  0.1535419E-002  0.8455347E+02  0.7546771E-02  0.1446026E+00
          2   -1    0    0  501    0  0.00000000000E+00  0.00000000000E+00  0.66195047384E+03  0.66195047384E+03  0.00000000000E+00 0.  1.
         -2   -1    0    0    0  501 -0.00000000000E+00 -0.00000000000E+00 -0.34144315772E+01  0.34144315772E+01  0.00000000000E+00 0. -1.
         23    2    1    2    0    0  0.79990354799E+01  0.63847831466E+01  0.60215547765E+03  0.60806291513E+03  0.83931754850E+02 0.  0.
         11    1    3    3    0    0 -0.21133888600E+02 -0.12188892065E+02  0.59484498568E+02  0.64293202650E+02  0.00000000000E+00 0. -1.
        -11    1    3    3    0    0  0.29132924080E+02  0.18573675212E+02  0.54267097908E+03  0.54376971248E+03  0.00000000000E+00 0.  1.
         22    1    1    2    0    0 -0.79990354799E+01 -0.63847831466E+01  0.56380564613E+02  0.57301990284E+02  0.00000000000E+00 0. -1.
<mgrwt>
<rscale>  0 0.49873270E+02</rscale>
<asrwt>0</asrwt>
<pdfrwt beam="1">  1        2 0.10183843E+00 0.84553471E+02</pdfrwt>
<pdfrwt beam="2">  1       -2 0.52529769E-03 0.84553471E+02</pdfrwt>
<totfact> 0.20547275E+05</totfact>
</mgrwt>
</event>
<event>
 6    1  0.1535419E-002  0.9344625E+02  0.7546771E-02  0.1373986E+00
          2   -1    0    0  501    0  0.00000000000E+00  0.00000000000E+00  0.15491376497E+04  0.15491376497E+04  0.00000000000E+00 0. -1.
         -2   -1    0    0    0  501 -0.00000000000E+00 -0.00000000000E+00 -0.51837375107E+01  0.51837375107E+01  0.00000000000E+00 0.  1.
         23    2    1    2    0    0 -0.16152361905E+02 -0.16867997731E+02  0.15112409810E+04  0.15141273080E+04  0.90480792284E+02 0.  0.
         13    1    3    3    0    0 -0.45284394065E+02 -0.28198336233E+02  0.12296765252E+04  0.12308331240E+04  0.00000000000E+00 0. -1.
        -13    1    3    3    0    0  0.29132032160E+02  0.11330338502E+02  0.28156445587E+03  0.28329418398E+03  0.00000000000E+00 0.  1.
         22    1    1    2    0    0  0.16152361905E+02  0.16867997731E+02  0.32712931122E+02  0.40194079230E+02  0.00000000000E+00 0.  1.
<mgrwt>
<rscale>  0 0.66071415E+02</rscale>
<asrwt>0</asrwt>
<pdfrwt beam="1">  1        2 0.23832850E+00 0.93446251E+02</pdfrwt>
<pdfrwt beam="2">  1       -2 0.79749931E-03 0.93446251E+02</pdfrwt>
<totfact> 0.35278908E+04</totfact>
</mgrwt>
</event>
<event>
 6    1  0.1535419E-002  0.9754071E+02  0.7546771E-02  0.1398476E+00
          2   -1    0    0  501    0  0.00000000000E+00  0.00000000000E+00  0.15946130873E+04  0.15946130873E+04  0.00000000000E+00 0. -1.
         -2   -1    0    0    0  501 -0.00000000000E+00 -0.00000000000E+00 -0.79206625084E+01  0.79206625084E+01  0.00000000000E+00 0.  1.
         23    2    1    2    0    0  0.72528654278E+01  0.11767367799E+02  0.15856762515E+04  0.15886734608E+04  0.96556280783E+02 0.  0.
         11    1    3    3    0    0 -0.43763105235E+02  0.15403710481E+02  0.75661134903E+03  0.75803246444E+03  0.00000000000E+00 0. -1.
        -11    1    3    3    0    0  0.51015970663E+02 -0.36363426823E+01  0.82906490252E+03  0.83064099637E+03  0.00000000000E+00 0.  1.
         22    1    1    2    0    0 -0.72528654278E+01 -0.11767367799E+02  0.10161731965E+01  0.13860288951E+02  0.00000000000E+00 0.  1.
<mgrwt>
<rscale>  0 0.59846661E+02</rscale>
<asrwt>0</asrwt>
<pdfrwt beam="1">  1        2 0.24532483E+00 0.97540711E+02</pdfrwt>
<pdfrwt beam="2">  1       -2 0.12185647E-02 0.97540711E+02</pdfrwt>
<totfact> 0.18402398E+04</totfact>
</mgrwt>
</event>
<event>
 6    1  0.1535419E-002  0.1000166E+03  0.7546771E-02  0.1324960E+00
          2   -1    0    0  501    0  0.00000000000E+00  0.00000000000E+00  0.55554213736E+03  0.55554213736E+03  0.00000000000E+00 0. -1.
         -2   -1    0    0    0  501 -0.00000000000E+00 -0.00000000000E+00 -0.14683522878E+02  0.14683522878E+02  0.00000000000E+00 0.  1.
         23    2    1    2    0    0 -0.17591096920E+02 -0.40341117083E+02  0.50088146098E+03  0.51076958216E+03  0.89813560707E+02 0.  0.
         11    1    3    3    0    0 -0.54532348113E+02 -0.24263267477E+02  0.29175752270E+03  0.29780015983E+03  0.00000000000E+00 0.  1.
        -11    1    3    3    0    0  0.36941251193E+02 -0.16077849606E+02  0.20912393827E+03  0.21296942233E+03  0.00000000000E+00 0. -1.
         22    1    1    2    0    0  0.17591096920E+02  0.40341117083E+02  0.39977153502E+02  0.59456078078E+02  0.00000000000E+00 0.  1.
<mgrwt>
<rscale>  0 0.81459410E+02</rscale>
<asrwt>0</asrwt>
<pdfrwt beam="1">  1        2 0.85468005E-01 0.10001664E+03</pdfrwt>
<pdfrwt beam="2">  1       -2 0.22590039E-02 0.10001664E+03</pdfrwt>
<totfact> 0.32275548E+04</totfact>
</mgrwt>
</event>
<event>
 6    1  0.1535419E-002  0.8912910E+02  0.7546771E-02  0.1414281E+00
         -2   -1    0    0    0  501 -0.00000000000E+00  0.00000000000E+00  0.31523260114E+01  0.31523260114E+01  0.00000000000E+00 0.  1.
          2   -1    0    0  501    0  0.00000000000E+00 -0.00000000000E+00 -0.11043440306E+04  0.11043440306E+04  0.00000000000E+00 0. -1.
         23    2    1    2    0    0  0.72894317276E+01 -0.12114885912E+02 -0.10636940265E+04  0.10674216497E+04  0.88000510566E+02 0.  0.
         11    1    3    3    0    0 -0.66920848716E+01 -0.24669250601E+02 -0.10135527921E+04  0.10138750507E+04  0.00000000000E+00 0. -1.
        -11    1    3    3    0    0  0.13981516599E+02  0.12554364689E+02 -0.50141234386E+02  0.53546599004E+02  0.00000000000E+00 0.  1.
         22    1    1    2    0    0 -0.72894317276E+01  0.12114885912E+02 -0.37497678042E+02  0.40074706913E+02  0.00000000000E+00 0.  1.
<mgrwt>
<rscale>  0 0.56249406E+02</rscale>
<asrwt>0</asrwt>
<pdfrwt beam="1">  1        2 0.16989899E+00 0.89129098E+02</pdfrwt>
<pdfrwt beam="2">  1       -2 0.48497349E-03 0.89129098E+02</pdfrwt>
<totfact> 0.12136305E+05</totfact>
</mgrwt>
</event>
<event>
 6    1  0.1535419E-002  0.9251505E+02  0.7546771E-02  0.1392518E+00
          2   -1    0    0  501    0  0.00000000000E+00  0.00000000000E+00  0.10378403661E+04  0.10378403661E+04  0.00000000000E+00 0. -1.
         -2   -1    0    0    0  501 -0.00000000000E+00 -0.00000000000E+00 -0.34321157252E+01  0.34321157252E+01  0.00000000000E+00 0.  1.
         23    2    1    2    0    0 -0.63227160669E+01  0.16654727914E+02  0.97136082963E+03  0.97575657564E+03  0.90783681721E+02 0.  0.
         13    1    3    3    0    0  0.13159946739E+02  0.59230562603E+00  0.89936126102E+03  0.89945773266E+03  0.00000000000E+00 0. -1.
        -13    1    3    3    0    0 -0.19482662806E+02  0.16062422288E+02  0.71999568614E+02  0.76298842982E+02  0.00000000000E+00 0.  1.
         22    1    1    2    0    0  0.63227160669E+01 -0.16654727914E+02  0.63047420707E+02  0.65515906146E+02  0.00000000000E+00 0. -1.
<mgrwt>
<rscale>  0 0.61284794E+02</rscale>
<asrwt>0</asrwt>
<pdfrwt beam="1">  1        2 0.15966750E+00 0.92515045E+02</pdfrwt>
<pdfrwt beam="2">  1       -2 0.52801863E-03 0.92515045E+02</pdfrwt>
<totfact> 0.11810328E+05</totfact>
</mgrwt>
</event>
<event>
 6    1  0.1535419E-002  0.9400276E+02  0.7546771E-02  0.1421901E+00
          2   -1    0    0  501    0  0.00000000000E+00  0.00000000000E+00  0.29460437162E+03  0.29460437162E+03  0.00000000000E+00 0. -1.
         -2   -1    0    0    0  501 -0.00000000000E+00 -0.00000000000E+00 -0.96429076243E+01  0.96429076243E+01  0.00000000000E+00 0.  1.
         23    2    1    2    0    0  0.10023216659E+02  0.37888427180E+01  0.26959596116E+03  0.28551445034E+03  0.93390036287E+02 0.  0.
         11    1    3    3    0    0 -0.37378793067E+02 -0.18310588489E+02  0.11366390046E+03  0.12104517376E+03  0.00000000000E+00 0.  1.
        -11    1    3    3    0    0  0.47402009726E+02  0.22099431207E+02  0.15593206070E+03  0.16446927659E+03  0.00000000000E+00 0. -1.
         22    1    1    2    0    0 -0.10023216659E+02 -0.37888427180E+01  0.15365502829E+02  0.18732828898E+02  0.00000000000E+00 0.  1.
<mgrwt>
<rscale>  0 0.54620761E+02</rscale>
<asrwt>0</asrwt>
<pdfrwt beam="1">  1        2 0.45323743E-01 0.94002761E+02</pdfrwt>
<pdfrwt beam="2">  1       -2 0.14835245E-02 0.94002761E+02</pdfrwt>
<totfact> 0.11495601E+05</totfact>
</mgrwt>
</event>
<event>
 6    1  0.1535419E-002  0.9779650E+02  0.7546771E-02  0.1338917E+00
          2   -1    0    0  501    0  0.00000000000E+00  0.00000000000E+00  0.99934478363E+02  0.99934478363E+02  0.00000000000E+00 0. -1.
         -2   -1    0    0    0  501 -0.00000000000E+00 -0.00000000000E+00 -0.47933618068E+02  0.47933618068E+02  0.00000000000E+00 0.  1.
         23    2    1    2    0    0  0.84231028891E+01  0.35877401228E+02  0.52529747635E+02  0.11101139686E+03  0.90587081120E+02 0.  0.
         11    1    3    3    0    0 -0.12917489581E+02  0.35828007833E+02  0.72429400879E+02  0.81832302876E+02  0.00000000000E+00 0. -1.
        -11    1    3    3    0    0  0.21340592470E+02  0.49393395430E-01 -0.19899653244E+02  0.29179093987E+02  0.00000000000E+00 0.  1.
         22    1    1    2    0    0 -0.84231028891E+01 -0.35877401228E+02 -0.52888734011E+00  0.36856699567E+02  0.00000000000E+00 0. -1.
<mgrwt>
<rscale>  0 0.76623224E+02</rscale>
<asrwt>0</asrwt>
<pdfrwt beam="1">  1        2 0.15374535E-01 0.97796502E+02</pdfrwt>
<pdfrwt beam="2">  1       -2 0.73744028E-02 0.97796502E+02</pdfrwt>
<totfact> 0.35796422E+04</totfact>
</mgrwt>
</event>
<event>
 6    1  0.1535419E-002  0.9554322E+02  0.7546771E-02  0.1390233E+00
         -2   -1    0    0    0  501 -0.00000000000E+00  0.00000000000E+00  0.59976172016E+01  0.59976172016E+01  0.00000000000E+00 0.  1.
          2   -1    0    0  501    0  0.00000000000E+00 -0.00000000000E+00 -0.73261297999E+03  0.73261297999E+03  0.00000000000E+00 0. -1.
         23    2    1    2    0    0  0.88699370896E+01  0.14240973144E+02 -0.70398801450E+03  0.71044185581E+03  0.94058624473E+02 0.  0.
         11    1    3    3    0    0  0.13659165896E+02  0.36386688802E+02 -0.65827894023E+03  0.65942530061E+03  0.00000000000E+00 0. -1.
        -11    1    3    3    0    0 -0.47892288063E+01 -0.22145715658E+02 -0.45709074269E+02  0.51016555206E+02  0.00000000000E+00 0.  1.
         22    1    1    2    0    0 -0.88699370896E+01 -0.14240973144E+02 -0.22627348292E+02  0.28168741378E+02  0.00000000000E+00 0.  1.
<mgrwt>
<rscale>  0 0.61848767E+02</rscale>
<asrwt>0</asrwt>
<pdfrwt beam="1">  1        2 0.11270971E+00 0.95543215E+02</pdfrwt>
<pdfrwt beam="2">  1       -2 0.92271020E-03 0.95543215E+02</pdfrwt>
<totfact> 0.84130599E+04</totfact>
</mgrwt>
</event>
<event>
 6    1  0.1535419E-002  0.9210945E+02  0.7546771E-02  0.1430071E+00
          4   -1    0    0  501    0  0.00000000000E+00  0.00000000000E+00  0.12173035074E+03  0.12173035074E+03  0.00000000000E+00 0. -1.
         -4   -1    0    0    0  501 -0.00000000000E+00 -0.00000000000E+00 -0.22410212637E+02  0.22410212637E+02  0.00000000000E+00 0.  1.
         23    2    1    2    0    0 -0.99392678865E+01 -0.15260295541E+01  0.97109486309E+02  0.13384470044E+03  0.91558908315E+02 0.  0.
         13    1    3    3    0    0  0.56411074995E+01  0.27826219637E+02 -0.28225715255E+01  0.28532218686E+02  0.00000000000E+00 0.  1.
        -13    1    3    3    0    0 -0.15580375386E+02 -0.29352249191E+02  0.99932057834E+02  0.10531248175E+03  0.00000000000E+00 0. -1.
         22    1    1    2    0    0  0.99392678865E+01  0.15260295541E+01  0.22106517936E+01  0.10295862940E+02  0.00000000000E+00 0.  1.
<mgrwt>
<rscale>  0 0.52945812E+02</rscale>
<asrwt>0</asrwt>
<pdfrwt beam="1">  1        4 0.18727746E-01 0.92109454E+02</pdfrwt>
<pdfrwt beam="2">  1       -4 0.34477251E-02 0.92109454E+02</pdfrwt>
<totfact> 0.15941196E+04</totfact>
</mgrwt>
</event>
