<event>
 6    1  0.1828142E-002  0.9276521E+02  0.7546771E-02  0.1392245E+00
         -1   -1    0    0    0  501 -0.00000000000E+00  0.00000000000E+00  0.45416928990E+03  0.45416928990E+03  0.00000000000E+00 0.  1.
          1   -1    0    0  501    0  0.00000000000E+00 -0.00000000000E+00 -0.14557229013E+02  0.14557229013E+02  0.00000000000E+00 0. -1.
         23    2    1    2    0    0 -0.10335517178E+02 -0.14428324643E+02  0.44125668631E+03  0.45090225848E+03  0.91051545988E+02 0.  0.
         13    1    3    3    0    0  0.12962898014E+02 -0.47138804609E+02  0.30345612684E+03  0.30736903641E+03  0.00000000000E+00 0. -1.
        -13    1    3    3    0    0 -0.23298415191E+02  0.32710479967E+02  0.13780055947E+03  0.14353322207E+03  0.00000000000E+00 0.  1.
         22    1    1    2    0    0  0.10335517178E+02  0.14428324643E+02 -0.16446254147E+01  0.17824260436E+02  0.00000000000E+00 0. -1.
<mgrwt>
<rscale>  0 0.61351836E+02</rscale>
<asrwt>0</asrwt>
<pdfrwt beam="1">  1        1 0.22395740E-02 0.92765206E+02</pdfrwt>
<pdfrwt beam="2">  1       -1 0.69872188E-01 0.92765206E+02</pdfrwt>
<totfact> 0.10063363E+04</totfact>
</mgrwt>
</event>
<event>
 6    1  0.1828142E-002  0.9520315E+02  0.7546771E-02  0.1390537E+00
         -4   -1    0    0    0  501 -0.00000000000E+00  0.00000000000E+00  0.27681311651E+03  0.27681311651E+03  0.00000000000E+00 0.  1.
          4   -1    0    0  501    0  0.00000000000E+00 -0.00000000000E+00 -0.11664529407E+02  0.11664529407E+02  0.00000000000E+00 0. -1.
         23    2    1    2    0    0 -0.11400487956E+02  0.12441899504E+02  0.23998910208E+03  0.25818289925E+03  0.93695615480E+02 0.  0.
         13    1    3    3    0    0 -0.23478809273E+02 -0.35553722260E+02  0.14421072700E+03  0.15037305422E+03  0.00000000000E+00 0.  1.
        -13    1    3    3    0    0  0.12078321317E+02  0.47995621764E+02  0.95778375077E+02  0.10780984504E+03  0.00000000000E+00 0. -1.
         22    1    1    2    0    0  0.11400487956E+02 -0.12441899504E+02  0.25159485023E+02  0.30294746666E+02  0.00000000000E+00 0. -1.
<mgrwt>
<rscale>  0 0.61773279E+02</rscale>
<asrwt>0</asrwt>
<pdfrwt beam="1">  1        4 0.17945432E-02 0.95203153E+02</pdfrwt>
<pdfrwt beam="2">  1       -4 0.42586628E-01 0.95203153E+02</pdfrwt>
<totfact> 0.95324658E+03</totfact>
</mgrwt>
</event>
<event>
 6    1  0.1828142E-002  0.7235935E+02  0.7546771E-02  0.1410917E+00
          2   -1    0    0  501    0  0.00000000000E+00  0.00000000000E+00  0.13993330665E+03  0.13993330665E+03  0.00000000000E+00 0.  1.
         -2   -1    0    0    0  501 -0.00000000000E+00 -0.00000000000E+00 -0.20396448526E+02  0.20396448526E+02  0.00000000000E+00 0. -1.
         23    2    1    2    0    0  0.13528513947E+02  0.24334399840E+02  0.57818851342E+02  0.92622325255E+02  0.66788411120E+02 0.  0.
         11    1    3    3    0    0  0.80617715640E+01  0.24812286404E+02 -0.74430863678E+01  0.27130080207E+02  0.00000000000E+00 0. -1.
        -11    1    3    3    0    0  0.54667423832E+01 -0.47788656356E+00  0.65261937710E+02  0.65492245049E+02  0.00000000000E+00 0.  1.
         22    1    1    2    0    0 -0.13528513947E+02 -0.24334399840E+02  0.61718006778E+02  0.67707429916E+02  0.00000000000E+00 0.  1.
<mgrwt>
<rscale>  0 0.56989727E+02</rscale>
<asrwt>0</asrwt>
<pdfrwt beam="1">  1        2 0.21528200E-01 0.72359350E+02</pdfrwt>
<pdfrwt beam="2">  1       -2 0.31379152E-02 0.72359350E+02</pdfrwt>
<totfact> 0.83199088E+04</totfact>
</mgrwt>
</event>
<event>
 6    1  0.1828142E-002  0.9185363E+02  0.7546771E-02  0.1417662E+00
          2   -1    0    0  501    0  0.00000000000E+00  0.00000000000E+00  0.48708774844E+03  0.48708774844E+03  0.00000000000E+00 0. -1.
         -2   -1    0    0    0  501 -0.00000000000E+00 -0.00000000000E+00 -0.55816429618E+01  0.55816429618E+01  0.00000000000E+00 0.  1.
         23    2    1    2    0    0 -0.12230752007E+02 -0.83738175901E+00  0.41511696915E+03  0.42515783739E+03  0.91031841208E+02 0.  0.
         13    1    3    3    0    0  0.21334029402E+02  0.31144406945E+02  0.10470046250E+03  0.11129825579E+03  0.00000000000E+00 0.  1.
        -13    1    3    3    0    0 -0.33564781409E+02 -0.31981788704E+02  0.31041650665E+03  0.31385958159E+03  0.00000000000E+00 0. -1.
         22    1    1    2    0    0  0.12230752007E+02  0.83738175901E+00  0.66389136335E+02  0.67511554020E+02  0.00000000000E+00 0. -1.
<mgrwt>
<rscale>  0 0.55518713E+02</rscale>
<asrwt>0</asrwt>
<pdfrwt beam="1">  1        2 0.74936543E-01 0.91853626E+02</pdfrwt>
<pdfrwt beam="2">  1       -2 0.85871469E-03 0.91853626E+02</pdfrwt>
<totfact> 0.14649262E+05</totfact>
</mgrwt>
</event>
<event>
 6    1  0.1828142E-002  0.9401465E+02  0.7546771E-02  0.1395011E+00
          4   -1    0    0  501    0  0.00000000000E+00  0.00000000000E+00  0.71509066496E+02  0.71509066496E+02  0.00000000000E+00 0. -1.
         -4   -1    0    0    0  501 -0.00000000000E+00 -0.00000000000E+00 -0.19631172478E+03  0.19631172478E+03  0.00000000000E+00 0.  1.
         23    2    1    2    0    0 -0.12468291357E+02 -0.10518648755E+02 -0.18388671033E+03  0.20652621185E+03  0.92588626111E+02 0.  0.
         11    1    3    3    0    0  0.12837964637E+02 -0.42544608674E+02 -0.13864449956E+03  0.14559242536E+03  0.00000000000E+00 0.  1.
        -11    1    3    3    0    0 -0.25306255994E+02  0.32025959919E+02 -0.45242210766E+02  0.60933786491E+02  0.00000000000E+00 0. -1.
         22    1    1    2    0    0  0.12468291357E+02  0.10518648755E+02  0.59084052043E+02  0.61294579425E+02  0.00000000000E+00 0. -1.
<mgrwt>
<rscale>  0 0.60677448E+02</rscale>
<asrwt>0</asrwt>
<pdfrwt beam="1">  1        4 0.11001395E-01 0.94014648E+02</pdfrwt>
<pdfrwt beam="2">  1       -4 0.30201803E-01 0.94014648E+02</pdfrwt>
<totfact> 0.10276377E+03</totfact>
</mgrwt>
</event>
<event>
 6    1  0.1828142E-002  0.9404574E+02  0.7546771E-02  0.1357746E+00
         -1   -1    0    0    0  501 -0.00000000000E+00  0.00000000000E+00  0.33468718828E+02  0.33468718828E+02  0.00000000000E+00 0.  1.
          1   -1    0    0  501    0  0.00000000000E+00 -0.00000000000E+00 -0.13473866014E+03  0.13473866014E+03  0.00000000000E+00 0. -1.
         23    2    1    2    0    0  0.13405851356E+02  0.26870041226E+02 -0.44626814817E+02  0.10409685140E+03  0.89122869706E+02 0.  0.
         11    1    3    3    0    0 -0.24611411959E+02  0.45303645911E+02 -0.28198373011E+02  0.58764701751E+02  0.00000000000E+00 0. -1.
        -11    1    3    3    0    0  0.38017263314E+02 -0.18433604685E+02 -0.16428441806E+02  0.45332149649E+02  0.00000000000E+00 0.  1.
         22    1    1    2    0    0 -0.13405851356E+02 -0.26870041226E+02 -0.56643126499E+02  0.64110527572E+02  0.00000000000E+00 0.  1.
<mgrwt>
<rscale>  0 0.70694899E+02</rscale>
<asrwt>0</asrwt>
<pdfrwt beam="1">  1        1 0.20729025E-01 0.94045744E+02</pdfrwt>
<pdfrwt beam="2">  1       -1 0.51490337E-02 0.94045744E+02</pdfrwt>
<totfact> 0.35981102E+04</totfact>
</mgrwt>
</event>
<event>
 6    1  0.1828142E-002  0.9349465E+02  0.7546771E-02  0.1379034E+00
         -1   -1    0    0    0  501 -0.00000000000E+00  0.00000000000E+00  0.15786449989E+03  0.15786449989E+03  0.00000000000E+00 0.  1.
          1   -1    0    0  501    0  0.00000000000E+00 -0.00000000000E+00 -0.22237826372E+02  0.22237826372E+02  0.00000000000E+00 0. -1.
         23    2    1    2    0    0  0.18027590808E+02  0.11653288036E+02  0.12514722130E+03  0.15621483850E+03  0.90997008842E+02 0.  0.
         11    1    3    3    0    0  0.43532104446E+02 -0.73491423688E+01  0.11443234998E+03  0.12265323776E+03  0.00000000000E+00 0.  1.
        -11    1    3    3    0    0 -0.25504513638E+02  0.19002430405E+02  0.10714871317E+02  0.33561600744E+02  0.00000000000E+00 0. -1.
         22    1    1    2    0    0 -0.18027590808E+02 -0.11653288036E+02  0.10479452219E+02  0.23887487755E+02  0.00000000000E+00 0. -1.
<mgrwt>
<rscale>  0 0.64718480E+02</rscale>
<asrwt>0</asrwt>
<pdfrwt beam="1">  1        1 0.34212042E-02 0.93494646E+02</pdfrwt>
<pdfrwt beam="2">  1       -1 0.24286845E-01 0.93494646E+02</pdfrwt>
<totfact> 0.36105646E+04</totfact>
</mgrwt>
</event>
<event>
 6    1  0.1828142E-002  0.1152901E+03  0.7546771E-02  0.1277366E+00
          2   -1    0    0  501    0  0.00000000000E+00  0.00000000000E+00  0.79649362008E+01  0.79649362008E+01  0.00000000000E+00 0.  1.
         -2   -1    0    0    0  501 -0.00000000000E+00 -0.00000000000E+00 -0.12928963737E+04  0.12928963737E+04  0.00000000000E+00 0. -1.
         23    2    1    2    0    0 -0.68339855432E+02  0.95609180016E+01 -0.10407658079E+04  0.10471319232E+04  0.92358273645E+02 0.  0.
         11    1    3    3    0    0 -0.15257913663E+02  0.54099699967E+01 -0.23861971149E+02  0.28835141266E+02  0.00000000000E+00 0.  1.
        -11    1    3    3    0    0 -0.53081941770E+02  0.41509480049E+01 -0.10169038368E+04  0.10182967820E+04  0.00000000000E+00 0. -1.
         22    1    1    2    0    0  0.68339855432E+02 -0.95609180016E+01 -0.24416562953E+03  0.25372938663E+03  0.00000000000E+00 0.  1.
<mgrwt>
<rscale>  0 0.10140624E+03</rscale>
<asrwt>0</asrwt>
<pdfrwt beam="1">  1        2 0.12253744E-02 0.11529006E+03</pdfrwt>
<pdfrwt beam="2">  1       -2 0.19890721E+00 0.11529006E+03</pdfrwt>
<totfact> 0.15103143E+03</totfact>
</mgrwt>
</event>
<event>
 6    1  0.1828142E-002  0.9060457E+02  0.7546771E-02  0.1422193E+00
          2   -1    0    0  501    0  0.00000000000E+00  0.00000000000E+00  0.82776085669E+01  0.82776085669E+01  0.00000000000E+00 0. -1.
         -2   -1    0    0    0  501 -0.00000000000E+00 -0.00000000000E+00 -0.33830544535E+03  0.33830544535E+03  0.00000000000E+00 0.  1.
         23    2    1    2    0    0  0.71197705569E+01 -0.95517324620E+01 -0.31264983988E+03  0.32551360917E+03  0.89817930547E+02 0.  0.
         13    1    3    3    0    0 -0.15674655589E+02  0.23479448844E+02 -0.24671706301E+03  0.24832697906E+03  0.00000000000E+00 0.  1.
        -13    1    3    3    0    0  0.22794426146E+02 -0.33031181306E+02 -0.65932776869E+02  0.77186630108E+02  0.00000000000E+00 0. -1.
         22    1    1    2    0    0 -0.71197705569E+01  0.95517324620E+01 -0.17377996896E+02  0.21069444746E+02  0.00000000000E+00 0.  1.
<mgrwt>
<rscale>  0 0.54559526E+02</rscale>
<asrwt>0</asrwt>
<pdfrwt beam="1">  1        2 0.12734782E-02 0.90604566E+02</pdfrwt>
<pdfrwt beam="2">  1       -2 0.52046994E-01 0.90604566E+02</pdfrwt>
<totfact> 0.31593321E+04</totfact>
</mgrwt>
</event>
<event>
 6    1  0.1828142E-002  0.9381425E+02  0.7546771E-02  0.1394232E+00
         -3   -1    0    0    0  501 -0.00000000000E+00  0.00000000000E+00  0.54429934714E+02  0.54429934714E+02  0.00000000000E+00 0.  1.
          3   -1    0    0  501    0  0.00000000000E+00 -0.00000000000E+00 -0.56728108012E+02  0.56728108012E+02  0.00000000000E+00 0. -1.
         23    2    1    2    0    0  0.67834593793E+01 -0.15175567727E+02  0.25300729779E+01  0.93848359335E+02  0.92329844057E+02 0.  0.
         11    1    3    3    0    0  0.13125304458E+02 -0.10560499637E+02 -0.43764080657E+02  0.46894482890E+02  0.00000000000E+00 0. -1.
        -11    1    3    3    0    0 -0.63418450791E+01 -0.46150680905E+01  0.46294153635E+02  0.46953876446E+02  0.00000000000E+00 0.  1.
         22    1    1    2    0    0 -0.67834593793E+01  0.15175567727E+02 -0.48282462760E+01  0.17309683391E+02  0.00000000000E+00 0. -1.
<mgrwt>
<rscale>  0 0.60866286E+02</rscale>
<asrwt>0</asrwt>
<pdfrwt beam="1">  1        3 0.87274013E-02 0.93814249E+02</pdfrwt>
<pdfrwt beam="2">  1       -3 0.83738361E-02 0.93814249E+02</pdfrwt>
<totfact> 0.18831792E+04</totfact>
</mgrwt>
</event>
<event>
 6    1  0.1828142E-002  0.8999975E+02  0.7546771E-02  0.1423757E+00
          4   -1    0    0  501    0  0.00000000000E+00  0.00000000000E+00  0.34419786973E+03  0.34419786973E+03  0.00000000000E+00 0. -1.
         -4   -1    0    0    0  501 -0.00000000000E+00 -0.00000000000E+00 -0.79222498272E+01  0.79222498272E+01  0.00000000000E+00 0.  1.
         23    2    1    2    0    0 -0.82846366085E+01  0.84972909991E+01  0.26506817212E+03  0.27993050966E+03  0.89213873399E+02 0.  0.
         13    1    3    3    0    0  0.58395839339E+01 -0.13813042493E+02  0.15319619962E+01  0.15074740164E+02  0.00000000000E+00 0.  1.
        -13    1    3    3    0    0 -0.14124220542E+02  0.22310333493E+02  0.26353621013E+03  0.26485576950E+03  0.00000000000E+00 0. -1.
         22    1    1    2    0    0  0.82846366085E+01 -0.84972909991E+01  0.71207447784E+02  0.72189609903E+02  0.00000000000E+00 0.  1.
<mgrwt>
<rscale>  0 0.54233969E+02</rscale>
<asrwt>0</asrwt>
<pdfrwt beam="1">  1        4 0.52953507E-01 0.89999746E+02</pdfrwt>
<pdfrwt beam="2">  1       -4 0.12188079E-02 0.89999746E+02</pdfrwt>
<totfact> 0.10874881E+04</totfact>
</mgrwt>
</event>
<event>
 6    1  0.1828142E-002  0.9309814E+02  0.7546771E-02  0.1391806E+00
         -2   -1    0    0    0  501 -0.00000000000E+00  0.00000000000E+00  0.59511916055E+01  0.59511916055E+01  0.00000000000E+00 0. -1.
          2   -1    0    0  501    0  0.00000000000E+00 -0.00000000000E+00 -0.51792474500E+03  0.51792474500E+03  0.00000000000E+00 0.  1.
         23    2    1    2    0    0  0.16322551242E+02  0.67996507469E+01 -0.41640437500E+03  0.42668473953E+03  0.91403514714E+02 0.  0.
         13    1    3    3    0    0 -0.25079646963E+02  0.28282322214E+02 -0.27968102624E+03  0.28222394455E+03  0.00000000000E+00 0. -1.
        -13    1    3    3    0    0  0.41402198205E+02 -0.21482671467E+02 -0.13672334876E+03  0.14446079498E+03  0.00000000000E+00 0.  1.
         22    1    1    2    0    0 -0.16322551242E+02 -0.67996507469E+01 -0.95569178399E+02  0.97191197076E+02  0.00000000000E+00 0. -1.
<mgrwt>
<rscale>  0 0.61459631E+02</rscale>
<asrwt>0</asrwt>
<pdfrwt beam="1">  1        2 0.79680749E-01 0.93098139E+02</pdfrwt>
<pdfrwt beam="2">  1       -2 0.91556772E-03 0.93098139E+02</pdfrwt>
<totfact> 0.12545581E+05</totfact>
</mgrwt>
</event>
<event>
 6    1  0.1828142E-002  0.1007768E+03  0.7546771E-02  0.1329535E+00
          3   -1    0    0  501    0  0.00000000000E+00  0.00000000000E+00  0.46769690118E+03  0.46769690118E+03  0.00000000000E+00 0. -1.
         -3   -1    0    0    0  501 -0.00000000000E+00 -0.00000000000E+00 -0.10707049386E+02  0.10707049386E+02  0.00000000000E+00 0.  1.
         23    2    1    2    0    0  0.34013555923E+02 -0.20435824271E+02  0.29987676003E+03  0.31635744951E+03  0.92635952823E+02 0.  0.
         13    1    3    3    0    0 -0.16439477050E+02  0.10916634911E+02  0.19362937374E+03  0.19463238091E+03  0.00000000000E+00 0. -1.
        -13    1    3    3    0    0  0.50453032972E+02 -0.31352459182E+02  0.10624738629E+03  0.12172506860E+03  0.00000000000E+00 0.  1.
         22    1    1    2    0    0 -0.34013555923E+02  0.20435824271E+02  0.15711309176E+03  0.16204650105E+03  0.00000000000E+00 0. -1.
<mgrwt>
<rscale>  0 0.79829760E+02</rscale>
<asrwt>0</asrwt>
<pdfrwt beam="1">  1        3 0.71953354E-01 0.10077681E+03</pdfrwt>
<pdfrwt beam="2">  1       -3 0.16472387E-02 0.10077681E+03</pdfrwt>
<totfact> 0.51613196E+03</totfact>
</mgrwt>
</event>
<event>
 6    1  0.1828142E-002  0.9668293E+02  0.7546771E-02  0.1383020E+00
          3   -1    0    0  501    0  0.00000000000E+00  0.00000000000E+00  0.28775245113E+02  0.28775245113E+02  0.00000000000E+00 0. -1.
         -3   -1    0    0    0  501 -0.00000000000E+00 -0.00000000000E+00 -0.12285882451E+03  0.12285882451E+03  0.00000000000E+00 0.  1.
         23    2    1    2    0    0 -0.14642427293E+02 -0.10794746817E+02 -0.62312692307E+02  0.11502373635E+03  0.94956100729E+02 0.  0.
         11    1    3    3    0    0 -0.47171650889E+02 -0.23578181758E+02 -0.12542153914E+02  0.54207019171E+02  0.00000000000E+00 0. -1.
        -11    1    3    3    0    0  0.32529223596E+02  0.12783434941E+02 -0.49770538392E+02  0.60816717179E+02  0.00000000000E+00 0.  1.
         22    1    1    2    0    0  0.14642427293E+02  0.10794746817E+02 -0.31770887088E+02  0.36610333272E+02  0.00000000000E+00 0.  1.
<mgrwt>
<rscale>  0 0.63676459E+02</rscale>
<asrwt>0</asrwt>
<pdfrwt beam="1">  1        3 0.44269609E-02 0.96682927E+02</pdfrwt>
<pdfrwt beam="2">  1       -3 0.18901357E-01 0.96682927E+02</pdfrwt>
<totfact> 0.14301308E+04</totfact>
</mgrwt>
</event>
<event>
 6    1  0.1828142E-002  0.8769085E+02  0.7546771E-02  0.1434107E+00
         -2   -1    0    0    0  501 -0.00000000000E+00  0.00000000000E+00  0.43367826334E+03  0.43367826334E+03  0.00000000000E+00 0.  1.
          2   -1    0    0  501    0  0.00000000000E+00 -0.00000000000E+00 -0.58285589148E+01  0.58285589148E+01  0.00000000000E+00 0. -1.
         23    2    1    2    0    0  0.10407336499E+02 -0.34491222431E+01  0.40154560069E+03  0.41100919129E+03  0.87002740158E+02 0.  0.
         11    1    3    3    0    0 -0.36940592629E+02 -0.10838098784E+02  0.21418641908E+03  0.21761868920E+03  0.00000000000E+00 0. -1.
        -11    1    3    3    0    0  0.47347929128E+02  0.73889765410E+01  0.18735918161E+03  0.19339050209E+03  0.00000000000E+00 0.  1.
         22    1    1    2    0    0 -0.10407336499E+02  0.34491222431E+01  0.26304103737E+02  0.28497630965E+02  0.00000000000E+00 0.  1.
<mgrwt>
<rscale>  0 0.52144426E+02</rscale>
<asrwt>0</asrwt>
<pdfrwt beam="1">  1        2 0.89670172E-03 0.87690854E+02</pdfrwt>
<pdfrwt beam="2">  1       -2 0.66719707E-01 0.87690854E+02</pdfrwt>
<totfact> 0.30666304E+04</totfact>
</mgrwt>
</event>
<event>
 6    1  0.1828142E-002  0.9288240E+02  0.7546771E-02  0.1406887E+00
          1   -1    0    0  501    0  0.00000000000E+00  0.00000000000E+00  0.61591643055E+02  0.61591643055E+02  0.00000000000E+00 0. -1.
         -1   -1    0    0    0  501 -0.00000000000E+00 -0.00000000000E+00 -0.50073488425E+02  0.50073488425E+02  0.00000000000E+00 0.  1.
         23    2    1    2    0    0  0.35272922092E+01  0.13568928021E+02 -0.97351465475E+00  0.92887501185E+02  0.91818203792E+02 0.  0.
         11    1    3    3    0    0  0.13746190494E+02  0.51153056070E+02 -0.71636522543E+01  0.53450077755E+02  0.00000000000E+00 0.  1.
        -11    1    3    3    0    0 -0.10218898285E+02 -0.37584128048E+02  0.61901375996E+01  0.39437423430E+02  0.00000000000E+00 0. -1.
         22    1    1    2    0    0 -0.35272922092E+01 -0.13568928021E+02  0.12491669285E+02  0.18777630295E+02  0.00000000000E+00 0. -1.
<mgrwt>
<rscale>  0 0.57894366E+02</rscale>
<asrwt>0</asrwt>
<pdfrwt beam="1">  1        1 0.94756374E-02 0.92882400E+02</pdfrwt>
<pdfrwt beam="2">  1       -1 0.77036136E-02 0.92882400E+02</pdfrwt>
<totfact> 0.54150509E+04</totfact>
</mgrwt>
</event>
<event>
 6    1  0.1828142E-002  0.9493973E+02  0.7546771E-02  0.1370995E+00
          3   -1    0    0  501    0  0.00000000000E+00  0.00000000000E+00  0.75472875455E+02  0.75472875455E+02  0.00000000000E+00 0. -1.
         -3   -1    0    0    0  501 -0.00000000000E+00 -0.00000000000E+00 -0.50699296237E+02  0.50699296237E+02  0.00000000000E+00 0.  1.
         23    2    1    2    0    0  0.11856996151E+02 -0.20168592413E+02  0.42249981912E+01  0.95033696138E+02  0.92011913980E+02 0.  0.
         11    1    3    3    0    0 -0.14327488115E+02 -0.37135426564E+02 -0.29157367584E+02  0.49340337516E+02  0.00000000000E+00 0.  1.
        -11    1    3    3    0    0  0.26184484267E+02  0.16966834151E+02  0.33382365775E+02  0.45693358622E+02  0.00000000000E+00 0. -1.
         22    1    1    2    0    0 -0.11856996151E+02  0.20168592413E+02  0.20548581026E+02  0.31138475555E+02  0.00000000000E+00 0. -1.
<mgrwt>
<rscale>  0 0.66891384E+02</rscale>
<asrwt>0</asrwt>
<pdfrwt beam="1">  1        3 0.11611212E-01 0.94939732E+02</pdfrwt>
<pdfrwt beam="2">  1       -3 0.77998917E-02 0.94939732E+02</pdfrwt>
<totfact> 0.13262209E+04</totfact>
</mgrwt>
</event>
<event>
 6    1  0.1828142E-002  0.9163614E+02  0.7546771E-02  0.1408890E+00
          4   -1    0    0  501    0  0.00000000000E+00  0.00000000000E+00  0.62029194655E+02  0.62029194655E+02  0.00000000000E+00 0. -1.
         -4   -1    0    0    0  501 -0.00000000000E+00 -0.00000000000E+00 -0.45987836281E+02  0.45987836281E+02  0.00000000000E+00 0.  1.
         23    2    1    2    0    0 -0.10464947903E+02 -0.95224362154E+01  0.86220747842E+01  0.92040870725E+02  0.90537228719E+02 0.  0.
         13    1    3    3    0    0 -0.36069729822E+01  0.95311132189E+01 -0.38990824061E+02  0.40300579825E+02  0.00000000000E+00 0.  1.
        -13    1    3    3    0    0 -0.68579749206E+01 -0.19053549434E+02  0.47612898845E+02  0.51740290900E+02  0.00000000000E+00 0. -1.
         22    1    1    2    0    0  0.10464947903E+02  0.95224362154E+01  0.74192835898E+01  0.15976160211E+02  0.00000000000E+00 0.  1.
<mgrwt>
<rscale>  0 0.57442178E+02</rscale>
<asrwt>0</asrwt>
<pdfrwt beam="1">  1        4 0.95429531E-02 0.91636138E+02</pdfrwt>
<pdfrwt beam="2">  1       -4 0.70750517E-02 0.91636138E+02</pdfrwt>
<totfact> 0.16073275E+04</totfact>
</mgrwt>
</event>
<event>
 6    1  0.1828142E-002  0.1004735E+03  0.7546771E-02  0.1325465E+00
         -1   -1    0    0    0  501 -0.00000000000E+00  0.00000000000E+00  0.68085759146E+02  0.68085759146E+02  0.00000000000E+00 0.  1.
          1   -1    0    0  501    0  0.00000000000E+00 -0.00000000000E+00 -0.10971771621E+03  0.10971771621E+03  0.00000000000E+00 0. -1.
         23    2    1    2    0    0  0.40756032145E+02  0.13789624433E+02  0.20191048909E+02  0.10248221696E+03  0.90794925187E+02 0.  0.
         13    1    3    3    0    0  0.64417403142E+02 -0.70792786248E+01  0.27002506426E+02  0.70205792971E+02  0.00000000000E+00 0.  1.
        -13    1    3    3    0    0 -0.23661370997E+02  0.20868903058E+02 -0.68114575172E+01  0.32276423993E+02  0.00000000000E+00 0. -1.
         22    1    1    2    0    0 -0.40756032145E+02 -0.13789624433E+02 -0.61823005975E+02  0.75321258393E+02  0.00000000000E+00 0. -1.
<mgrwt>
<rscale>  0 0.81277546E+02</rscale>
<asrwt>0</asrwt>
<pdfrwt beam="1">  1        1 0.16879648E-01 0.10047351E+03</pdfrwt>
<pdfrwt beam="2">  1       -1 0.10474732E-01 0.10047351E+03</pdfrwt>
<totfact> 0.16312248E+04</totfact>
</mgrwt>
</event>
<event>
 6    1  0.1828142E-002  0.9720381E+02  0.7546771E-02  0.1364198E+00
         -2   -1    0    0    0  501 -0.00000000000E+00  0.00000000000E+00  0.25463018905E+02  0.25463018905E+02  0.00000000000E+00 0.  1.
          2   -1    0    0  501    0  0.00000000000E+00 -0.00000000000E+00 -0.14526901064E+03  0.14526901064E+03  0.00000000000E+00 0. -1.
         23    2    1    2    0    0  0.24402014631E+02 -0.37870313275E+00 -0.97260022570E+02  0.13750670096E+03  0.94090270932E+02 0.  0.
         13    1    3    3    0    0 -0.34195915615E+02  0.80211827594E+01 -0.53046104732E+02  0.63620666806E+02  0.00000000000E+00 0. -1.
        -13    1    3    3    0    0  0.58597930246E+02 -0.83998858922E+01 -0.44213917838E+02  0.73886034152E+02  0.00000000000E+00 0.  1.
         22    1    1    2    0    0 -0.24402014631E+02  0.37870313275E+00 -0.22545969163E+02  0.33225328586E+02  0.00000000000E+00 0.  1.
<mgrwt>
<rscale>  0 0.68806895E+02</rscale>
<asrwt>0</asrwt>
<pdfrwt beam="1">  1        2 0.22349078E-01 0.97203811E+02</pdfrwt>
<pdfrwt beam="2">  1       -2 0.39173876E-02 0.97203811E+02</pdfrwt>
<totfact> 0.60352726E+04</totfact>
</mgrwt>
</event>
<event>
 6    1  0.1828142E-002  0.9820461E+02  0.7546771E-02  0.1382745E+00
          1   -1    0    0  501    0  0.00000000000E+00  0.00000000000E+00  0.19357430992E+01  0.19357430992E+01  0.00000000000E+00 0. -1.
         -1   -1    0    0    0  501 -0.00000000000E+00 -0.00000000000E+00 -0.21168070301E+04  0.21168070301E+04  0.00000000000E+00 0.  1.
         23    2    1    2    0    0  0.16862762140E+02  0.44371405816E+01 -0.20126899123E+04  0.20150843230E+04  0.96644217265E+02 0.  0.
         13    1    3    3    0    0  0.18508617220E+02 -0.28819852576E+02 -0.28176377285E+03  0.28383794057E+03  0.00000000000E+00 0. -1.
        -13    1    3    3    0    0 -0.16458550805E+01  0.33256993158E+02 -0.17309261395E+04  0.17312463825E+04  0.00000000000E+00 0.  1.
         22    1    1    2    0    0 -0.16862762140E+02 -0.44371405816E+01 -0.10218137468E+03  0.10365845018E+03  0.00000000000E+00 0.  1.
<mgrwt>
<rscale>  0 0.63747833E+02</rscale>
<asrwt>0</asrwt>
<pdfrwt beam="1">  1        1 0.29780676E-03 0.98204611E+02</pdfrwt>
<pdfrwt beam="2">  1       -1 0.32566248E+00 0.98204611E+02</pdfrwt>
<totfact> 0.23015773E+03</totfact>
</mgrwt>
</event>
<event>
 6    1  0.1828142E-002  0.9507306E+02  0.7546771E-02  0.1369479E+00
          2   -1    0    0  501    0  0.00000000000E+00  0.00000000000E+00  0.26829848445E+03  0.26829848445E+03  0.00000000000E+00 0. -1.
         -2   -1    0    0    0  501 -0.00000000000E+00 -0.00000000000E+00 -0.14731312181E+02  0.14731312181E+02  0.00000000000E+00 0.  1.
         23    2    1    2    0    0  0.23383475744E+02 -0.48898505746E+01  0.15692223349E+03  0.18347608365E+03  0.92022759859E+02 0.  0.
         13    1    3    3    0    0  0.31216152131E+02 -0.42241018779E+02  0.11699085976E+03  0.12824045028E+03  0.00000000000E+00 0. -1.
        -13    1    3    3    0    0 -0.78326763876E+01  0.37351168205E+02  0.39931373732E+02  0.55235633370E+02  0.00000000000E+00 0.  1.
         22    1    1    2    0    0 -0.23383475744E+02  0.48898505746E+01  0.96644938771E+02  0.99553712972E+02  0.00000000000E+00 0. -1.
<mgrwt>
<rscale>  0 0.67312209E+02</rscale>
<asrwt>0</asrwt>
<pdfrwt beam="1">  1        2 0.41276686E-01 0.95073056E+02</pdfrwt>
<pdfrwt beam="2">  1       -2 0.22663559E-02 0.95073056E+02</pdfrwt>
<totfact> 0.69135331E+04</totfact>
</mgrwt>
</event>
<event>
 6    1  0.1828142E-002  0.9234452E+02  0.7546771E-02  0.1411915E+00
          2   -1    0    0  501    0  0.00000000000E+00  0.00000000000E+00  0.54483740746E+02  0.54483740746E+02  0.00000000000E+00 0. -1.
         -2   -1    0    0    0  501 -0.00000000000E+00 -0.00000000000E+00 -0.62944475163E+02  0.62944475163E+02  0.00000000000E+00 0.  1.
         23    2    1    2    0    0 -0.13097987403E+02  0.15434569637E+01 -0.25576104099E+02  0.95820915921E+02  0.91397873573E+02 0.  0.
         11    1    3    3    0    0  0.21484279382E+02 -0.35087979042E+02 -0.17878899441E+02  0.44859732267E+02  0.00000000000E+00 0. -1.
        -11    1    3    3    0    0 -0.34582266785E+02  0.36631436006E+02 -0.76972046582E+01  0.50961183654E+02  0.00000000000E+00 0.  1.
         22    1    1    2    0    0  0.13097987403E+02 -0.15434569637E+01  0.17115369682E+02  0.21607299987E+02  0.00000000000E+00 0. -1.
<mgrwt>
<rscale>  0 0.56768595E+02</rscale>
<asrwt>0</asrwt>
<pdfrwt beam="1">  1        2 0.83821140E-02 0.92344522E+02</pdfrwt>
<pdfrwt beam="2">  1       -2 0.96837654E-02 0.92344522E+02</pdfrwt>
<totfact> 0.48296647E+04</totfact>
</mgrwt>
</event>
<event>
 6    1  0.1828142E-002  0.9407887E+02  0.7546771E-02  0.1373069E+00
         -2   -1    0    0    0  501 -0.00000000000E+00  0.00000000000E+00  0.36451529270E+03  0.36451529270E+03  0.00000000000E+00 0.  1.
          2   -1    0    0  501    0  0.00000000000E+00 -0.00000000000E+00 -0.20472513916E+02  0.20472513916E+02  0.00000000000E+00 0. -1.
         23    2    1    2    0    0 -0.14739580816E+02  0.17961123411E+02  0.34880526831E+03  0.36126991246E+03  0.91164561376E+02 0.  0.
         11    1    3    3    0    0  0.23609249029E+02  0.19875093278E+01  0.23666841771E+02  0.33488299934E+02  0.00000000000E+00 0. -1.
        -11    1    3    3    0    0 -0.38348829846E+02  0.15973614083E+02  0.32513842654E+03  0.32778161253E+03  0.00000000000E+00 0.  1.
         22    1    1    2    0    0  0.14739580816E+02 -0.17961123411E+02 -0.47624895240E+01  0.23717894158E+02  0.00000000000E+00 0. -1.
<mgrwt>
<rscale>  0 0.66321439E+02</rscale>
<asrwt>0</asrwt>
<pdfrwt beam="1">  1        2 0.31496178E-02 0.94078874E+02</pdfrwt>
<pdfrwt beam="2">  1       -2 0.56079271E-01 0.94078874E+02</pdfrwt>
<totfact> 0.80731598E+03</totfact>
</mgrwt>
</event>
<event>
 6    1  0.1828142E-002  0.9724213E+02  0.7546771E-02  0.1352818E+00
         -4   -1    0    0    0  501 -0.00000000000E+00  0.00000000000E+00  0.44337920504E+02  0.44337920504E+02  0.00000000000E+00 0.  1.
          4   -1    0    0  501    0  0.00000000000E+00 -0.00000000000E+00 -0.16377361107E+03  0.16377361107E+03  0.00000000000E+00 0. -1.
         23    2    1    2    0    0 -0.22150573868E+01 -0.29443556918E+02 -0.13544640100E+02  0.98180898482E+02  0.92650968846E+02 0.  0.
         11    1    3    3    0    0  0.35559519211E+00 -0.78378113767E+01 -0.52756581472E+02  0.53336803651E+02  0.00000000000E+00 0. -1.
        -11    1    3    3    0    0 -0.25706525789E+01 -0.21605745541E+02  0.39211941372E+02  0.44844094831E+02  0.00000000000E+00 0.  1.
         22    1    1    2    0    0  0.22150573868E+01  0.29443556918E+02 -0.10589105047E+03  0.10993063309E+03  0.00000000000E+00 0. -1.
<mgrwt>
<rscale>  0 0.72184639E+02</rscale>
<asrwt>0</asrwt>
<pdfrwt beam="1">  1        4 0.25195940E-01 0.97242128E+02</pdfrwt>
<pdfrwt beam="2">  1       -4 0.68212185E-02 0.97242128E+02</pdfrwt>
<totfact> 0.31984193E+03</totfact>
</mgrwt>
</event>
<event>
 6    1  0.1828142E-002  0.9205054E+02  0.7546771E-02  0.1425723E+00
          2   -1    0    0  501    0  0.00000000000E+00  0.00000000000E+00  0.40077564237E+01  0.40077564237E+01  0.00000000000E+00 0. -1.
         -2   -1    0    0    0  501 -0.00000000000E+00 -0.00000000000E+00 -0.68262597490E+03  0.68262597490E+03  0.00000000000E+00 0.  1.
         23    2    1    2    0    0  0.26900075279E+01 -0.10422154972E+02 -0.63830887739E+03  0.64491202914E+03  0.91419062084E+02 0.  0.
         11    1    3    3    0    0  0.43977026358E+02 -0.18260960687E+02 -0.26489739789E+03  0.26914322013E+03  0.00000000000E+00 0.  1.
        -11    1    3    3    0    0 -0.41287018830E+02  0.78388057151E+01 -0.37341147950E+03  0.37576880901E+03  0.00000000000E+00 0. -1.
         22    1    1    2    0    0 -0.26900075279E+01  0.10422154972E+02 -0.40309341080E+02  0.41721702183E+02  0.00000000000E+00 0. -1.
<mgrwt>
<rscale>  0 0.53828250E+02</rscale>
<asrwt>0</asrwt>
<pdfrwt beam="1">  1        2 0.61657785E-03 0.92050542E+02</pdfrwt>
<pdfrwt beam="2">  1       -2 0.10501939E+00 0.92050542E+02</pdfrwt>
<totfact> 0.19091192E+04</totfact>
</mgrwt>
</event>
<event>
 6    1  0.1828142E-002  0.7773921E+02  0.7546771E-02  0.1422403E+00
         -1   -1    0    0    0  501 -0.00000000000E+00  0.00000000000E+00  0.88270219680E+03  0.88270219680E+03  0.00000000000E+00 0.  1.
          1   -1    0    0  501    0  0.00000000000E+00 -0.00000000000E+00 -0.30884386649E+01  0.30884386649E+01  0.00000000000E+00 0. -1.
         23    2    1    2    0    0  0.13989166983E+02 -0.12560273893E+02  0.80867020999E+03  0.81239823602E+03  0.75431611984E+02 0.  0.
         11    1    3    3    0    0  0.35590682225E+02 -0.11324904523E+02  0.20722004318E+03  0.21055900935E+03  0.00000000000E+00 0. -1.
        -11    1    3    3    0    0 -0.21601515241E+02 -0.12353693700E+01  0.60145016681E+03  0.60183922667E+03  0.00000000000E+00 0.  1.
         22    1    1    2    0    0 -0.13989166983E+02  0.12560273893E+02  0.70943548143E+02  0.73392399444E+02  0.00000000000E+00 0. -1.
<mgrwt>
<rscale>  0 0.54515779E+02</rscale>
<asrwt>0</asrwt>
<pdfrwt beam="1">  1        1 0.47514511E-03 0.77739214E+02</pdfrwt>
<pdfrwt beam="2">  1       -1 0.13580014E+00 0.77739214E+02</pdfrwt>
<totfact> 0.19867903E+04</totfact>
</mgrwt>
</event>
<event>
 6    1  0.1828142E-002  0.8921472E+02  0.7546771E-02  0.1424491E+00
          2   -1    0    0  501    0  0.00000000000E+00  0.00000000000E+00  0.17721064275E+02  0.17721064275E+02  0.00000000000E+00 0. -1.
         -2   -1    0    0    0  501 -0.00000000000E+00 -0.00000000000E+00 -0.14898128854E+03  0.14898128854E+03  0.00000000000E+00 0.  1.
         23    2    1    2    0    0  0.52753796614E+01  0.10831217557E+02 -0.12356828881E+03  0.15240862078E+03  0.88397515722E+02 0.  0.
         11    1    3    3    0    0 -0.38909401418E+02  0.16001638440E+02 -0.41708496745E+02  0.59241815066E+02  0.00000000000E+00 0. -1.
        -11    1    3    3    0    0  0.44184781080E+02 -0.51704208827E+01 -0.81859792063E+02  0.93166805719E+02  0.00000000000E+00 0.  1.
         22    1    1    2    0    0 -0.52753796614E+01 -0.10831217557E+02 -0.76919354588E+01  0.14293732033E+02  0.00000000000E+00 0.  1.
<mgrwt>
<rscale>  0 0.54081982E+02</rscale>
<asrwt>0</asrwt>
<pdfrwt beam="1">  1        2 0.27263176E-02 0.89214717E+02</pdfrwt>
<pdfrwt beam="2">  1       -2 0.22920198E-01 0.89214717E+02</pdfrwt>
<totfact> 0.50655493E+04</totfact>
</mgrwt>
</event>
<event>
 6    1  0.1828142E-002  0.9360542E+02  0.7546771E-02  0.1426479E+00
         -2   -1    0    0    0  501 -0.00000000000E+00  0.00000000000E+00  0.24449917462E+03  0.24449917462E+03  0.00000000000E+00 0.  1.
          2   -1    0    0  501    0  0.00000000000E+00 -0.00000000000E+00 -0.11391860515E+02  0.11391860515E+02  0.00000000000E+00 0. -1.
         23    2    1    2    0    0  0.14736801842E+00 -0.10117843885E+02  0.22165089471E+03  0.24060568177E+03  0.93056877717E+02 0.  0.
         13    1    3    3    0    0 -0.23844723692E+02  0.38946294885E+01  0.84405552192E+01  0.25592615325E+02  0.00000000000E+00 0. -1.
        -13    1    3    3    0    0  0.23992091710E+02 -0.14012473373E+02  0.21321033949E+03  0.21501306644E+03  0.00000000000E+00 0.  1.
         22    1    1    2    0    0 -0.14736801842E+00  0.10117843885E+02  0.11456419390E+02  0.15285353363E+02  0.00000000000E+00 0.  1.
<mgrwt>
<rscale>  0 0.53673419E+02</rscale>
<asrwt>0</asrwt>
<pdfrwt beam="1">  1        2 0.17525941E-02 0.93605422E+02</pdfrwt>
<pdfrwt beam="2">  1       -2 0.37615254E-01 0.93605422E+02</pdfrwt>
<totfact> 0.38304331E+04</totfact>
</mgrwt>
</event>
<event>
 6    1  0.1828142E-002  0.9549530E+02  0.7546771E-02  0.1377604E+00
          2   -1    0    0  501    0  0.00000000000E+00  0.00000000000E+00  0.16251360734E+03  0.16251360734E+03  0.00000000000E+00 0. -1.
         -2   -1    0    0    0  501 -0.00000000000E+00 -0.00000000000E+00 -0.22868804063E+02  0.22868804063E+02  0.00000000000E+00 0.  1.
         23    2    1    2    0    0  0.80471427808E+01 -0.18986552516E+02  0.88344917898E+02  0.13009295560E+03  0.93242194817E+02 0.  0.
         13    1    3    3    0    0 -0.27232168707E+01  0.37677078998E+02  0.33088188655E+02  0.50217590746E+02  0.00000000000E+00 0. -1.
        -13    1    3    3    0    0  0.10770359652E+02 -0.56663631514E+02  0.55256729244E+02  0.79875364851E+02  0.00000000000E+00 0.  1.
         22    1    1    2    0    0 -0.80471427808E+01  0.18986552516E+02  0.51299885377E+02  0.55289455804E+02  0.00000000000E+00 0. -1.
<mgrwt>
<rscale>  0 0.65097827E+02</rscale>
<asrwt>0</asrwt>
<pdfrwt beam="1">  1        2 0.25002093E-01 0.95495301E+02</pdfrwt>
<pdfrwt beam="2">  1       -2 0.35182776E-02 0.95495301E+02</pdfrwt>
<totfact> 0.62324763E+04</totfact>
</mgrwt>
</event>
<event>
 6    1  0.1828142E-002  0.1083976E+03  0.7546771E-02  0.1292533E+00
          1   -1    0    0  501    0  0.00000000000E+00  0.00000000000E+00  0.93254303938E+03  0.93254303938E+03  0.00000000000E+00 0. -1.
         -1   -1    0    0    0  501 -0.00000000000E+00 -0.00000000000E+00 -0.82419491564E+01  0.82419491564E+01  0.00000000000E+00 0.  1.
         23    2    1    2    0    0 -0.28638033326E+02  0.55382624315E+02  0.68354938062E+03  0.69209088385E+03  0.88671662515E+02 0.  0.
         13    1    3    3    0    0 -0.20051360225E+02  0.45935129591E+02  0.14551145762E+03  0.15390151876E+03  0.00000000000E+00 0.  1.
        -13    1    3    3    0    0 -0.85866731015E+01  0.94474947242E+01  0.53803792300E+03  0.53818936509E+03  0.00000000000E+00 0. -1.
         22    1    1    2    0    0  0.28638033326E+02 -0.55382624315E+02  0.24075170961E+03  0.24869410469E+03  0.00000000000E+00 0. -1.
<mgrwt>
<rscale>  0 0.94399938E+02</rscale>
<asrwt>0</asrwt>
<pdfrwt beam="1">  1        1 0.14346808E+00 0.10839758E+03</pdfrwt>
<pdfrwt beam="2">  1       -1 0.12679929E-02 0.10839758E+03</pdfrwt>
<totfact> 0.22394412E+04</totfact>
</mgrwt>
</event>
<event>
 6    1  0.1828142E-002  0.9359362E+02  0.7546771E-02  0.1325703E+00
          1   -1    0    0  501    0  0.00000000000E+00  0.00000000000E+00  0.41301403496E+03  0.41301403496E+03  0.00000000000E+00 0. -1.
         -1   -1    0    0    0  501 -0.00000000000E+00 -0.00000000000E+00 -0.15241228443E+02  0.15241228443E+02  0.00000000000E+00 0.  1.
         23    2    1    2    0    0  0.17525153685E+02 -0.50022858943E+02  0.16665830524E+03  0.19114067059E+03  0.77138497627E+02 0.  0.
         11    1    3    3    0    0 -0.98459776137E+00 -0.24073605712E+02  0.28518967318E+01  0.24261929843E+02  0.00000000000E+00 0.  1.
        -11    1    3    3    0    0  0.18509751446E+02 -0.25949253231E+02  0.16380640851E+03  0.16687874074E+03  0.00000000000E+00 0. -1.
         22    1    1    2    0    0 -0.17525153685E+02  0.50022858943E+02  0.23111450127E+03  0.23711459282E+03  0.00000000000E+00 0.  1.
<mgrwt>
<rscale>  0 0.81191714E+02</rscale>
<asrwt>0</asrwt>
<pdfrwt beam="1">  1        1 0.63540612E-01 0.93593618E+02</pdfrwt>
<pdfrwt beam="2">  1       -1 0.23448047E-02 0.93593618E+02</pdfrwt>
<totfact> 0.28266238E+04</totfact>
</mgrwt>
</event>
<event>
 6    1  0.1828142E-002  0.9603880E+02  0.7546771E-02  0.1421002E+00
          2   -1    0    0  501    0  0.00000000000E+00  0.00000000000E+00  0.48397883121E+01  0.48397883121E+01  0.00000000000E+00 0. -1.
         -2   -1    0    0    0  501 -0.00000000000E+00 -0.00000000000E+00 -0.64054661755E+03  0.64054661755E+03  0.00000000000E+00 0.  1.
         23    2    1    2    0    0 -0.66107532415E+01 -0.77517423694E+01 -0.61327738525E+03  0.62075164331E+03  0.95496910160E+02 0.  0.
         11    1    3    3    0    0  0.29593784541E+02 -0.33107339997E+02 -0.42696659948E+03  0.42926957162E+03  0.00000000000E+00 0. -1.
        -11    1    3    3    0    0 -0.36204537782E+02  0.25355597627E+02 -0.18631078577E+03  0.19148207170E+03  0.00000000000E+00 0.  1.
         22    1    1    2    0    0  0.66107532415E+01  0.77517423694E+01 -0.22429443987E+02  0.24634762547E+02  0.00000000000E+00 0.  1.
<mgrwt>
<rscale>  0 0.54809433E+02</rscale>
<asrwt>0</asrwt>
<pdfrwt beam="1">  1        2 0.74458312E-03 0.96038802E+02</pdfrwt>
<pdfrwt beam="2">  1       -2 0.98545594E-01 0.96038802E+02</pdfrwt>
<totfact> 0.17150362E+04</totfact>
</mgrwt>
</event>
<event>
 6    1  0.1828142E-002  0.1293902E+03  0.7546771E-02  0.1245218E+00
          2   -1    0    0  501    0  0.00000000000E+00  0.00000000000E+00  0.12833733316E+03  0.12833733316E+03  0.00000000000E+00 0. -1.
         -2   -1    0    0    0  501 -0.00000000000E+00 -0.00000000000E+00 -0.97229828250E+02  0.97229828250E+02  0.00000000000E+00 0.  1.
         23    2    1    2    0    0 -0.91125387751E+02  0.10389165057E+02  0.34080658252E+02  0.13380327590E+03  0.91269131320E+02 0.  0.
         13    1    3    3    0    0  0.47914598103E+01  0.81466697026E+01  0.36626676111E+02  0.37826442039E+02  0.00000000000E+00 0. -1.
        -13    1    3    3    0    0 -0.95916847561E+02  0.22424953540E+01 -0.25460178596E+01  0.95976833863E+02  0.00000000000E+00 0.  1.
         22    1    1    2    0    0  0.91125387751E+02 -0.10389165057E+02 -0.29731533389E+01  0.91763885511E+02  0.00000000000E+00 0.  1.
<mgrwt>
<rscale>  0 0.11872358E+03</rscale>
<asrwt>0</asrwt>
<pdfrwt beam="1">  1        2 0.19744205E-01 0.12939021E+03</pdfrwt>
<pdfrwt beam="2">  1       -2 0.14958435E-01 0.12939021E+03</pdfrwt>
<totfact> 0.90997423E+03</totfact>
</mgrwt>
</event>
<event>
 6    1  0.1828142E-002  0.9280829E+02  0.7546771E-02  0.1412155E+00
         -2   -1    0    0    0  501 -0.00000000000E+00  0.00000000000E+00  0.11549974910E+03  0.11549974910E+03  0.00000000000E+00 0.  1.
          2   -1    0    0  501    0  0.00000000000E+00 -0.00000000000E+00 -0.24349798815E+02  0.24349798815E+02  0.00000000000E+00 0. -1.
         23    2    1    2    0    0 -0.39614680576E+01  0.12322481874E+02  0.83318866004E+02  0.12472134016E+03  0.91901264799E+02 0.  0.
         11    1    3    3    0    0  0.23135170003E+02 -0.87267900680E+01 -0.89366590687E+01  0.26291763563E+02  0.00000000000E+00 0. -1.
        -11    1    3    3    0    0 -0.27096638061E+02  0.21049271942E+02  0.92255525073E+02  0.98429576602E+02  0.00000000000E+00 0.  1.
         22    1    1    2    0    0  0.39614680576E+01 -0.12322481874E+02  0.78310842822E+01  0.15128207750E+02  0.00000000000E+00 0.  1.
<mgrwt>
<rscale>  0 0.56715774E+02</rscale>
<asrwt>0</asrwt>
<pdfrwt beam="1">  1        2 0.37461230E-02 0.92808293E+02</pdfrwt>
<pdfrwt beam="2">  1       -2 0.17769192E-01 0.92808293E+02</pdfrwt>
<totfact> 0.51291984E+04</totfact>
</mgrwt>
</event>
<event>
 6    1  0.1828142E-002  0.9316798E+02  0.7546771E-02  0.1391789E+00
          2   -1    0    0  501    0  0.00000000000E+00  0.00000000000E+00  0.22488468614E+03  0.22488468614E+03  0.00000000000E+00 0. -1.
         -2   -1    0    0    0  501 -0.00000000000E+00 -0.00000000000E+00 -0.15460165831E+02  0.15460165831E+02  0.00000000000E+00 0.  1.
         23    2    1    2    0    0 -0.17513088883E+02  0.21723203717E+01  0.13615566914E+03  0.16498072383E+03  0.91481395597E+02 0.  0.
         11    1    3    3    0    0  0.12954201363E+01 -0.32933584818E+02  0.11551087934E+03  0.12012103217E+03  0.00000000000E+00 0. -1.
        -11    1    3    3    0    0 -0.18808509019E+02  0.35105905190E+02  0.20644789793E+02  0.44859691666E+02  0.00000000000E+00 0.  1.
         22    1    1    2    0    0  0.17513088883E+02 -0.21723203717E+01  0.73268851176E+02  0.75364128142E+02  0.00000000000E+00 0.  1.
<mgrwt>
<rscale>  0 0.61463827E+02</rscale>
<asrwt>0</asrwt>
<pdfrwt beam="1">  1        2 0.34597642E-01 0.93167983E+02</pdfrwt>
<pdfrwt beam="2">  1       -2 0.23784872E-02 0.93167983E+02</pdfrwt>
<totfact> 0.77438970E+04</totfact>
</mgrwt>
</event>
<event>
 6    1  0.1828142E-002  0.9245975E+02  0.7546771E-02  0.1404071E+00
         -2   -1    0    0    0  501 -0.00000000000E+00  0.00000000000E+00  0.16165885935E+03  0.16165885935E+03  0.00000000000E+00 0.  1.
          2   -1    0    0  501    0  0.00000000000E+00 -0.00000000000E+00 -0.30821323794E+02  0.30821323794E+02  0.00000000000E+00 0. -1.
         23    2    1    2    0    0 -0.60233924741E+01 -0.13579834022E+02  0.14499021214E+03  0.17196210809E+03  0.91258489221E+02 0.  0.
         11    1    3    3    0    0  0.15578277016E+02 -0.42522072802E+02  0.38250472011E+02  0.59278225338E+02  0.00000000000E+00 0. -1.
        -11    1    3    3    0    0 -0.21601669490E+02  0.28942238780E+02  0.10673974013E+03  0.11268388276E+03  0.00000000000E+00 0.  1.
         22    1    1    2    0    0  0.60233924741E+01  0.13579834022E+02 -0.14152676588E+02  0.20518075046E+02  0.00000000000E+00 0. -1.
<mgrwt>
<rscale>  0 0.58538034E+02</rscale>
<asrwt>0</asrwt>
<pdfrwt beam="1">  1        2 0.47417422E-02 0.92459748E+02</pdfrwt>
<pdfrwt beam="2">  1       -2 0.24870593E-01 0.92459748E+02</pdfrwt>
<totfact> 0.21363368E+04</totfact>
</mgrwt>
</event>
<event>
 6    1  0.1828142E-002  0.9406721E+02  0.7546771E-02  0.1414703E+00
          4   -1    0    0  501    0  0.00000000000E+00  0.00000000000E+00  0.38972315023E+02  0.38972315023E+02  0.00000000000E+00 0. -1.
         -4   -1    0    0    0  501 -0.00000000000E+00 -0.00000000000E+00 -0.72272302721E+02  0.72272302721E+02  0.00000000000E+00 0.  1.
         23    2    1    2    0    0 -0.12763048934E+01 -0.11880213704E+02 -0.27786420189E+02  0.98085291830E+02  0.93305256522E+02 0.  0.
         13    1    3    3    0    0  0.25981495792E+02 -0.37471893715E+02  0.80412722291E+01  0.46301652252E+02  0.00000000000E+00 0. -1.
        -13    1    3    3    0    0 -0.27257800685E+02  0.25591680011E+02 -0.35827692418E+02  0.51783639578E+02  0.00000000000E+00 0.  1.
         22    1    1    2    0    0  0.12763048934E+01  0.11880213704E+02 -0.55135675091E+01  0.13159325914E+02  0.00000000000E+00 0. -1.
<mgrwt>
<rscale>  0 0.56157493E+02</rscale>
<asrwt>0</asrwt>
<pdfrwt beam="1">  1        4 0.59957408E-02 0.94067206E+02</pdfrwt>
<pdfrwt beam="2">  1       -4 0.11118816E-01 0.94067206E+02</pdfrwt>
<totfact> 0.16400817E+04</totfact>
</mgrwt>
</event>
<event>
 6    1  0.1828142E-002  0.9427740E+02  0.7546771E-02  0.1400518E+00
          2   -1    0    0  501    0  0.00000000000E+00  0.00000000000E+00  0.71814961716E+02  0.71814961716E+02  0.00000000000E+00 0. -1.
         -2   -1    0    0    0  501 -0.00000000000E+00 -0.00000000000E+00 -0.55755280356E+02  0.55755280356E+02  0.00000000000E+00 0.  1.
         23    2    1    2    0    0 -0.19522023829E+00 -0.14819980383E+02 -0.12785198067E+02  0.95140363894E+02  0.93105089135E+02 0.  0.
         13    1    3    3    0    0  0.68940055559E+01  0.52376881365E-01 -0.52078454745E+02  0.52532804080E+02  0.00000000000E+00 0.  1.
        -13    1    3    3    0    0 -0.70892257942E+01 -0.14872357264E+02  0.39293256678E+02  0.42607559814E+02  0.00000000000E+00 0. -1.
         22    1    1    2    0    0  0.19522023829E+00  0.14819980383E+02  0.28844879427E+02  0.32429878178E+02  0.00000000000E+00 0. -1.
<mgrwt>
<rscale>  0 0.59364527E+02</rscale>
<asrwt>0</asrwt>
<pdfrwt beam="1">  1        2 0.11048456E-01 0.94277397E+02</pdfrwt>
<pdfrwt beam="2">  1       -2 0.85777355E-02 0.94277397E+02</pdfrwt>
<totfact> 0.41726378E+04</totfact>
</mgrwt>
</event>
<event>
 6    1  0.1828142E-002  0.9341455E+02  0.7546771E-02  0.1392044E+00
          2   -1    0    0  501    0  0.00000000000E+00  0.00000000000E+00  0.72671547297E+01  0.72671547297E+01  0.00000000000E+00 0. -1.
         -2   -1    0    0    0  501 -0.00000000000E+00 -0.00000000000E+00 -0.70991267263E+03  0.70991267263E+03  0.00000000000E+00 0.  1.
         23    2    1    2    0    0  0.16823639481E+02  0.45828626738E+01 -0.68827268715E+03  0.69458301919E+03  0.91772769336E+02 0.  0.
         13    1    3    3    0    0  0.42167363353E+02  0.18504680692E+02 -0.19108926577E+03  0.19655944961E+03  0.00000000000E+00 0. -1.
        -13    1    3    3    0    0 -0.25343723872E+02 -0.13921818018E+02 -0.49718342139E+03  0.49802356958E+03  0.00000000000E+00 0.  1.
         22    1    1    2    0    0 -0.16823639481E+02 -0.45828626738E+01 -0.14372830742E+02  0.22596808164E+02  0.00000000000E+00 0. -1.
<mgrwt>
<rscale>  0 0.61401191E+02</rscale>
<asrwt>0</asrwt>
<pdfrwt beam="1">  1        2 0.11180240E-02 0.93414553E+02</pdfrwt>
<pdfrwt beam="2">  1       -2 0.10921731E+00 0.93414553E+02</pdfrwt>
<totfact> 0.77152517E+03</totfact>
</mgrwt>
</event>
<event>
 6    1  0.1828142E-002  0.9911760E+02  0.7546771E-02  0.1380934E+00
         -2   -1    0    0    0  501 -0.00000000000E+00  0.00000000000E+00  0.11050700836E+03  0.11050700836E+03  0.00000000000E+00 0.  1.
          2   -1    0    0  501    0  0.00000000000E+00 -0.00000000000E+00 -0.31154211350E+02  0.31154211350E+02  0.00000000000E+00 0. -1.
         23    2    1    2    0    0  0.17053178778E+02  0.37760951027E+01  0.72906715666E+02  0.12304343882E+03  0.97566535480E+02 0.  0.
         13    1    3    3    0    0  0.33505180258E+02 -0.13285198824E+02 -0.95181740521E+01  0.37278536039E+02  0.00000000000E+00 0. -1.
        -13    1    3    3    0    0 -0.16452001480E+02  0.17061293927E+02  0.82424889718E+02  0.85764902776E+02  0.00000000000E+00 0.  1.
         22    1    1    2    0    0 -0.17053178778E+02 -0.37760951027E+01  0.64460813410E+01  0.18617780891E+02  0.00000000000E+00 0. -1.
<mgrwt>
<rscale>  0 0.64218918E+02</rscale>
<asrwt>0</asrwt>
<pdfrwt beam="1">  1        2 0.47929556E-02 0.99117600E+02</pdfrwt>
<pdfrwt beam="2">  1       -2 0.17001078E-01 0.99117600E+02</pdfrwt>
<totfact> 0.40357503E+04</totfact>
</mgrwt>
</event>
<event>
 6    1  0.1828142E-002  0.9301287E+02  0.7546771E-02  0.1417912E+00
          2   -1    0    0  501    0  0.00000000000E+00  0.00000000000E+00  0.28361950723E+01  0.28361950723E+01  0.00000000000E+00 0.  1.
         -2   -1    0    0    0  501 -0.00000000000E+00 -0.00000000000E+00 -0.12866954148E+04  0.12866954148E+04  0.00000000000E+00 0. -1.
         23    2    1    2    0    0  0.78872586999E+01  0.87244250729E+01 -0.12539221108E+04  0.12573671118E+04  0.92266296905E+02 0.  0.
         13    1    3    3    0    0  0.34943562669E+02 -0.17917705726E+02 -0.98444084081E+03  0.98522376433E+03  0.00000000000E+00 0. -1.
        -13    1    3    3    0    0 -0.27056303969E+02  0.26642130799E+02 -0.26948127000E+03  0.27214334752E+03  0.00000000000E+00 0.  1.
         22    1    1    2    0    0 -0.78872586999E+01 -0.87244250729E+01 -0.29937108931E+02  0.32164498034E+02  0.00000000000E+00 0.  1.
<mgrwt>
<rscale>  0 0.55465081E+02</rscale>
<asrwt>0</asrwt>
<pdfrwt beam="1">  1        2 0.43633766E-03 0.93012870E+02</pdfrwt>
<pdfrwt beam="2">  1       -2 0.19795316E+00 0.93012870E+02</pdfrwt>
<totfact> 0.62209713E+03</totfact>
</mgrwt>
</event>
<event>
 6    1  0.1828142E-002  0.9194558E+02  0.7546771E-02  0.1399154E+00
          2   -1    0    0  501    0  0.00000000000E+00  0.00000000000E+00  0.18010420999E+02  0.18010420999E+02  0.00000000000E+00 0. -1.
         -2   -1    0    0    0  501 -0.00000000000E+00 -0.00000000000E+00 -0.17059569818E+03  0.17059569818E+03  0.00000000000E+00 0.  1.
         23    2    1    2    0    0 -0.88251413686E+01  0.13736095690E+02 -0.14193080716E+03  0.16911044847E+03  0.90484398185E+02 0.  0.
         13    1    3    3    0    0 -0.40656213129E+02  0.36110905394E+01 -0.25836141679E+02  0.48306043698E+02  0.00000000000E+00 0. -1.
        -13    1    3    3    0    0  0.31831071760E+02  0.10125005151E+02 -0.11609466548E+03  0.12080440477E+03  0.00000000000E+00 0.  1.
         22    1    1    2    0    0  0.88251413686E+01 -0.13736095690E+02 -0.10654470016E+02  0.19495670707E+02  0.00000000000E+00 0.  1.
<mgrwt>
<rscale>  0 0.59686102E+02</rscale>
<asrwt>0</asrwt>
<pdfrwt beam="1">  1        2 0.27708339E-02 0.91945580E+02</pdfrwt>
<pdfrwt beam="2">  1       -2 0.26245493E-01 0.91945580E+02</pdfrwt>
<totfact> 0.39417253E+04</totfact>
</mgrwt>
</event>
<event>
 6    1  0.1828142E-002  0.9274107E+02  0.7546771E-02  0.1391051E+00
         -2   -1    0    0    0  501 -0.00000000000E+00  0.00000000000E+00  0.92513192973E+02  0.92513192973E+02  0.00000000000E+00 0.  1.
          2   -1    0    0  501    0  0.00000000000E+00 -0.00000000000E+00 -0.34484923922E+02  0.34484923922E+02  0.00000000000E+00 0. -1.
         23    2    1    2    0    0  0.15553801517E+02  0.92673399958E+01  0.57013482717E+02  0.10886433286E+03  0.90956590881E+02 0.  0.
         13    1    3    3    0    0 -0.20868214498E+02 -0.19905740759E+02 -0.69714734104E+01  0.29670226373E+02  0.00000000000E+00 0. -1.
        -13    1    3    3    0    0  0.36422016015E+02  0.29173080755E+02  0.63984956127E+02  0.79194106485E+02  0.00000000000E+00 0.  1.
         22    1    1    2    0    0 -0.15553801517E+02 -0.92673399958E+01  0.10147863342E+01  0.18133784038E+02  0.00000000000E+00 0.  1.
<mgrwt>
<rscale>  0 0.61646143E+02</rscale>
<asrwt>0</asrwt>
<pdfrwt beam="1">  1        2 0.53053729E-02 0.92741068E+02</pdfrwt>
<pdfrwt beam="2">  1       -2 0.14232799E-01 0.92741068E+02</pdfrwt>
<totfact> 0.46835714E+04</totfact>
</mgrwt>
</event>
<event>
 6    1  0.1828142E-002  0.9170494E+02  0.7546771E-02  0.1410556E+00
         -1   -1    0    0    0  501 -0.00000000000E+00  0.00000000000E+00  0.46904605260E+03  0.46904605260E+03  0.00000000000E+00 0.  1.
          1   -1    0    0  501    0  0.00000000000E+00 -0.00000000000E+00 -0.35854689490E+02  0.35854689490E+02  0.00000000000E+00 0. -1.
         23    2    1    2    0    0  0.55718085494E+01  0.12575547241E+02  0.46304088753E+03  0.47203459617E+03  0.90667563194E+02 0.  0.
         13    1    3    3    0    0 -0.18847164890E+02  0.45112191874E+02  0.30217399571E+03  0.30610365754E+03  0.00000000000E+00 0.  1.
        -13    1    3    3    0    0  0.24418973440E+02 -0.32536644633E+02  0.16086689183E+03  0.16593093863E+03  0.00000000000E+00 0. -1.
         22    1    1    2    0    0 -0.55718085494E+01 -0.12575547241E+02 -0.29849524426E+02  0.32866145916E+02  0.00000000000E+00 0. -1.
<mgrwt>
<rscale>  0 0.57069842E+02</rscale>
<asrwt>0</asrwt>
<pdfrwt beam="1">  1        1 0.55161064E-02 0.91704942E+02</pdfrwt>
<pdfrwt beam="2">  1       -1 0.72160927E-01 0.91704942E+02</pdfrwt>
<totfact> 0.27606025E+03</totfact>
</mgrwt>
</event>
<event>
 6    1  0.1828142E-002  0.8740133E+02  0.7546771E-02  0.1418745E+00
         -2   -1    0    0    0  501 -0.00000000000E+00  0.00000000000E+00  0.90959454047E+03  0.90959454047E+03  0.00000000000E+00 0.  1.
          2   -1    0    0  501    0  0.00000000000E+00 -0.00000000000E+00 -0.30391346952E+01  0.30391346952E+01  0.00000000000E+00 0. -1.
         23    2    1    2    0    0  0.13442945733E+02  0.38892769732E+01  0.84497265862E+03  0.84948089207E+03  0.86273709283E+02 0.  0.
         11    1    3    3    0    0  0.19092511072E+02  0.77094609854E+01  0.84163716650E+03  0.84188899494E+03  0.00000000000E+00 0.  1.
        -11    1    3    3    0    0 -0.56495653387E+01 -0.38201840122E+01  0.33354921249E+01  0.75918971357E+01  0.00000000000E+00 0. -1.
         22    1    1    2    0    0 -0.13442945733E+02 -0.38892769732E+01  0.61582747148E+02  0.63152783087E+02  0.00000000000E+00 0.  1.
<mgrwt>
<rscale>  0 0.55287378E+02</rscale>
<asrwt>0</asrwt>
<pdfrwt beam="1">  1        2 0.46755991E-03 0.87401328E+02</pdfrwt>
<pdfrwt beam="2">  1       -2 0.13993741E+00 0.87401328E+02</pdfrwt>
<totfact> 0.13959192E+04</totfact>
</mgrwt>
</event>
<event>
 6    1  0.1828142E-002  0.9076816E+02  0.7546771E-02  0.1424105E+00
          4   -1    0    0  501    0  0.00000000000E+00  0.00000000000E+00  0.57273969381E+02  0.57273969381E+02  0.00000000000E+00 0. -1.
         -4   -1    0    0    0  501 -0.00000000000E+00 -0.00000000000E+00 -0.58653906232E+02  0.58653906232E+02  0.00000000000E+00 0.  1.
         23    2    1    2    0    0 -0.20561972072E+01  0.11322077800E+02 -0.21015141390E+02  0.93169170686E+02  0.90035775145E+02 0.  0.
         13    1    3    3    0    0  0.44738792709E+01  0.78302387805E+00  0.35256524773E+02  0.35547872808E+02  0.00000000000E+00 0. -1.
        -13    1    3    3    0    0 -0.65300764781E+01  0.10539053922E+02 -0.56271666163E+02  0.57621297878E+02  0.00000000000E+00 0.  1.
         22    1    1    2    0    0  0.20561972072E+01 -0.11322077800E+02  0.19635204539E+02  0.22758704927E+02  0.00000000000E+00 0.  1.
<mgrwt>
<rscale>  0 0.54161822E+02</rscale>
<asrwt>0</asrwt>
<pdfrwt beam="1">  1        4 0.88113798E-02 0.90768156E+02</pdfrwt>
<pdfrwt beam="2">  1       -4 0.90236779E-02 0.90768156E+02</pdfrwt>
<totfact> 0.12268934E+04</totfact>
</mgrwt>
</event>
<event>
 6    1  0.1828142E-002  0.9493259E+02  0.7546771E-02  0.1384143E+00
          2   -1    0    0  501    0  0.00000000000E+00  0.00000000000E+00  0.27453905700E+02  0.27453905700E+02  0.00000000000E+00 0.  1.
         -2   -1    0    0    0  501 -0.00000000000E+00 -0.00000000000E+00 -0.14153037968E+03  0.14153037968E+03  0.00000000000E+00 0. -1.
         23    2    1    2    0    0  0.18859786936E+02  0.60492126077E+00 -0.11613998030E+03  0.15000230573E+03  0.93038374918E+02 0.  0.
         11    1    3    3    0    0  0.24679626420E+02 -0.14832306696E+02 -0.12701815150E+03  0.13024090023E+03  0.00000000000E+00 0. -1.
        -11    1    3    3    0    0 -0.58198394837E+01  0.15437227957E+02  0.10878171202E+02  0.19761405499E+02  0.00000000000E+00 0.  1.
         22    1    1    2    0    0 -0.18859786936E+02 -0.60492126077E+00  0.20635063217E+01  0.18981979647E+02  0.00000000000E+00 0. -1.
<mgrwt>
<rscale>  0 0.63387192E+02</rscale>
<asrwt>0</asrwt>
<pdfrwt beam="1">  1        2 0.42236777E-02 0.94932590E+02</pdfrwt>
<pdfrwt beam="2">  1       -2 0.21773905E-01 0.94932590E+02</pdfrwt>
<totfact> 0.31289302E+04</totfact>
</mgrwt>
</event>
<event>
 6    1  0.1828142E-002  0.9354503E+02  0.7546771E-02  0.1395214E+00
          2   -1    0    0  501    0  0.00000000000E+00  0.00000000000E+00  0.12412983929E+03  0.12412983929E+03  0.00000000000E+00 0. -1.
         -2   -1    0    0    0  501 -0.00000000000E+00 -0.00000000000E+00 -0.54520006821E+02  0.54520006821E+02  0.00000000000E+00 0.  1.
         23    2    1    2    0    0  0.12426775069E+02 -0.10863619083E+02 -0.12967050216E+02  0.94439487412E+02  0.92077301400E+02 0.  0.
         11    1    3    3    0    0  0.17439884341E+02 -0.21547107534E+02  0.35224504931E+02  0.44824024323E+02  0.00000000000E+00 0. -1.
        -11    1    3    3    0    0 -0.50131092721E+01  0.10683488451E+02 -0.48191555147E+02  0.49615463089E+02  0.00000000000E+00 0.  1.
         22    1    1    2    0    0 -0.12426775069E+02  0.10863619083E+02  0.82576882687E+02  0.84210358701E+02  0.00000000000E+00 0. -1.
<mgrwt>
<rscale>  0 0.60628243E+02</rscale>
<asrwt>0</asrwt>
<pdfrwt beam="1">  1        2 0.19096898E-01 0.93545029E+02</pdfrwt>
<pdfrwt beam="2">  1       -2 0.83876934E-02 0.93545029E+02</pdfrwt>
<totfact> 0.22842729E+04</totfact>
</mgrwt>
</event>
<event>
 6    1  0.1828142E-002  0.9362486E+02  0.7546771E-02  0.1404464E+00
          4   -1    0    0  501    0  0.00000000000E+00  0.00000000000E+00  0.25637725722E+02  0.25637725722E+02  0.00000000000E+00 0. -1.
         -4   -1    0    0    0  501 -0.00000000000E+00 -0.00000000000E+00 -0.13483732426E+03  0.13483732426E+03  0.00000000000E+00 0.  1.
         23    2    1    2    0    0  0.12930437935E+02 -0.59166078708E+01 -0.11200416534E+03  0.14598132483E+03  0.92538703641E+02 0.  0.
         11    1    3    3    0    0  0.99820897748E+01 -0.49217950707E+02 -0.59473578256E+02  0.77840576171E+02  0.00000000000E+00 0. -1.
        -11    1    3    3    0    0  0.29483481604E+01  0.43301342836E+02 -0.52530587088E+02  0.68140748661E+02  0.00000000000E+00 0.  1.
         22    1    1    2    0    0 -0.12930437935E+02  0.59166078708E+01  0.28045668014E+01  0.14493725154E+02  0.00000000000E+00 0.  1.
<mgrwt>
<rscale>  0 0.58447601E+02</rscale>
<asrwt>0</asrwt>
<pdfrwt beam="1">  1        4 0.39442655E-02 0.93624859E+02</pdfrwt>
<pdfrwt beam="2">  1       -4 0.20744204E-01 0.93624859E+02</pdfrwt>
<totfact> 0.10810958E+04</totfact>
</mgrwt>
</event>
<event>
 6    1  0.1828142E-002  0.1034728E+03  0.7546771E-02  0.1376511E+00
          2   -1    0    0  501    0  0.00000000000E+00  0.00000000000E+00  0.57641785207E+03  0.57641785207E+03  0.00000000000E+00 0. -1.
         -2   -1    0    0    0  501 -0.00000000000E+00 -0.00000000000E+00 -0.62819104889E+01  0.62819104889E+01  0.00000000000E+00 0.  1.
         23    2    1    2    0    0 -0.55312372208E+01  0.15548507691E+02  0.47457093894E+03  0.48572027810E+03  0.10214823440E+03 0.  0.
         13    1    3    3    0    0  0.47812204948E+02  0.14980629726E+02  0.23487337428E+03  0.24015813157E+03  0.00000000000E+00 0. -1.
        -13    1    3    3    0    0 -0.53343442169E+02  0.56787796510E+00  0.23969756465E+03  0.24556214653E+03  0.00000000000E+00 0.  1.
         22    1    1    2    0    0  0.55312372208E+01 -0.15548507691E+02  0.95565002641E+02  0.96979484461E+02  0.00000000000E+00 0.  1.
<mgrwt>
<rscale>  0 0.65389887E+02</rscale>
<asrwt>0</asrwt>
<pdfrwt beam="1">  1        2 0.88679628E-01 0.10347276E+03</pdfrwt>
<pdfrwt beam="2">  1       -2 0.96644822E-03 0.10347276E+03</pdfrwt>
<totfact> 0.10486042E+05</totfact>
</mgrwt>
</event>
<event>
 6    1  0.1828142E-002  0.8113446E+02  0.7546771E-02  0.1404374E+00
          4   -1    0    0  501    0  0.00000000000E+00  0.00000000000E+00  0.21321154921E+03  0.21321154921E+03  0.00000000000E+00 0. -1.
         -4   -1    0    0    0  501 -0.00000000000E+00 -0.00000000000E+00 -0.12472838982E+02  0.12472838982E+02  0.00000000000E+00 0.  1.
         23    2    1    2    0    0  0.20418572903E+02 -0.78653246116E+01  0.15346725046E+03  0.17359434731E+03  0.78128221554E+02 0.  0.
         13    1    3    3    0    0  0.11352035256E+02 -0.16594047888E+02  0.15869704863E+03  0.15996557246E+03  0.00000000000E+00 0. -1.
        -13    1    3    3    0    0  0.90665376471E+01  0.87287232760E+01 -0.52297981685E+01  0.13628774847E+02  0.00000000000E+00 0.  1.
         22    1    1    2    0    0 -0.20418572903E+02  0.78653246116E+01  0.47271459770E+02  0.52090040885E+02  0.00000000000E+00 0. -1.
<mgrwt>
<rscale>  0 0.58468395E+02</rscale>
<asrwt>0</asrwt>
<pdfrwt beam="1">  1        4 0.32801774E-01 0.81134459E+02</pdfrwt>
<pdfrwt beam="2">  1       -4 0.19188985E-02 0.81134459E+02</pdfrwt>
<totfact> 0.13565369E+04</totfact>
</mgrwt>
</event>
<event>
 6    1  0.1828142E-002  0.1119521E+03  0.7546771E-02  0.1286258E+00
          1   -1    0    0  501    0  0.00000000000E+00  0.00000000000E+00  0.23955610205E+03  0.23955610205E+03  0.00000000000E+00 0. -1.
         -1   -1    0    0    0  501 -0.00000000000E+00 -0.00000000000E+00 -0.35805421500E+02  0.35805421500E+02  0.00000000000E+00 0.  1.
         23    2    1    2    0    0 -0.42721417392E+02 -0.47199989170E+02  0.84790530139E+02  0.14043756027E+03  0.92088630414E+02 0.  0.
         13    1    3    3    0    0  0.20387965429E+00 -0.53051779885E+02  0.81162849155E+02  0.96963606569E+02  0.00000000000E+00 0. -1.
        -13    1    3    3    0    0 -0.42925297046E+02  0.58517907142E+01  0.36276809840E+01  0.43473953701E+02  0.00000000000E+00 0.  1.
         22    1    1    2    0    0  0.42721417392E+02  0.47199989170E+02  0.11896015041E+03  0.13492396328E+03  0.00000000000E+00 0.  1.
<mgrwt>
<rscale>  0 0.97217785E+02</rscale>
<asrwt>0</asrwt>
<pdfrwt beam="1">  1        1 0.36854784E-01 0.11195211E+03</pdfrwt>
<pdfrwt beam="2">  1       -1 0.55085265E-02 0.11195211E+03</pdfrwt>
<totfact> 0.16281531E+04</totfact>
</mgrwt>
</event>
<event>
 6    1  0.1828142E-002  0.9695753E+02  0.7546771E-02  0.1355099E+00
          2   -1    0    0  501    0  0.00000000000E+00  0.00000000000E+00  0.12691054602E+03  0.12691054602E+03  0.00000000000E+00 0. -1.
         -2   -1    0    0    0  501 -0.00000000000E+00 -0.00000000000E+00 -0.35439074954E+02  0.35439074954E+02  0.00000000000E+00 0.  1.
         23    2    1    2    0    0  0.11024937792E+02  0.26451635288E+02  0.43053707437E+02  0.10608668382E+03  0.92625722650E+02 0.  0.
         13    1    3    3    0    0  0.37724663341E+02 -0.17418690134E+02  0.43496483644E+01  0.41778947223E+02  0.00000000000E+00 0. -1.
        -13    1    3    3    0    0 -0.26699725549E+02  0.43870325422E+02  0.38704059072E+02  0.64307736593E+02  0.00000000000E+00 0.  1.
         22    1    1    2    0    0 -0.11024937792E+02 -0.26451635288E+02  0.48417763625E+02  0.56262937154E+02  0.00000000000E+00 0. -1.
<mgrwt>
<rscale>  0 0.71489919E+02</rscale>
<asrwt>0</asrwt>
<pdfrwt beam="1">  1        2 0.19524699E-01 0.96957531E+02</pdfrwt>
<pdfrwt beam="2">  1       -2 0.54521654E-02 0.96957531E+02</pdfrwt>
<totfact> 0.42952200E+04</totfact>
</mgrwt>
</event>
<event>
 6    1  0.1828142E-002  0.8984516E+02  0.7546771E-02  0.1409345E+00
         -2   -1    0    0    0  501 -0.00000000000E+00  0.00000000000E+00  0.70039940632E+02  0.70039940632E+02  0.00000000000E+00 0.  1.
          2   -1    0    0  501    0  0.00000000000E+00 -0.00000000000E+00 -0.39684306308E+02  0.39684306308E+02  0.00000000000E+00 0. -1.
         23    2    1    2    0    0 -0.11552058813E+02  0.94198596151E+01  0.30304484091E+02  0.94818327500E+02  0.88600054491E+02 0.  0.
         11    1    3    3    0    0  0.44176214908E+01 -0.13338142878E+02  0.55528697055E+02  0.57278771213E+02  0.00000000000E+00 0.  1.
        -11    1    3    3    0    0 -0.15969680304E+02  0.22758002493E+02 -0.25224212964E+02  0.37539556286E+02  0.00000000000E+00 0. -1.
         22    1    1    2    0    0  0.11552058813E+02 -0.94198596151E+01  0.51150233317E-01  0.14905919440E+02  0.00000000000E+00 0. -1.
<mgrwt>
<rscale>  0 0.57340316E+02</rscale>
<asrwt>0</asrwt>
<pdfrwt beam="1">  1        2 0.61052779E-02 0.89845164E+02</pdfrwt>
<pdfrwt beam="2">  1       -2 0.10775375E-01 0.89845164E+02</pdfrwt>
<totfact> 0.60586642E+04</totfact>
</mgrwt>
</event>
<event>
 6    1  0.1828142E-002  0.9080685E+02  0.7546771E-02  0.1423131E+00
         -2   -1    0    0    0  501 -0.00000000000E+00  0.00000000000E+00  0.30701582614E+02  0.30701582614E+02  0.00000000000E+00 0.  1.
          2   -1    0    0  501    0  0.00000000000E+00 -0.00000000000E+00 -0.11206054031E+03  0.11206054031E+03  0.00000000000E+00 0. -1.
         23    2    1    2    0    0 -0.78040573085E+01  0.86700424967E+01 -0.39002150250E+02  0.98828399153E+02  0.90054493545E+02 0.  0.
         11    1    3    3    0    0 -0.67156876053E+01 -0.23768904524E+01 -0.67692076187E+02  0.68065903702E+02  0.00000000000E+00 0. -1.
        -11    1    3    3    0    0 -0.10883697032E+01  0.11046932949E+02  0.28689925936E+02  0.30762495452E+02  0.00000000000E+00 0.  1.
         22    1    1    2    0    0  0.78040573085E+01 -0.86700424967E+01 -0.42356807448E+02  0.43933723773E+02  0.00000000000E+00 0. -1.
<mgrwt>
<rscale>  0 0.54363880E+02</rscale>
<asrwt>0</asrwt>
<pdfrwt beam="1">  1        2 0.17240083E-01 0.90806854E+02</pdfrwt>
<pdfrwt beam="2">  1       -2 0.47233204E-02 0.90806854E+02</pdfrwt>
<totfact> 0.60669014E+04</totfact>
</mgrwt>
</event>
<event>
 6    1  0.1828142E-002  0.9122583E+02  0.7546771E-02  0.1408097E+00
         -1   -1    0    0    0  501 -0.00000000000E+00  0.00000000000E+00  0.19209932575E+03  0.19209932575E+03  0.00000000000E+00 0.  1.
          1   -1    0    0  501    0  0.00000000000E+00 -0.00000000000E+00 -0.30746150150E+02  0.30746150150E+02  0.00000000000E+00 0. -1.
         23    2    1    2    0    0 -0.11828750312E+02  0.84205928731E+01  0.17844941008E+03  0.20041543016E+03  0.90062905632E+02 0.  0.
         11    1    3    3    0    0  0.27544832401E+02 -0.25898690348E+01  0.14090355703E+02  0.31047758976E+02  0.00000000000E+00 0. -1.
        -11    1    3    3    0    0 -0.39373582713E+02  0.11010461908E+02  0.16435905438E+03  0.16936767119E+03  0.00000000000E+00 0.  1.
         22    1    1    2    0    0  0.11828750312E+02 -0.84205928731E+01 -0.17096234482E+02  0.22430045736E+02  0.00000000000E+00 0. -1.
<mgrwt>
<rscale>  0 0.57620740E+02</rscale>
<asrwt>0</asrwt>
<pdfrwt beam="1">  1        1 0.47301771E-02 0.91225833E+02</pdfrwt>
<pdfrwt beam="2">  1       -1 0.29553742E-01 0.91225833E+02</pdfrwt>
<totfact> 0.16794015E+04</totfact>
</mgrwt>
</event>
<event>
 6    1  0.1828142E-002  0.9254226E+02  0.7546771E-02  0.1419833E+00
         -4   -1    0    0    0  501 -0.00000000000E+00  0.00000000000E+00  0.22964897054E+02  0.22964897054E+02  0.00000000000E+00 0.  1.
          4   -1    0    0  501    0  0.00000000000E+00 -0.00000000000E+00 -0.12830717351E+03  0.12830717351E+03  0.00000000000E+00 0. -1.
         23    2    1    2    0    0 -0.20976972531E+01  0.11401862949E+02 -0.76093145482E+02  0.11980916423E+03  0.91813213813E+02 0.  0.
         11    1    3    3    0    0 -0.32077263067E+02  0.34792210492E+02 -0.18531233207E+02  0.50821799663E+02  0.00000000000E+00 0.  1.
        -11    1    3    3    0    0  0.29979565814E+02 -0.23390347543E+02 -0.57561912275E+02  0.68987364563E+02  0.00000000000E+00 0. -1.
         22    1    1    2    0    0  0.20976972531E+01 -0.11401862949E+02 -0.29249130976E+02  0.31462906339E+02  0.00000000000E+00 0. -1.
<mgrwt>
<rscale>  0 0.55056184E+02</rscale>
<asrwt>0</asrwt>
<pdfrwt beam="1">  1        4 0.19739565E-01 0.92542255E+02</pdfrwt>
<pdfrwt beam="2">  1       -4 0.35330611E-02 0.92542255E+02</pdfrwt>
<totfact> 0.13993815E+04</totfact>
</mgrwt>
</event>
<event>
 6    1  0.1828142E-002  0.8463306E+02  0.7546771E-02  0.1367639E+00
          2   -1    0    0  501    0  0.00000000000E+00  0.00000000000E+00  0.31585356059E+02  0.31585356059E+02  0.00000000000E+00 0. -1.
         -2   -1    0    0    0  501 -0.00000000000E+00 -0.00000000000E+00 -0.11482799172E+03  0.11482799172E+03  0.00000000000E+00 0.  1.
         23    2    1    2    0    0 -0.32162668818E+02  0.13588583297E+02 -0.66803745612E+02  0.10782158742E+03  0.77095184185E+02 0.  0.
         13    1    3    3    0    0 -0.37044039430E+01  0.23132266797E+02 -0.73435532906E+02  0.77081786882E+02  0.00000000000E+00 0.  1.
        -13    1    3    3    0    0 -0.28458264875E+02 -0.95436834997E+01  0.66317872943E+01  0.30739800538E+02  0.00000000000E+00 0. -1.
         22    1    1    2    0    0  0.32162668818E+02 -0.13588583297E+02 -0.16438890050E+02  0.38591760358E+02  0.00000000000E+00 0. -1.
<mgrwt>
<rscale>  0 0.67828053E+02</rscale>
<asrwt>0</asrwt>
<pdfrwt beam="1">  1        2 0.48592855E-02 0.84633057E+02</pdfrwt>
<pdfrwt beam="2">  1       -2 0.17665845E-01 0.84633057E+02</pdfrwt>
<totfact> 0.36421662E+04</totfact>
</mgrwt>
</event>
<event>
 6    1  0.1828142E-002  0.9099255E+02  0.7546771E-02  0.1406922E+00
         -2   -1    0    0    0  501 -0.00000000000E+00  0.00000000000E+00  0.24026051246E+02  0.24026051246E+02  0.00000000000E+00 0.  1.
          2   -1    0    0  501    0  0.00000000000E+00 -0.00000000000E+00 -0.14516659441E+03  0.14516659441E+03  0.00000000000E+00 0. -1.
         23    2    1    2    0    0 -0.78870561662E+01  0.12645557179E+02 -0.66892781635E+02  0.11293488706E+03  0.89763738276E+02 0.  0.
         13    1    3    3    0    0 -0.26719056887E+02  0.34354022829E+02 -0.71623611784E+02  0.83809597604E+02  0.00000000000E+00 0. -1.
        -13    1    3    3    0    0  0.18832000721E+02 -0.21708465650E+02  0.47308301491E+01  0.29125289457E+02  0.00000000000E+00 0.  1.
         22    1    1    2    0    0  0.78870561662E+01 -0.12645557179E+02 -0.54247761533E+02  0.56257758600E+02  0.00000000000E+00 0.  1.
<mgrwt>
<rscale>  0 0.57886436E+02</rscale>
<asrwt>0</asrwt>
<pdfrwt beam="1">  1        2 0.22333323E-01 0.90992552E+02</pdfrwt>
<pdfrwt beam="2">  1       -2 0.36963155E-02 0.90992552E+02</pdfrwt>
<totfact> 0.65179031E+04</totfact>
</mgrwt>
</event>
<event>
 6    1  0.1828142E-002  0.1048196E+03  0.7546771E-02  0.1308962E+00
          2   -1    0    0  501    0  0.00000000000E+00  0.00000000000E+00  0.39977814553E+03  0.39977814553E+03  0.00000000000E+00 0. -1.
         -2   -1    0    0    0  501 -0.00000000000E+00 -0.00000000000E+00 -0.15175356346E+02  0.15175356346E+02  0.00000000000E+00 0.  1.
         23    2    1    2    0    0  0.50478188951E+02 -0.69395119945E+01  0.26057073032E+03  0.28086339780E+03  0.91602065125E+02 0.  0.
         11    1    3    3    0    0  0.31284002875E+02 -0.21125560198E+02  0.27821606379E+02  0.46893708651E+02  0.00000000000E+00 0.  1.
        -11    1    3    3    0    0  0.19194186076E+02  0.14186048204E+02  0.23274912395E+03  0.23396968915E+03  0.00000000000E+00 0. -1.
         22    1    1    2    0    0 -0.50478188951E+02  0.69395119945E+01  0.12403205886E+03  0.13409010408E+03  0.00000000000E+00 0. -1.
<mgrwt>
<rscale>  0 0.87523393E+02</rscale>
<asrwt>0</asrwt>
<pdfrwt beam="1">  1        2 0.61504322E-01 0.10481957E+03</pdfrwt>
<pdfrwt beam="2">  1       -2 0.23346705E-02 0.10481957E+03</pdfrwt>
<totfact> 0.44114224E+04</totfact>
</mgrwt>
</event>
<event>
 6    1  0.1828142E-002  0.8520643E+02  0.7546771E-02  0.1445490E+00
         -4   -1    0    0    0  501 -0.00000000000E+00  0.00000000000E+00  0.12999680011E+03  0.12999680011E+03  0.00000000000E+00 0. -1.
          4   -1    0    0  501    0  0.00000000000E+00 -0.00000000000E+00 -0.24520118742E+02  0.24520118742E+02  0.00000000000E+00 0.  1.
         23    2    1    2    0    0  0.46279950339E+01 -0.89559009143E+01  0.11329463188E+03  0.14175969151E+03  0.84607978488E+02 0.  0.
         13    1    3    3    0    0  0.23293769210E+02  0.17681599755E+02  0.10385102143E+03  0.10789009827E+03  0.00000000000E+00 0. -1.
        -13    1    3    3    0    0 -0.18665774176E+02 -0.26637500670E+02  0.94436104571E+01  0.33869593236E+02  0.00000000000E+00 0.  1.
         22    1    1    2    0    0 -0.46279950339E+01  0.89559009143E+01 -0.78179505155E+01  0.12757227343E+02  0.00000000000E+00 0. -1.
<mgrwt>
<rscale>  0 0.49972395E+02</rscale>
<asrwt>0</asrwt>
<pdfrwt beam="1">  1        4 0.37723260E-02 0.85206435E+02</pdfrwt>
<pdfrwt beam="2">  1       -4 0.19999507E-01 0.85206435E+02</pdfrwt>
<totfact> 0.12025468E+04</totfact>
</mgrwt>
</event>
<event>
 6    1  0.1828142E-002  0.9013571E+02  0.7546771E-02  0.1383783E+00
         -1   -1    0    0    0  501 -0.00000000000E+00  0.00000000000E+00  0.38091294387E+03  0.38091294387E+03  0.00000000000E+00 0. -1.
          1   -1    0    0  501    0  0.00000000000E+00 -0.00000000000E+00 -0.50675802813E+02  0.50675802813E+02  0.00000000000E+00 0.  1.
         23    2    1    2    0    0  0.22038176844E+02  0.24547630419E+01  0.37282917369E+03  0.38357012171E+03  0.87365544765E+02 0.  0.
         13    1    3    3    0    0 -0.21283416361E+02 -0.14979238720E+02  0.41637007383E+02  0.49101953001E+02  0.00000000000E+00 0.  1.
        -13    1    3    3    0    0  0.43321593205E+02  0.17434001762E+02  0.33119216631E+03  0.33446816871E+03  0.00000000000E+00 0. -1.
         22    1    1    2    0    0 -0.22038176844E+02 -0.24547630419E+01 -0.42592032636E+02  0.48018624973E+02  0.00000000000E+00 0.  1.
<mgrwt>
<rscale>  0 0.63479860E+02</rscale>
<asrwt>0</asrwt>
<pdfrwt beam="1">  1        1 0.77962776E-02 0.90135706E+02</pdfrwt>
<pdfrwt beam="2">  1       -1 0.58601989E-01 0.90135706E+02</pdfrwt>
<totfact> 0.25884061E+03</totfact>
</mgrwt>
</event>
<event>
 6    1  0.1828142E-002  0.9181029E+02  0.7546771E-02  0.1421063E+00
          2   -1    0    0  501    0  0.00000000000E+00  0.00000000000E+00  0.61784224577E+02  0.61784224577E+02  0.00000000000E+00 0. -1.
         -2   -1    0    0    0  501 -0.00000000000E+00 -0.00000000000E+00 -0.45675290274E+02  0.45675290274E+02  0.00000000000E+00 0.  1.
         23    2    1    2    0    0  0.94912585963E+01  0.67562621010E+01  0.59515232624E+01  0.92002993044E+02  0.91068101071E+02 0.  0.
         13    1    3    3    0    0  0.42793104020E+01 -0.15867232160E+01  0.48306006506E+02  0.48521134082E+02  0.00000000000E+00 0. -1.
        -13    1    3    3    0    0  0.52119481943E+01  0.83429853169E+01 -0.42354483243E+02  0.43481858962E+02  0.00000000000E+00 0.  1.
         22    1    1    2    0    0 -0.94912585963E+01 -0.67562621010E+01  0.10157411040E+02  0.15456521807E+02  0.00000000000E+00 0.  1.
<mgrwt>
<rscale>  0 0.54796578E+02</rscale>
<asrwt>0</asrwt>
<pdfrwt beam="1">  1        2 0.95052653E-02 0.91810294E+02</pdfrwt>
<pdfrwt beam="2">  1       -2 0.70269677E-02 0.91810294E+02</pdfrwt>
<totfact> 0.67611750E+04</totfact>
</mgrwt>
</event>
<event>
 6    1  0.1828142E-002  0.9422864E+02  0.7546771E-02  0.1373751E+00
          3   -1    0    0  501    0  0.00000000000E+00  0.00000000000E+00  0.70487028593E+01  0.70487028593E+01  0.00000000000E+00 0. -1.
         -3   -1    0    0    0  501 -0.00000000000E+00 -0.00000000000E+00 -0.49686516216E+03  0.49686516216E+03  0.00000000000E+00 0.  1.
         23    2    1    2    0    0  0.21648247769E+02  0.73622593682E+01 -0.42030418362E+03  0.43073732531E+03  0.91412182703E+02 0.  0.
         11    1    3    3    0    0  0.24401203906E+02  0.35045884620E+02 -0.37603679249E+03  0.37845383085E+03  0.00000000000E+00 0.  1.
        -11    1    3    3    0    0 -0.27529561376E+01 -0.27683625252E+02 -0.44267391136E+02  0.52283494457E+02  0.00000000000E+00 0. -1.
         22    1    1    2    0    0 -0.21648247769E+02 -0.73622593682E+01 -0.69512275674E+02  0.73176539709E+02  0.00000000000E+00 0. -1.
<mgrwt>
<rscale>  0 0.66135445E+02</rscale>
<asrwt>0</asrwt>
<pdfrwt beam="1">  1        3 0.10844153E-02 0.94228640E+02</pdfrwt>
<pdfrwt beam="2">  1       -3 0.76440830E-01 0.94228640E+02</pdfrwt>
<totfact> 0.83405738E+03</totfact>
</mgrwt>
</event>
<event>
 6    1  0.1828142E-002  0.9607178E+02  0.7546771E-02  0.1348935E+00
          1   -1    0    0  501    0  0.00000000000E+00  0.00000000000E+00  0.14962372955E+03  0.14962372955E+03  0.00000000000E+00 0. -1.
         -1   -1    0    0    0  501 -0.00000000000E+00 -0.00000000000E+00 -0.12321200902E+03  0.12321200902E+03  0.00000000000E+00 0.  1.
         23    2    1    2    0    0 -0.13306227075E+02  0.29885095036E+02 -0.10211897908E+03  0.14020725246E+03  0.90330577161E+02 0.  0.
         13    1    3    3    0    0 -0.11962445356E+02  0.47463259338E+02 -0.14814077469E+02  0.51140179674E+02  0.00000000000E+00 0.  1.
        -13    1    3    3    0    0 -0.13437817191E+01 -0.17578164301E+02 -0.87304901615E+02  0.89067072791E+02  0.00000000000E+00 0. -1.
         22    1    1    2    0    0  0.13306227075E+02 -0.29885095036E+02  0.12853069961E+03  0.13262848611E+03  0.00000000000E+00 0. -1.
<mgrwt>
<rscale>  0 0.73388620E+02</rscale>
<asrwt>0</asrwt>
<pdfrwt beam="1">  1        1 0.23019036E-01 0.96071784E+02</pdfrwt>
<pdfrwt beam="2">  1       -1 0.18955694E-01 0.96071784E+02</pdfrwt>
<totfact> 0.43894783E+03</totfact>
</mgrwt>
</event>
<event>
 6    1  0.1917292E-002  0.1253495E+03  0.7546771E-02  0.1360960E+00
         -2   -1    0    0    0  501 -0.00000000000E+00  0.00000000000E+00  0.13185180687E+03  0.13185180687E+03  0.00000000000E+00 0.  1.
          2   -1    0    0  501    0  0.00000000000E+00 -0.00000000000E+00 -0.35783125384E+02  0.35783125384E+02  0.00000000000E+00 0. -1.
         23    2    1    2    0    0  0.82127854685E+01 -0.87690295573E+01  0.87018200680E+02  0.15259309303E+03  0.12477234896E+03 0.  0.
         13    1    3    3    0    0 -0.39586426801E+02  0.40124486688E+02  0.46828673258E+02  0.73280176432E+02  0.00000000000E+00 0.  1.
        -13    1    3    3    0    0  0.47799212269E+02 -0.48893516246E+02  0.40189527422E+02  0.79312916595E+02  0.00000000000E+00 0. -1.
         22    1    1    2    0    0 -0.82127854685E+01  0.87690295573E+01  0.90504808084E+01  0.15041839229E+02  0.00000000000E+00 0. -1.
<mgrwt>
<rscale>  0 0.69745681E+02</rscale>
<asrwt>0</asrwt>
<pdfrwt beam="1">  1        2 0.55050963E-02 0.12534945E+03</pdfrwt>
<pdfrwt beam="2">  1       -2 0.20284893E-01 0.12534945E+03</pdfrwt>
<totfact> 0.25870612E+04</totfact>
</mgrwt>
</event>
<event>
 6    1  0.1828142E-002  0.9500569E+02  0.7546771E-02  0.1379295E+00
          2   -1    0    0  501    0  0.00000000000E+00  0.00000000000E+00  0.43761633163E+02  0.43761633163E+02  0.00000000000E+00 0.  1.
         -2   -1    0    0    0  501 -0.00000000000E+00 -0.00000000000E+00 -0.76447253100E+02  0.76447253100E+02  0.00000000000E+00 0. -1.
         23    2    1    2    0    0  0.15263008679E+02 -0.13491441967E+02 -0.23537018371E+02  0.97877846187E+02  0.92796029549E+02 0.  0.
         13    1    3    3    0    0  0.45493673489E+02  0.11350024990E+02 -0.33349216468E+02  0.57538401384E+02  0.00000000000E+00 0. -1.
        -13    1    3    3    0    0 -0.30230664811E+02 -0.24841466957E+02  0.98121980971E+01  0.40339444803E+02  0.00000000000E+00 0.  1.
         22    1    1    2    0    0 -0.15263008679E+02  0.13491441967E+02 -0.91486015656E+01  0.22331040076E+02  0.00000000000E+00 0. -1.
<mgrwt>
<rscale>  0 0.64649536E+02</rscale>
<asrwt>0</asrwt>
<pdfrwt beam="1">  1        2 0.67325590E-02 0.95005692E+02</pdfrwt>
<pdfrwt beam="2">  1       -2 0.11761116E-01 0.95005692E+02</pdfrwt>
<totfact> 0.47023513E+04</totfact>
</mgrwt>
</event>
<event>
 6    1  0.1828142E-002  0.9994167E+02  0.7546771E-02  0.1381856E+00
          2   -1    0    0  501    0  0.00000000000E+00  0.00000000000E+00  0.68312205278E+03  0.68312205278E+03  0.00000000000E+00 0. -1.
         -2   -1    0    0    0  501 -0.00000000000E+00 -0.00000000000E+00 -0.55982870050E+01  0.55982870050E+01  0.00000000000E+00 0.  1.
         23    2    1    2    0    0 -0.12649716103E+02 -0.11031310167E+02  0.63800076305E+03  0.64578116343E+03  0.98522242516E+02 0.  0.
         13    1    3    3    0    0 -0.50798246493E+02 -0.21230951422E+01  0.49186236998E+03  0.49448312447E+03  0.00000000000E+00 0. -1.
        -13    1    3    3    0    0  0.38148530390E+02 -0.89082150251E+01  0.14613839306E+03  0.15129803896E+03  0.00000000000E+00 0.  1.
         22    1    1    2    0    0  0.12649716103E+02  0.11031310167E+02  0.39523002735E+02  0.42939176362E+02  0.00000000000E+00 0.  1.
<mgrwt>
<rscale>  0 0.63978535E+02</rscale>
<asrwt>0</asrwt>
<pdfrwt beam="1">  1        2 0.10509563E+00 0.99941670E+02</pdfrwt>
<pdfrwt beam="2">  1       -2 0.86127546E-03 0.99941670E+02</pdfrwt>
<totfact> 0.10129241E+05</totfact>
</mgrwt>
</event>
<event>
 6    1  0.1828142E-002  0.1003217E+03  0.7546771E-02  0.1332971E+00
          2   -1    0    0  501    0  0.00000000000E+00  0.00000000000E+00  0.35967074187E+02  0.35967074187E+02  0.00000000000E+00 0. -1.
         -2   -1    0    0    0  501 -0.00000000000E+00 -0.00000000000E+00 -0.29323758325E+03  0.29323758325E+03  0.00000000000E+00 0.  1.
         23    2    1    2    0    0 -0.22506952462E+02  0.30453315685E+02 -0.27096221961E+03  0.28893766993E+03  0.92900405292E+02 0.  0.
         13    1    3    3    0    0 -0.49512758416E+01  0.62002241275E+02 -0.19784861462E+03  0.20739543718E+03  0.00000000000E+00 0.  1.
        -13    1    3    3    0    0 -0.17555676620E+02 -0.31548925589E+02 -0.73113604987E+02  0.81542232748E+02  0.00000000000E+00 0. -1.
         22    1    1    2    0    0  0.22506952462E+02 -0.30453315685E+02  0.13691710545E+02  0.40266987508E+02  0.00000000000E+00 0. -1.
<mgrwt>
<rscale>  0 0.78634607E+02</rscale>
<asrwt>0</asrwt>
<pdfrwt beam="1">  1        2 0.55333959E-02 0.10032175E+03</pdfrwt>
<pdfrwt beam="2">  1       -2 0.45113475E-01 0.10032175E+03</pdfrwt>
<totfact> 0.59681460E+03</totfact>
</mgrwt>
</event>
<event>
 6    1  0.1828142E-002  0.8166486E+02  0.7546771E-02  0.1415437E+00
          1   -1    0    0  501    0  0.00000000000E+00  0.00000000000E+00  0.48708836091E+03  0.48708836091E+03  0.00000000000E+00 0. -1.
         -1   -1    0    0    0  501 -0.00000000000E+00 -0.00000000000E+00 -0.51066332387E+01  0.51066332387E+01  0.00000000000E+00 0.  1.
         23    2    1    2    0    0 -0.16342606743E+02 -0.76740594724E+01  0.39910291633E+03  0.40737241842E+03  0.79644067463E+02 0.  0.
         13    1    3    3    0    0 -0.37287903441E+02 -0.70091034613E+01  0.36749714646E+03  0.36945049456E+03  0.00000000000E+00 0. -1.
        -13    1    3    3    0    0  0.20945296697E+02 -0.66495601107E+00  0.31605769877E+02  0.37921923867E+02  0.00000000000E+00 0.  1.
         22    1    1    2    0    0  0.16342606743E+02  0.76740594724E+01  0.82878811336E+02  0.84822575724E+02  0.00000000000E+00 0.  1.
<mgrwt>
<rscale>  0 0.55998185E+02</rscale>
<asrwt>0</asrwt>
<pdfrwt beam="1">  1        1 0.74936634E-01 0.81664861E+02</pdfrwt>
<pdfrwt beam="2">  1       -1 0.78563627E-03 0.81664861E+02</pdfrwt>
<totfact> 0.10606707E+05</totfact>
</mgrwt>
</event>
<event>
 6    1  0.1828142E-002  0.9389914E+02  0.7546771E-02  0.1367294E+00
          2   -1    0    0  501    0  0.00000000000E+00  0.00000000000E+00  0.92508365698E+03  0.92508365698E+03  0.00000000000E+00 0.  1.
         -2   -1    0    0    0  501 -0.00000000000E+00 -0.00000000000E+00 -0.40666426273E+01  0.40666426273E+01  0.00000000000E+00 0. -1.
         23    2    1    2    0    0  0.95283270466E+01  0.23881598499E+02  0.79580407793E+03  0.80132464016E+03  0.90310180653E+02 0.  0.
         13    1    3    3    0    0  0.14977498709E+02 -0.19377911686E+02  0.69067781245E+02  0.73281562040E+02  0.00000000000E+00 0. -1.
        -13    1    3    3    0    0 -0.54491716621E+01  0.43259510185E+02  0.72673629668E+03  0.72804307812E+03  0.00000000000E+00 0.  1.
         22    1    1    2    0    0 -0.95283270466E+01 -0.23881598499E+02  0.12521293643E+03  0.12782565944E+03  0.00000000000E+00 0. -1.
<mgrwt>
<rscale>  0 0.67925247E+02</rscale>
<asrwt>0</asrwt>
<pdfrwt beam="1">  1        2 0.14232039E+00 0.93899140E+02</pdfrwt>
<pdfrwt beam="2">  1       -2 0.62563807E-03 0.93899140E+02</pdfrwt>
<totfact> 0.10875927E+05</totfact>
</mgrwt>
</event>
<event>
 6    1  0.1828142E-002  0.9194820E+02  0.7546771E-02  0.1416115E+00
          2   -1    0    0  501    0  0.00000000000E+00  0.00000000000E+00  0.98807113114E+02  0.98807113114E+02  0.00000000000E+00 0. -1.
         -2   -1    0    0    0  501 -0.00000000000E+00 -0.00000000000E+00 -0.28769212335E+02  0.28769212335E+02  0.00000000000E+00 0.  1.
         23    2    1    2    0    0 -0.25259699518E+01  0.12259695709E+02  0.69110267310E+02  0.11502478503E+03  0.91092214048E+02 0.  0.
         11    1    3    3    0    0 -0.29856654158E+02 -0.14336492093E+02  0.69389021327E+02  0.76888172587E+02  0.00000000000E+00 0. -1.
        -11    1    3    3    0    0  0.27330684206E+02  0.26596187802E+02 -0.27875401656E+00  0.38136612442E+02  0.00000000000E+00 0.  1.
         22    1    1    2    0    0  0.25259699518E+01 -0.12259695709E+02  0.92763346794E+00  0.12551540421E+02  0.00000000000E+00 0.  1.
<mgrwt>
<rscale>  0 0.55851438E+02</rscale>
<asrwt>0</asrwt>
<pdfrwt beam="1">  1        2 0.15201094E-01 0.91948203E+02</pdfrwt>
<pdfrwt beam="2">  1       -2 0.44260327E-02 0.91948203E+02</pdfrwt>
<totfact> 0.77297864E+04</totfact>
</mgrwt>
</event>
<event>
 6    1  0.1828142E-002  0.8709295E+02  0.7546771E-02  0.1429033E+00
         -2   -1    0    0    0  501 -0.00000000000E+00  0.00000000000E+00  0.13557501380E+03  0.13557501380E+03  0.00000000000E+00 0.  1.
          2   -1    0    0  501    0  0.00000000000E+00 -0.00000000000E+00 -0.20295409019E+02  0.20295409019E+02  0.00000000000E+00 0. -1.
         23    2    1    2    0    0 -0.10980562056E+02 -0.50450093423E+01  0.11436519908E+03  0.14375180078E+03  0.86250545531E+02 0.  0.
         11    1    3    3    0    0 -0.58719846201E+01 -0.10411010626E+02 -0.12135990006E+02  0.17033836886E+02  0.00000000000E+00 0. -1.
        -11    1    3    3    0    0 -0.51085774356E+01  0.53660012839E+01  0.12650118908E+03  0.12671796389E+03  0.00000000000E+00 0.  1.
         22    1    1    2    0    0  0.10980562056E+02  0.50450093423E+01  0.91440570146E+00  0.12118622038E+02  0.00000000000E+00 0. -1.
<mgrwt>
<rscale>  0 0.53154568E+02</rscale>
<asrwt>0</asrwt>
<pdfrwt beam="1">  1        2 0.31223707E-02 0.87092947E+02</pdfrwt>
<pdfrwt beam="2">  1       -2 0.20857694E-01 0.87092947E+02</pdfrwt>
<totfact> 0.49456940E+04</totfact>
</mgrwt>
</event>
<event>
 6    1  0.1828142E-002  0.1058703E+03  0.7546771E-02  0.1396778E+00
          2   -1    0    0  501    0  0.00000000000E+00  0.00000000000E+00  0.75764541856E+03  0.75764541856E+03  0.00000000000E+00 0. -1.
         -2   -1    0    0    0  501 -0.00000000000E+00 -0.00000000000E+00 -0.52728157429E+01  0.52728157429E+01  0.00000000000E+00 0.  1.
         23    2    1    2    0    0  0.86019788096E+01 -0.70249381335E+01  0.73284970561E+03  0.74045743934E+03  0.10528620356E+03 0.  0.
         13    1    3    3    0    0 -0.27246787742E+01 -0.22891400650E+02  0.71019792237E+03  0.71057197316E+03  0.00000000000E+00 0. -1.
        -13    1    3    3    0    0  0.11326657584E+02  0.15866462516E+02  0.22651783245E+02  0.29885466183E+02  0.00000000000E+00 0.  1.
         22    1    1    2    0    0 -0.86019788096E+01  0.70249381335E+01  0.19522897208E+02  0.22460794968E+02  0.00000000000E+00 0.  1.
<mgrwt>
<rscale>  0 0.60251850E+02</rscale>
<asrwt>0</asrwt>
<pdfrwt beam="1">  1        2 0.11656075E+00 0.10587034E+03</pdfrwt>
<pdfrwt beam="2">  1       -2 0.81120302E-03 0.10587034E+03</pdfrwt>
<totfact> 0.98289388E+04</totfact>
</mgrwt>
</event>
<event>
 6    1  0.1828142E-002  0.9161739E+02  0.7546771E-02  0.1421522E+00
         -1   -1    0    0    0  501 -0.00000000000E+00  0.00000000000E+00  0.18906972723E+03  0.18906972723E+03  0.00000000000E+00 0.  1.
          1   -1    0    0  501    0  0.00000000000E+00 -0.00000000000E+00 -0.14355454114E+02  0.14355454114E+02  0.00000000000E+00 0. -1.
         23    2    1    2    0    0 -0.11333449760E+02  0.26621037972E+01  0.16252637058E+03  0.18657054256E+03  0.90874706820E+02 0.  0.
         13    1    3    3    0    0 -0.90688559254E+01 -0.32249984616E+02  0.18323730127E+02  0.38184613934E+02  0.00000000000E+00 0. -1.
        -13    1    3    3    0    0 -0.22645938347E+01  0.34912088413E+02  0.14420264045E+03  0.14838592863E+03  0.00000000000E+00 0.  1.
         22    1    1    2    0    0  0.11333449760E+02 -0.26621037972E+01  0.12187902538E+02  0.16854638779E+02  0.00000000000E+00 0. -1.
<mgrwt>
<rscale>  0 0.54700264E+02</rscale>
<asrwt>0</asrwt>
<pdfrwt beam="1">  1        1 0.22085315E-02 0.91617390E+02</pdfrwt>
<pdfrwt beam="2">  1       -1 0.29087649E-01 0.91617390E+02</pdfrwt>
<totfact> 0.48844201E+04</totfact>
</mgrwt>
</event>
<event>
 6    1  0.1828142E-002  0.9824786E+02  0.7546771E-02  0.1338032E+00
         -3   -1    0    0    0  501 -0.00000000000E+00  0.00000000000E+00  0.32815081713E+03  0.32815081713E+03  0.00000000000E+00 0.  1.
          3   -1    0    0  501    0  0.00000000000E+00 -0.00000000000E+00 -0.14357679790E+02  0.14357679790E+02  0.00000000000E+00 0. -1.
         23    2    1    2    0    0 -0.31364168452E+02 -0.19458302622E+02  0.25275410070E+03  0.27117757377E+03  0.91051109223E+02 0.  0.
         13    1    3    3    0    0 -0.52972060658E+01  0.96958290277E+01 -0.37818050002E+01  0.11677822644E+02  0.00000000000E+00 0. -1.
        -13    1    3    3    0    0 -0.26066962386E+02 -0.29154131650E+02  0.25653590570E+03  0.25949975113E+03  0.00000000000E+00 0.  1.
         22    1    1    2    0    0  0.31364168452E+02  0.19458302622E+02  0.61039036632E+02  0.71330923144E+02  0.00000000000E+00 0. -1.
<mgrwt>
<rscale>  0 0.76917979E+02</rscale>
<asrwt>0</asrwt>
<pdfrwt beam="1">  1        3 0.22088741E-02 0.98247855E+02</pdfrwt>
<pdfrwt beam="2">  1       -3 0.50484736E-01 0.98247855E+02</pdfrwt>
<totfact> 0.67996947E+03</totfact>
</mgrwt>
</event>
<event>
 6    1  0.1828142E-002  0.9197285E+02  0.7546771E-02  0.1414230E+00
          2   -1    0    0  501    0  0.00000000000E+00  0.00000000000E+00  0.11172114790E+03  0.11172114790E+03  0.00000000000E+00 0. -1.
         -2   -1    0    0    0  501 -0.00000000000E+00 -0.00000000000E+00 -0.25361884912E+02  0.25361884912E+02  0.00000000000E+00 0.  1.
         23    2    1    2    0    0 -0.10816596802E+02 -0.69883795326E+01  0.82723237285E+02  0.12370181845E+03  0.91066841862E+02 0.  0.
         11    1    3    3    0    0  0.30150107812E+02 -0.12586750470E+02  0.74769693367E+02  0.81596337753E+02  0.00000000000E+00 0. -1.
        -11    1    3    3    0    0 -0.40966704614E+02  0.55983709376E+01  0.79535439177E+01  0.42105480700E+02  0.00000000000E+00 0.  1.
         22    1    1    2    0    0  0.10816596802E+02  0.69883795326E+01  0.36360257042E+01  0.13381214361E+02  0.00000000000E+00 0. -1.
<mgrwt>
<rscale>  0 0.56260640E+02</rscale>
<asrwt>0</asrwt>
<pdfrwt beam="1">  1        2 0.17187869E-01 0.91972854E+02</pdfrwt>
<pdfrwt beam="2">  1       -2 0.39018285E-02 0.91972854E+02</pdfrwt>
<totfact> 0.80848574E+04</totfact>
</mgrwt>
</event>
<event>
 6    1  0.1828142E-002  0.9674140E+02  0.7546771E-02  0.1362747E+00
          2   -1    0    0  501    0  0.00000000000E+00  0.00000000000E+00  0.11084210280E+03  0.11084210280E+03  0.00000000000E+00 0. -1.
         -2   -1    0    0    0  501 -0.00000000000E+00 -0.00000000000E+00 -0.37252701345E+02  0.37252701345E+02  0.00000000000E+00 0.  1.
         23    2    1    2    0    0 -0.17014969380E+02 -0.18811017560E+02  0.37004480511E+02  0.10357716713E+03  0.93357026564E+02 0.  0.
         11    1    3    3    0    0 -0.20945542222E+02 -0.19367394061E+02 -0.27101446315E+02  0.39348444494E+02  0.00000000000E+00 0.  1.
        -11    1    3    3    0    0  0.39305728422E+01  0.55637650067E+00  0.64105926826E+02  0.64228722640E+02  0.00000000000E+00 0. -1.
         22    1    1    2    0    0  0.17014969380E+02  0.18811017560E+02  0.36584920943E+02  0.44517637011E+02  0.00000000000E+00 0. -1.
<mgrwt>
<rscale>  0 0.69225536E+02</rscale>
<asrwt>0</asrwt>
<pdfrwt beam="1">  1        2 0.17052631E-01 0.96741397E+02</pdfrwt>
<pdfrwt beam="2">  1       -2 0.57311848E-02 0.96741397E+02</pdfrwt>
<totfact> 0.46445945E+04</totfact>
</mgrwt>
</event>
<event>
 6    1  0.1828142E-002  0.9456973E+02  0.7546771E-02  0.1368480E+00
         -2   -1    0    0    0  501 -0.00000000000E+00  0.00000000000E+00  0.12438221324E+02  0.12438221324E+02  0.00000000000E+00 0.  1.
          2   -1    0    0  501    0  0.00000000000E+00 -0.00000000000E+00 -0.33051132821E+03  0.33051132821E+03  0.00000000000E+00 0. -1.
         23    2    1    2    0    0  0.24485470543E+02  0.30783563200E+01 -0.18677293987E+03  0.20935034144E+03  0.91293043804E+02 0.  0.
         13    1    3    3    0    0  0.10684434089E+02 -0.11614508876E+02  0.49739812868E+01  0.16546734967E+02  0.00000000000E+00 0.  1.
        -13    1    3    3    0    0  0.13801036454E+02  0.14692865196E+02 -0.19174692116E+03  0.19280360647E+03  0.00000000000E+00 0. -1.
         22    1    1    2    0    0 -0.24485470543E+02 -0.30783563200E+01 -0.13130016702E+03  0.13359920810E+03  0.00000000000E+00 0.  1.
<mgrwt>
<rscale>  0 0.67591577E+02</rscale>
<asrwt>0</asrwt>
<pdfrwt beam="1">  1        2 0.50847885E-01 0.94569733E+02</pdfrwt>
<pdfrwt beam="2">  1       -2 0.19135729E-02 0.94569733E+02</pdfrwt>
<totfact> 0.70854447E+04</totfact>
</mgrwt>
</event>
<event>
 6    1  0.1828142E-002  0.9763095E+02  0.7546771E-02  0.1354432E+00
          1   -1    0    0  501    0  0.00000000000E+00  0.00000000000E+00  0.12485244127E+02  0.12485244127E+02  0.00000000000E+00 0. -1.
         -1   -1    0    0    0  501 -0.00000000000E+00 -0.00000000000E+00 -0.34430961659E+03  0.34430961659E+03  0.00000000000E+00 0.  1.
         23    2    1    2    0    0  0.16960949331E+02 -0.22763214565E+02 -0.29199530913E+03  0.30788482059E+03  0.93412870926E+02 0.  0.
         13    1    3    3    0    0  0.34708077209E+02 -0.40578780690E+02 -0.26750766375E+03  0.27278496702E+03  0.00000000000E+00 0.  1.
        -13    1    3    3    0    0 -0.17747127878E+02  0.17815566125E+02 -0.24487645376E+02  0.35099853566E+02  0.00000000000E+00 0. -1.
         22    1    1    2    0    0 -0.16960949331E+02  0.22763214565E+02 -0.39829063338E+02  0.48910040135E+02  0.00000000000E+00 0. -1.
<mgrwt>
<rscale>  0 0.71692146E+02</rscale>
<asrwt>0</asrwt>
<pdfrwt beam="1">  1        1 0.19208069E-02 0.97630949E+02</pdfrwt>
<pdfrwt beam="2">  1       -1 0.52970707E-01 0.97630949E+02</pdfrwt>
<totfact> 0.21107987E+04</totfact>
</mgrwt>
</event>
<event>
 6    1  0.1828142E-002  0.9459925E+02  0.7546771E-02  0.1366109E+00
          2   -1    0    0  501    0  0.00000000000E+00  0.00000000000E+00  0.23324181607E+02  0.23324181607E+02  0.00000000000E+00 0. -1.
         -2   -1    0    0    0  501 -0.00000000000E+00 -0.00000000000E+00 -0.16882507558E+03  0.16882507558E+03  0.00000000000E+00 0.  1.
         23    2    1    2    0    0  0.23632897670E+02 -0.99609812715E+01 -0.13403607141E+03  0.16405696008E+03  0.91056480887E+02 0.  0.
         13    1    3    3    0    0  0.52524286082E+02 -0.21693423287E+02 -0.11287166835E+03  0.12637016562E+03  0.00000000000E+00 0. -1.
        -13    1    3    3    0    0 -0.28891388413E+02  0.11732442015E+02 -0.21164403067E+02  0.37686794468E+02  0.00000000000E+00 0.  1.
         22    1    1    2    0    0 -0.23632897670E+02  0.99609812715E+01 -0.11464822556E+02  0.28092297101E+02  0.00000000000E+00 0.  1.
<mgrwt>
<rscale>  0 0.68260919E+02</rscale>
<asrwt>0</asrwt>
<pdfrwt beam="1">  1        2 0.35883357E-02 0.94599248E+02</pdfrwt>
<pdfrwt beam="2">  1       -2 0.25973088E-01 0.94599248E+02</pdfrwt>
<totfact> 0.28602365E+04</totfact>
</mgrwt>
</event>
<event>
 6    1  0.1828142E-002  0.1023529E+03  0.7546771E-02  0.1374956E+00
         -2   -1    0    0    0  501 -0.00000000000E+00  0.00000000000E+00  0.30172405917E+03  0.30172405917E+03  0.00000000000E+00 0.  1.
          2   -1    0    0  501    0  0.00000000000E+00 -0.00000000000E+00 -0.11937897966E+02  0.11937897966E+02  0.00000000000E+00 0. -1.
         23    2    1    2    0    0 -0.16666202400E+02  0.53089397051E+01  0.24096040875E+03  0.26179769926E+03  0.10084725879E+03 0.  0.
         11    1    3    3    0    0 -0.36272473613E+02 -0.37845545038E+02  0.97343144170E+02  0.11056068622E+03  0.00000000000E+00 0.  1.
        -11    1    3    3    0    0  0.19606271213E+02  0.43154484743E+02  0.14361726458E+03  0.15123701303E+03  0.00000000000E+00 0. -1.
         22    1    1    2    0    0  0.16666202400E+02 -0.53089397051E+01  0.48825752448E+02  0.51864257879E+02  0.00000000000E+00 0.  1.
<mgrwt>
<rscale>  0 0.65808338E+02</rscale>
<asrwt>0</asrwt>
<pdfrwt beam="1">  1        2 0.18365999E-02 0.10235290E+03</pdfrwt>
<pdfrwt beam="2">  1       -2 0.46419080E-01 0.10235290E+03</pdfrwt>
<totfact> 0.24431293E+04</totfact>
</mgrwt>
</event>
<event>
 6    1  0.1828142E-002  0.9246514E+02  0.7546771E-02  0.1392872E+00
         -2   -1    0    0    0  501 -0.00000000000E+00  0.00000000000E+00  0.13158979309E+03  0.13158979309E+03  0.00000000000E+00 0.  1.
          2   -1    0    0  501    0  0.00000000000E+00 -0.00000000000E+00 -0.43782047265E+02  0.43782047265E+02  0.00000000000E+00 0. -1.
         23    2    1    2    0    0 -0.16377400156E+02  0.68244010643E+01  0.11208480562E+03  0.14530246526E+03  0.90746961784E+02 0.  0.
         13    1    3    3    0    0 -0.52972035285E+01  0.84595900031E+01  0.12658636461E+03  0.12697926103E+03  0.00000000000E+00 0.  1.
        -13    1    3    3    0    0 -0.11080196627E+02 -0.16351889388E+01 -0.14501558983E+02  0.18323204226E+02  0.00000000000E+00 0. -1.
         22    1    1    2    0    0  0.16377400156E+02 -0.68244010643E+01 -0.24277059802E+02  0.30069375091E+02  0.00000000000E+00 0. -1.
<mgrwt>
<rscale>  0 0.61197889E+02</rscale>
<asrwt>0</asrwt>
<pdfrwt beam="1">  1        2 0.67356996E-02 0.92465143E+02</pdfrwt>
<pdfrwt beam="2">  1       -2 0.20244583E-01 0.92465143E+02</pdfrwt>
<totfact> 0.19368263E+04</totfact>
</mgrwt>
</event>
<event>
 6    1  0.1828142E-002  0.7738086E+02  0.7546771E-02  0.1465738E+00
         -2   -1    0    0    0  501 -0.00000000000E+00  0.00000000000E+00  0.20111006836E+02  0.20111006836E+02  0.00000000000E+00 0. -1.
          2   -1    0    0  501    0  0.00000000000E+00 -0.00000000000E+00 -0.99497881784E+02  0.99497881784E+02  0.00000000000E+00 0.  1.
         23    2    1    2    0    0  0.43681218499E+01  0.90076554751E+01 -0.60468514872E+02  0.98205087704E+02  0.76730565061E+02 0.  0.
         11    1    3    3    0    0 -0.28770529816E+02  0.91084343339E+01 -0.10809557696E+01  0.30197275163E+02  0.00000000000E+00 0. -1.
        -11    1    3    3    0    0  0.33138651665E+02 -0.10077885886E+00 -0.59387559102E+02  0.68007812542E+02  0.00000000000E+00 0.  1.
         22    1    1    2    0    0 -0.43681218499E+01 -0.90076554751E+01 -0.18918360076E+02  0.21403800915E+02  0.00000000000E+00 0.  1.
<mgrwt>
<rscale>  0 0.46408078E+02</rscale>
<asrwt>0</asrwt>
<pdfrwt beam="1">  1        2 0.15307367E-01 0.77380863E+02</pdfrwt>
<pdfrwt beam="2">  1       -2 0.30940010E-02 0.77380863E+02</pdfrwt>
<totfact> 0.12593193E+05</totfact>
</mgrwt>
</event>
<event>
 6    1  0.1828142E-002  0.9303429E+02  0.7546771E-02  0.1427049E+00
          2   -1    0    0  501    0  0.00000000000E+00  0.00000000000E+00  0.37426487709E+03  0.37426487709E+03  0.00000000000E+00 0. -1.
         -2   -1    0    0    0  501 -0.00000000000E+00 -0.00000000000E+00 -0.71707760752E+01  0.71707760752E+01  0.00000000000E+00 0.  1.
         23    2    1    2    0    0  0.96218096857E+01  0.34370874615E+01  0.33927826422E+03  0.35180267208E+03  0.92471545425E+02 0.  0.
         11    1    3    3    0    0 -0.20858929251E+01  0.27274036096E+02  0.31383415094E+03  0.31502396463E+03  0.00000000000E+00 0. -1.
        -11    1    3    3    0    0  0.11707702611E+02 -0.23836948635E+02  0.25444113282E+02  0.36778707445E+02  0.00000000000E+00 0.  1.
         22    1    1    2    0    0 -0.96218096857E+01 -0.34370874615E+01  0.27815836791E+02  0.29632981090E+02  0.00000000000E+00 0.  1.
<mgrwt>
<rscale>  0 0.53556983E+02</rscale>
<asrwt>0</asrwt>
<pdfrwt beam="1">  1        2 0.57579197E-01 0.93034292E+02</pdfrwt>
<pdfrwt beam="2">  1       -2 0.11031966E-02 0.93034292E+02</pdfrwt>
<totfact> 0.13615832E+05</totfact>
</mgrwt>
</event>
<event>
 6    1  0.1828142E-002  0.9213355E+02  0.7546771E-02  0.1427621E+00
         -3   -1    0    0    0  501 -0.00000000000E+00  0.00000000000E+00  0.59851539309E+02  0.59851539309E+02  0.00000000000E+00 0.  1.
          3   -1    0    0  501    0  0.00000000000E+00 -0.00000000000E+00 -0.61106145964E+02  0.61106145964E+02  0.00000000000E+00 0. -1.
         23    2    1    2    0    0  0.31344710906E+01  0.99464689467E+01  0.22650385981E+02  0.94876929409E+02  0.91541436494E+02 0.  0.
         11    1    3    3    0    0  0.21354731545E+01 -0.22980345173E+02  0.48033169791E+02  0.53290167105E+02  0.00000000000E+00 0.  1.
        -11    1    3    3    0    0  0.99899793605E+00  0.32926814120E+02 -0.25382783810E+02  0.41586762304E+02  0.00000000000E+00 0. -1.
         22    1    1    2    0    0 -0.31344710906E+01 -0.99464689467E+01 -0.23904992636E+02  0.26080755864E+02  0.00000000000E+00 0. -1.
<mgrwt>
<rscale>  0 0.53440510E+02</rscale>
<asrwt>0</asrwt>
<pdfrwt beam="1">  1        3 0.94009455E-02 0.92133554E+02</pdfrwt>
<pdfrwt beam="2">  1       -3 0.92079291E-02 0.92133554E+02</pdfrwt>
<totfact> 0.14240872E+04</totfact>
</mgrwt>
</event>
<event>
 6    1  0.1828142E-002  0.9090510E+02  0.7546771E-02  0.1422975E+00
          2   -1    0    0  501    0  0.00000000000E+00  0.00000000000E+00  0.35043794836E+03  0.35043794836E+03  0.00000000000E+00 0. -1.
         -2   -1    0    0    0  501 -0.00000000000E+00 -0.00000000000E+00 -0.77967589580E+01  0.77967589580E+01  0.00000000000E+00 0.  1.
         23    2    1    2    0    0  0.71506308843E+00  0.11633086125E+02  0.27608968692E+03  0.29067034918E+03  0.90154848238E+02 0.  0.
         11    1    3    3    0    0 -0.22430903785E+02  0.44399473695E+01  0.26125342986E+03  0.26225219387E+03  0.00000000000E+00 0. -1.
        -11    1    3    3    0    0  0.23145966873E+02  0.71931387557E+01  0.14836257064E+02  0.28418155312E+02  0.00000000000E+00 0.  1.
         22    1    1    2    0    0 -0.71506308843E+00 -0.11633086125E+02  0.66551502484E+02  0.67564358140E+02  0.00000000000E+00 0. -1.
<mgrwt>
<rscale>  0 0.54396335E+02</rscale>
<asrwt>0</asrwt>
<pdfrwt beam="1">  1        2 0.53913518E-01 0.90905097E+02</pdfrwt>
<pdfrwt beam="2">  1       -2 0.11995017E-02 0.90905097E+02</pdfrwt>
<totfact> 0.12908311E+05</totfact>
</mgrwt>
</event>
<event>
 6    1  0.1828142E-002  0.1025134E+03  0.7546771E-02  0.1318584E+00
          1   -1    0    0  501    0  0.00000000000E+00  0.00000000000E+00  0.31809033236E+03  0.31809033236E+03  0.00000000000E+00 0. -1.
         -1   -1    0    0    0  501 -0.00000000000E+00 -0.00000000000E+00 -0.31881259377E+02  0.31881259377E+02  0.00000000000E+00 0.  1.
         23    2    1    2    0    0 -0.14008277043E+02 -0.43594245120E+02  0.28638688992E+03  0.30418161846E+03  0.91718679989E+02 0.  0.
         13    1    3    3    0    0 -0.14745991690E+02 -0.72289791168E+02  0.20283148224E+03  0.21583296404E+03  0.00000000000E+00 0. -1.
        -13    1    3    3    0    0  0.73771464623E+00  0.28695546048E+02  0.83555407684E+02  0.88348654428E+02  0.00000000000E+00 0.  1.
         22    1    1    2    0    0  0.14008277043E+02  0.43594245120E+02 -0.17781693978E+00  0.45789973271E+02  0.00000000000E+00 0.  1.
<mgrwt>
<rscale>  0 0.83806441E+02</rscale>
<asrwt>0</asrwt>
<pdfrwt beam="1">  1        1 0.48936972E-01 0.10251344E+03</pdfrwt>
<pdfrwt beam="2">  1       -1 0.49048094E-02 0.10251344E+03</pdfrwt>
<totfact> 0.13526396E+04</totfact>
</mgrwt>
</event>
<event>
 6    1  0.1828142E-002  0.9125870E+02  0.7546771E-02  0.1428195E+00
          2   -1    0    0  501    0  0.00000000000E+00  0.00000000000E+00  0.80385750781E+02  0.80385750781E+02  0.00000000000E+00 0. -1.
         -2   -1    0    0    0  501 -0.00000000000E+00 -0.00000000000E+00 -0.51995740411E+02  0.51995740411E+02  0.00000000000E+00 0.  1.
         23    2    1    2    0    0  0.96366510346E+01 -0.45061320373E+01 -0.10686994606E+02  0.91882323460E+02  0.90636522670E+02 0.  0.
         13    1    3    3    0    0  0.18483708574E+02 -0.44521887665E+02 -0.15456573813E+02  0.50623627270E+02  0.00000000000E+00 0.  1.
        -13    1    3    3    0    0 -0.88470575389E+01  0.40015755628E+02  0.47695792069E+01  0.41258696191E+02  0.00000000000E+00 0. -1.
         22    1    1    2    0    0 -0.96366510346E+01  0.45061320373E+01  0.39077004976E+02  0.40499167732E+02  0.00000000000E+00 0. -1.
<mgrwt>
<rscale>  0 0.53323941E+02</rscale>
<asrwt>0</asrwt>
<pdfrwt beam="1">  1        2 0.12367039E-01 0.91258696E+02</pdfrwt>
<pdfrwt beam="2">  1       -2 0.79993447E-02 0.91258696E+02</pdfrwt>
<totfact> 0.40428239E+04</totfact>
</mgrwt>
</event>
<event>
 6    1  0.1828142E-002  0.9303425E+02  0.7546771E-02  0.1388463E+00
          1   -1    0    0  501    0  0.00000000000E+00  0.00000000000E+00  0.42487149437E+02  0.42487149437E+02  0.00000000000E+00 0. -1.
         -1   -1    0    0    0  501 -0.00000000000E+00 -0.00000000000E+00 -0.10017359859E+03  0.10017359859E+03  0.00000000000E+00 0.  1.
         23    2    1    2    0    0  0.17637857844E+02 -0.62022814300E+01 -0.73189610796E+02  0.11837267801E+03  0.91136213695E+02 0.  0.
         13    1    3    3    0    0 -0.25567243043E+02  0.72489629545E+01  0.59285585452E+01  0.27228279181E+02  0.00000000000E+00 0. -1.
        -13    1    3    3    0    0  0.43205100887E+02 -0.13451244385E+02 -0.79118169341E+02  0.91144398829E+02  0.00000000000E+00 0.  1.
         22    1    1    2    0    0 -0.17637857844E+02  0.62022814300E+01  0.15503161642E+02  0.24288070018E+02  0.00000000000E+00 0. -1.
<mgrwt>
<rscale>  0 0.62290630E+02</rscale>
<asrwt>0</asrwt>
<pdfrwt beam="1">  1        1 0.65364846E-02 0.93034251E+02</pdfrwt>
<pdfrwt beam="2">  1       -1 0.15411323E-01 0.93034251E+02</pdfrwt>
<totfact> 0.30902239E+04</totfact>
</mgrwt>
</event>
<event>
 6    1  0.1828142E-002  0.9109759E+02  0.7546771E-02  0.1388107E+00
         -1   -1    0    0    0  501 -0.00000000000E+00  0.00000000000E+00  0.44648525360E+02  0.44648525360E+02  0.00000000000E+00 0.  1.
          1   -1    0    0  501    0  0.00000000000E+00 -0.00000000000E+00 -0.80410760689E+02  0.80410760689E+02  0.00000000000E+00 0. -1.
         23    2    1    2    0    0 -0.11719267100E+02 -0.16242502614E+02 -0.46558597724E+02  0.10230579064E+03  0.88868507713E+02 0.  0.
         11    1    3    3    0    0  0.21768972747E+02  0.25174235473E+02 -0.34012151718E+02  0.47586308646E+02  0.00000000000E+00 0. -1.
        -11    1    3    3    0    0 -0.33488239847E+02 -0.41416738087E+02 -0.12546446006E+02  0.54719481990E+02  0.00000000000E+00 0.  1.
         22    1    1    2    0    0  0.11719267100E+02  0.16242502614E+02  0.10796362394E+02  0.22753495412E+02  0.00000000000E+00 0.  1.
<mgrwt>
<rscale>  0 0.62379933E+02</rscale>
<asrwt>0</asrwt>
<pdfrwt beam="1">  1        1 0.12370886E-01 0.91097595E+02</pdfrwt>
<pdfrwt beam="2">  1       -1 0.68690039E-02 0.91097595E+02</pdfrwt>
<totfact> 0.45229168E+04</totfact>
</mgrwt>
</event>
<event>
 6    1  0.1828142E-002  0.1006526E+03  0.7546771E-02  0.1368388E+00
         -1   -1    0    0    0  501 -0.00000000000E+00  0.00000000000E+00  0.28965212917E+03  0.28965212917E+03  0.00000000000E+00 0.  1.
          1   -1    0    0  501    0  0.00000000000E+00 -0.00000000000E+00 -0.13058891063E+02  0.13058891063E+02  0.00000000000E+00 0. -1.
         23    2    1    2    0    0 -0.79416989180E+01  0.18899483273E+02  0.24690346744E+03  0.26663133714E+03  0.98542816389E+02 0.  0.
         13    1    3    3    0    0  0.37374534304E+02  0.12714106462E+02  0.46139518986E+02  0.60723632383E+02  0.00000000000E+00 0. -1.
        -13    1    3    3    0    0 -0.45316233222E+02  0.61853768110E+01  0.20076394845E+03  0.20590770476E+03  0.00000000000E+00 0.  1.
         22    1    1    2    0    0  0.79416989180E+01 -0.18899483273E+02  0.29689770666E+02  0.36079683091E+02  0.00000000000E+00 0.  1.
<mgrwt>
<rscale>  0 0.67617432E+02</rscale>
<asrwt>0</asrwt>
<pdfrwt beam="1">  1        1 0.20090604E-02 0.10065261E+03</pdfrwt>
<pdfrwt beam="2">  1       -1 0.44561861E-01 0.10065261E+03</pdfrwt>
<totfact> 0.27184433E+04</totfact>
</mgrwt>
</event>
<event>
 6    1  0.1828142E-002  0.8769879E+02  0.7546771E-02  0.1432431E+00
          2   -1    0    0  501    0  0.00000000000E+00  0.00000000000E+00  0.13359672254E+03  0.13359672254E+03  0.00000000000E+00 0. -1.
         -2   -1    0    0    0  501 -0.00000000000E+00 -0.00000000000E+00 -0.24209701030E+02  0.24209701030E+02  0.00000000000E+00 0.  1.
         23    2    1    2    0    0  0.10566046401E+02 -0.38385718966E+01  0.57856754013E+02  0.10506417827E+03  0.86975293046E+02 0.  0.
         13    1    3    3    0    0 -0.17477816927E+02  0.55881392947E+00  0.71472861164E+02  0.73580950255E+02  0.00000000000E+00 0. -1.
        -13    1    3    3    0    0  0.28043863328E+02 -0.43973858261E+01 -0.13616107151E+02  0.31483228017E+02  0.00000000000E+00 0.  1.
         22    1    1    2    0    0 -0.10566046401E+02  0.38385718966E+01  0.51530267495E+02  0.52742245296E+02  0.00000000000E+00 0. -1.
<mgrwt>
<rscale>  0 0.52475098E+02</rscale>
<asrwt>0</asrwt>
<pdfrwt beam="1">  1        2 0.20553341E-01 0.87698789E+02</pdfrwt>
<pdfrwt beam="2">  1       -2 0.37245695E-02 0.87698789E+02</pdfrwt>
<totfact> 0.70282940E+04</totfact>
</mgrwt>
</event>
<event>
 6    1  0.1828142E-002  0.9543460E+02  0.7546771E-02  0.1372309E+00
          4   -1    0    0  501    0  0.00000000000E+00  0.00000000000E+00  0.11877965569E+02  0.11877965569E+02  0.00000000000E+00 0. -1.
         -4   -1    0    0    0  501 -0.00000000000E+00 -0.00000000000E+00 -0.33550193153E+03  0.33550193153E+03  0.00000000000E+00 0.  1.
         23    2    1    2    0    0 -0.20925222489E+02  0.83753659571E+01 -0.29962409010E+03  0.31445565478E+03  0.92734846529E+02 0.  0.
         13    1    3    3    0    0  0.22440988171E+02 -0.14707801222E+02 -0.21450729105E+03  0.21617885021E+03  0.00000000000E+00 0.  1.
        -13    1    3    3    0    0 -0.43366210660E+02  0.23083167179E+02 -0.85116799053E+02  0.98276804562E+02  0.00000000000E+00 0. -1.
         22    1    1    2    0    0  0.20925222489E+02 -0.83753659571E+01 -0.23999875855E+02  0.32924242318E+02  0.00000000000E+00 0.  1.
<mgrwt>
<rscale>  0 0.66529402E+02</rscale>
<asrwt>0</asrwt>
<pdfrwt beam="1">  1        4 0.18273795E-02 0.95434603E+02</pdfrwt>
<pdfrwt beam="2">  1       -4 0.51615678E-01 0.95434603E+02</pdfrwt>
<totfact> 0.63156675E+03</totfact>
</mgrwt>
</event>
<event>
 6    1  0.1828142E-002  0.9145612E+02  0.7546771E-02  0.1408348E+00
         -1   -1    0    0    0  501 -0.00000000000E+00  0.00000000000E+00  0.73612300468E+02  0.73612300468E+02  0.00000000000E+00 0.  1.
          1   -1    0    0  501    0  0.00000000000E+00 -0.00000000000E+00 -0.38279767588E+02  0.38279767588E+02  0.00000000000E+00 0. -1.
         23    2    1    2    0    0  0.11747106327E+02 -0.82484273119E+01  0.33605068583E+02  0.97434710307E+02  0.90322705218E+02 0.  0.
         11    1    3    3    0    0  0.44452864875E+02 -0.22189775850E+02  0.36668693006E+02  0.61749788620E+02  0.00000000000E+00 0.  1.
        -11    1    3    3    0    0 -0.32705758548E+02  0.13941348538E+02 -0.30636244225E+01  0.35684921687E+02  0.00000000000E+00 0. -1.
         22    1    1    2    0    0 -0.11747106327E+02  0.82484273119E+01  0.17274642965E+01  0.14457357749E+02  0.00000000000E+00 0. -1.
<mgrwt>
<rscale>  0 0.57564027E+02</rscale>
<asrwt>0</asrwt>
<pdfrwt beam="1">  1        1 0.58891950E-02 0.91456121E+02</pdfrwt>
<pdfrwt beam="2">  1       -1 0.11324969E-01 0.91456121E+02</pdfrwt>
<totfact> 0.56932699E+04</totfact>
</mgrwt>
</event>
<event>
 6    1  0.1828142E-002  0.9448359E+02  0.7546771E-02  0.1355200E+00
         -2   -1    0    0    0  501 -0.00000000000E+00  0.00000000000E+00  0.10784897089E+02  0.10784897089E+02  0.00000000000E+00 0.  1.
          2   -1    0    0  501    0  0.00000000000E+00 -0.00000000000E+00 -0.36470884625E+03  0.36470884625E+03  0.00000000000E+00 0. -1.
         23    2    1    2    0    0  0.18756706436E+02  0.24574680954E+02 -0.26283331605E+03  0.27930001994E+03  0.89282809844E+02 0.  0.
         11    1    3    3    0    0 -0.98282157889E-01  0.45302718842E+02 -0.23665906228E+03  0.24095613243E+03  0.00000000000E+00 0. -1.
        -11    1    3    3    0    0  0.18854988594E+02 -0.20728037888E+02 -0.26174253771E+02  0.38343887519E+02  0.00000000000E+00 0.  1.
         22    1    1    2    0    0 -0.18756706436E+02 -0.24574680954E+02 -0.91090633113E+02  0.96193723398E+02  0.00000000000E+00 0.  1.
<mgrwt>
<rscale>  0 0.71459363E+02</rscale>
<asrwt>0</asrwt>
<pdfrwt beam="1">  1        2 0.56109060E-01 0.94483592E+02</pdfrwt>
<pdfrwt beam="2">  1       -2 0.16592147E-02 0.94483592E+02</pdfrwt>
<totfact> 0.78393705E+04</totfact>
</mgrwt>
</event>
<event>
 6    1  0.1828142E-002  0.9147734E+02  0.7546771E-02  0.1430285E+00
          1   -1    0    0  501    0  0.00000000000E+00  0.00000000000E+00  0.96886186177E+01  0.96886186177E+01  0.00000000000E+00 0. -1.
         -1   -1    0    0    0  501 -0.00000000000E+00 -0.00000000000E+00 -0.33391241817E+03  0.33391241817E+03  0.00000000000E+00 0.  1.
         23    2    1    2    0    0 -0.99655931562E+01 -0.23213781853E+01 -0.31948741917E+03  0.33232561472E+03  0.90903252704E+02 0.  0.
         13    1    3    3    0    0  0.16943099083E+02 -0.40748131762E+02 -0.13872210440E+03  0.14557232257E+03  0.00000000000E+00 0. -1.
        -13    1    3    3    0    0 -0.26908692239E+02  0.38426753577E+02 -0.18076531476E+03  0.18675329215E+03  0.00000000000E+00 0.  1.
         22    1    1    2    0    0  0.99655931562E+01  0.23213781853E+01 -0.47363803913E+01  0.11275422069E+02  0.00000000000E+00 0. -1.
<mgrwt>
<rscale>  0 0.52902894E+02</rscale>
<asrwt>0</asrwt>
<pdfrwt beam="1">  1        1 0.14905569E-02 0.91477337E+02</pdfrwt>
<pdfrwt beam="2">  1       -1 0.51371133E-01 0.91477337E+02</pdfrwt>
<totfact> 0.31431179E+04</totfact>
</mgrwt>
</event>
<event>
 6    1  0.1828142E-002  0.9138250E+02  0.7546771E-02  0.1414336E+00
          1   -1    0    0  501    0  0.00000000000E+00  0.00000000000E+00  0.20530932386E+03  0.20530932386E+03  0.00000000000E+00 0. -1.
         -1   -1    0    0    0  501 -0.00000000000E+00 -0.00000000000E+00 -0.13754009593E+02  0.13754009593E+02  0.00000000000E+00 0.  1.
         23    2    1    2    0    0 -0.29177013612E+01 -0.12778478094E+02  0.15159144175E+03  0.17700487901E+03  0.90437600024E+02 0.  0.
         13    1    3    3    0    0  0.32153227598E+02 -0.21058552813E+02  0.26144004489E+02  0.46484423867E+02  0.00000000000E+00 0.  1.
        -13    1    3    3    0    0 -0.35070928959E+02  0.82800747196E+01  0.12544743727E+03  0.13052045515E+03  0.00000000000E+00 0. -1.
         22    1    1    2    0    0  0.29177013612E+01  0.12778478094E+02  0.39963872515E+02  0.42058454442E+02  0.00000000000E+00 0. -1.
<mgrwt>
<rscale>  0 0.56237495E+02</rscale>
<asrwt>0</asrwt>
<pdfrwt beam="1">  1        1 0.31586048E-01 0.91382504E+02</pdfrwt>
<pdfrwt beam="2">  1       -1 0.21160016E-02 0.91382504E+02</pdfrwt>
<totfact> 0.76932530E+04</totfact>
</mgrwt>
</event>
<event>
 6    1  0.1828142E-002  0.9468002E+02  0.7546771E-02  0.1365394E+00
         -2   -1    0    0    0  501 -0.00000000000E+00  0.00000000000E+00  0.62541921324E+03  0.62541921324E+03  0.00000000000E+00 0.  1.
          2   -1    0    0  501    0  0.00000000000E+00 -0.00000000000E+00 -0.59714019009E+01  0.59714019009E+01  0.00000000000E+00 0. -1.
         23    2    1    2    0    0 -0.70035386345E+00 -0.25877733089E+02  0.52449779768E+03  0.53297490167E+03  0.91072270570E+02 0.  0.
         11    1    3    3    0    0  0.28531282817E+02  0.16572423362E+02  0.98701265386E+02  0.10407026042E+03  0.00000000000E+00 0. -1.
        -11    1    3    3    0    0 -0.29231636681E+02 -0.42450156452E+02  0.42579653230E+03  0.42890464125E+03  0.00000000000E+00 0.  1.
         22    1    1    2    0    0  0.70035386345E+00  0.25877733089E+02  0.94950013657E+02  0.98415713475E+02  0.00000000000E+00 0.  1.
<mgrwt>
<rscale>  0 0.68464440E+02</rscale>
<asrwt>0</asrwt>
<pdfrwt beam="1">  1        2 0.91867771E-03 0.94680019E+02</pdfrwt>
<pdfrwt beam="2">  1       -2 0.96218289E-01 0.94680019E+02</pdfrwt>
<totfact> 0.13539524E+04</totfact>
</mgrwt>
</event>
<event>
 6    1  0.1828142E-002  0.9182499E+02  0.7546771E-02  0.1420521E+00
         -2   -1    0    0    0  501 -0.00000000000E+00  0.00000000000E+00  0.31272244225E+03  0.31272244225E+03  0.00000000000E+00 0.  1.
          2   -1    0    0  501    0  0.00000000000E+00 -0.00000000000E+00 -0.87269356201E+01  0.87269356201E+01  0.00000000000E+00 0. -1.
         23    2    1    2    0    0  0.83835500337E+01 -0.82216261771E+01  0.25385210485E+03  0.26994947700E+03  0.91071125745E+02 0.  0.
         13    1    3    3    0    0  0.46016310443E+02 -0.15018517087E+02  0.18459339612E+03  0.19083442712E+03  0.00000000000E+00 0. -1.
        -13    1    3    3    0    0 -0.37632760409E+02  0.67968909094E+01  0.69258708734E+02  0.79115049880E+02  0.00000000000E+00 0.  1.
         22    1    1    2    0    0 -0.83835500337E+01  0.82216261771E+01  0.50143401779E+02  0.51499900875E+02  0.00000000000E+00 0. -1.
<mgrwt>
<rscale>  0 0.54910823E+02</rscale>
<asrwt>0</asrwt>
<pdfrwt beam="1">  1        2 0.13426057E-02 0.91824991E+02</pdfrwt>
<pdfrwt beam="2">  1       -2 0.48111136E-01 0.91824991E+02</pdfrwt>
<totfact> 0.34370283E+04</totfact>
</mgrwt>
</event>
<event>
 6    1  0.1828142E-002  0.9689375E+02  0.7546771E-02  0.1348355E+00
          2   -1    0    0  501    0  0.00000000000E+00  0.00000000000E+00  0.46800023438E+03  0.46800023438E+03  0.00000000000E+00 0.  1.
         -2   -1    0    0    0  501 -0.00000000000E+00 -0.00000000000E+00 -0.94189053400E+01  0.94189053400E+01  0.00000000000E+00 0. -1.
         23    2    1    2    0    0  0.24282318886E+02 -0.21155761392E+02  0.28910633087E+03  0.30491124930E+03  0.91384912065E+02 0.  0.
         11    1    3    3    0    0  0.43928772123E+02 -0.88167605346E+01  0.27303915840E+03  0.27669090030E+03  0.00000000000E+00 0. -1.
        -11    1    3    3    0    0 -0.19646453236E+02 -0.12339000858E+02  0.16067172465E+02  0.28220349005E+02  0.00000000000E+00 0.  1.
         22    1    1    2    0    0 -0.24282318886E+02  0.21155761392E+02  0.16947499817E+03  0.17250789042E+03  0.00000000000E+00 0.  1.
<mgrwt>
<rscale>  0 0.73570635E+02</rscale>
<asrwt>0</asrwt>
<pdfrwt beam="1">  1        2 0.72000018E-01 0.96893753E+02</pdfrwt>
<pdfrwt beam="2">  1       -2 0.14490627E-02 0.96893753E+02</pdfrwt>
<totfact> 0.73310589E+04</totfact>
</mgrwt>
</event>
<event>
 6    1  0.1828142E-002  0.9282345E+02  0.7546771E-02  0.1396266E+00
         -1   -1    0    0    0  501 -0.00000000000E+00  0.00000000000E+00  0.19129224676E+02  0.19129224676E+02  0.00000000000E+00 0.  1.
          1   -1    0    0  501    0  0.00000000000E+00 -0.00000000000E+00 -0.16146630485E+03  0.16146630485E+03  0.00000000000E+00 0. -1.
         23    2    1    2    0    0  0.27398187203E+01 -0.16385433019E+02 -0.10770476631E+03  0.14218477341E+03  0.91324717804E+02 0.  0.
         13    1    3    3    0    0 -0.24528995697E+02 -0.10399826202E+02 -0.11092676961E+03  0.11408144560E+03  0.00000000000E+00 0. -1.
        -13    1    3    3    0    0  0.27268814417E+02 -0.59856068176E+01  0.32220032966E+01  0.28103327809E+02  0.00000000000E+00 0.  1.
         22    1    1    2    0    0 -0.27398187203E+01  0.16385433019E+02 -0.34632313862E+02  0.38410756114E+02  0.00000000000E+00 0. -1.
<mgrwt>
<rscale>  0 0.60374669E+02</rscale>
<asrwt>0</asrwt>
<pdfrwt beam="1">  1        1 0.24840969E-01 0.92823451E+02</pdfrwt>
<pdfrwt beam="2">  1       -1 0.29429577E-02 0.92823451E+02</pdfrwt>
<totfact> 0.64594590E+04</totfact>
</mgrwt>
</event>
<event>
 6    1  0.1828142E-002  0.9123115E+02  0.7546771E-02  0.1430901E+00
         -1   -1    0    0    0  501 -0.00000000000E+00  0.00000000000E+00  0.12571303181E+03  0.12571303181E+03  0.00000000000E+00 0.  1.
          1   -1    0    0  501    0  0.00000000000E+00 -0.00000000000E+00 -0.20549390787E+02  0.20549390787E+02  0.00000000000E+00 0. -1.
         23    2    1    2    0    0  0.16510784403E+01 -0.10085418569E+02  0.91619389794E+02  0.12929514618E+03  0.90656938574E+02 0.  0.
         11    1    3    3    0    0  0.44184892103E+02  0.27126515703E+01  0.30572018634E+02  0.53798805675E+02  0.00000000000E+00 0. -1.
        -11    1    3    3    0    0 -0.42533813663E+02 -0.12798070139E+02  0.61047371160E+02  0.75496340505E+02  0.00000000000E+00 0.  1.
         22    1    1    2    0    0 -0.16510784403E+01  0.10085418569E+02  0.13544251231E+02  0.16967276421E+02  0.00000000000E+00 0. -1.
<mgrwt>
<rscale>  0 0.52779662E+02</rscale>
<asrwt>0</asrwt>
<pdfrwt beam="1">  1        1 0.31614448E-02 0.91231147E+02</pdfrwt>
<pdfrwt beam="2">  1       -1 0.19340466E-01 0.91231147E+02</pdfrwt>
<totfact> 0.57729430E+04</totfact>
</mgrwt>
</event>
<event>
 6    1  0.1828142E-002  0.9140314E+02  0.7546771E-02  0.1422381E+00
          1   -1    0    0  501    0  0.00000000000E+00  0.00000000000E+00  0.10444474614E+03  0.10444474614E+03  0.00000000000E+00 0. -1.
         -1   -1    0    0    0  501 -0.00000000000E+00 -0.00000000000E+00 -0.35692155013E+02  0.35692155013E+02  0.00000000000E+00 0.  1.
         23    2    1    2    0    0 -0.67468013301E+01  0.93998267746E+01  0.24829754283E+02  0.94715632258E+02  0.90667845594E+02 0.  0.
         13    1    3    3    0    0 -0.24803787040E+02  0.91182815741E+01 -0.28228593819E+02  0.38668131832E+02  0.00000000000E+00 0.  1.
        -13    1    3    3    0    0  0.18056985710E+02  0.28154520046E+00  0.53058348102E+02  0.56047500425E+02  0.00000000000E+00 0. -1.
         22    1    1    2    0    0  0.67468013301E+01 -0.93998267746E+01  0.43922836843E+02  0.45421268893E+02  0.00000000000E+00 0. -1.
<mgrwt>
<rscale>  0 0.54520360E+02</rscale>
<asrwt>0</asrwt>
<pdfrwt beam="1">  1        1 0.16068422E-01 0.91403142E+02</pdfrwt>
<pdfrwt beam="2">  1       -1 0.54911008E-02 0.91403142E+02</pdfrwt>
<totfact> 0.45004465E+04</totfact>
</mgrwt>
</event>
<event>
 6    1  0.1828142E-002  0.9320692E+02  0.7546771E-02  0.1406314E+00
          2   -1    0    0  501    0  0.00000000000E+00  0.00000000000E+00  0.30761325062E+01  0.30761325062E+01  0.00000000000E+00 0. -1.
         -2   -1    0    0    0  501 -0.00000000000E+00 -0.00000000000E+00 -0.11503878808E+04  0.11503878808E+04  0.00000000000E+00 0.  1.
         23    2    1    2    0    0 -0.10313473748E+02  0.94662316437E+01 -0.11044072159E+04  0.11083333566E+04  0.92149624811E+02 0.  0.
         13    1    3    3    0    0  0.33427545006E+02  0.19634351564E+01 -0.19577611975E+03  0.19861909503E+03  0.00000000000E+00 0. -1.
        -13    1    3    3    0    0 -0.43741018754E+02  0.75027964873E+01 -0.90863109619E+03  0.90971426153E+03  0.00000000000E+00 0.  1.
         22    1    1    2    0    0  0.10313473748E+02 -0.94662316437E+01 -0.42904532380E+02  0.45130656776E+02  0.00000000000E+00 0.  1.
<mgrwt>
<rscale>  0 0.58024559E+02</rscale>
<asrwt>0</asrwt>
<pdfrwt beam="1">  1        2 0.47325040E-03 0.93206924E+02</pdfrwt>
<pdfrwt beam="2">  1       -2 0.17698303E+00 0.93206924E+02</pdfrwt>
<totfact> 0.75687777E+03</totfact>
</mgrwt>
</event>
<event>
 6    1  0.1828142E-002  0.9178173E+02  0.7546771E-02  0.1387589E+00
          2   -1    0    0  501    0  0.00000000000E+00  0.00000000000E+00  0.38731705085E+03  0.38731705085E+03  0.00000000000E+00 0.  1.
         -2   -1    0    0    0  501 -0.00000000000E+00 -0.00000000000E+00 -0.80301442593E+01  0.80301442593E+01  0.00000000000E+00 0. -1.
         23    2    1    2    0    0  0.41449450533E+01  0.19308881054E+02  0.31392287846E+03  0.32706491607E+03  0.89631870713E+02 0.  0.
         11    1    3    3    0    0  0.21992299585E+02  0.50894948055E+02  0.19544079201E+03  0.20315280003E+03  0.00000000000E+00 0. -1.
        -11    1    3    3    0    0 -0.17847354532E+02 -0.31586067002E+02  0.11848208645E+03  0.12391211604E+03  0.00000000000E+00 0.  1.
         22    1    1    2    0    0 -0.41449450533E+01 -0.19308881054E+02  0.65364028129E+02  0.68282279035E+02  0.00000000000E+00 0.  1.
<mgrwt>
<rscale>  0 0.62510378E+02</rscale>
<asrwt>0</asrwt>
<pdfrwt beam="1">  1        2 0.59587224E-01 0.91781729E+02</pdfrwt>
<pdfrwt beam="2">  1       -2 0.12354071E-02 0.91781729E+02</pdfrwt>
<totfact> 0.11161393E+05</totfact>
</mgrwt>
</event>
<event>
 6    1  0.1828142E-002  0.9382887E+02  0.7546771E-02  0.1414269E+00
          4   -1    0    0  501    0  0.00000000000E+00  0.00000000000E+00  0.10332638702E+02  0.10332638702E+02  0.00000000000E+00 0. -1.
         -4   -1    0    0    0  501 -0.00000000000E+00 -0.00000000000E+00 -0.28824025891E+03  0.28824025891E+03  0.00000000000E+00 0.  1.
         23    2    1    2    0    0 -0.76011027593E+01  0.94416657571E+01 -0.21614590640E+03  0.23563299685E+03  0.93042649016E+02 0.  0.
         11    1    3    3    0    0  0.11733229746E+01  0.50327848388E+02 -0.95677228013E+02  0.10811290844E+03  0.00000000000E+00 0. -1.
        -11    1    3    3    0    0 -0.87744257339E+01 -0.40886182631E+02 -0.12046867838E+03  0.12752008841E+03  0.00000000000E+00 0.  1.
         22    1    1    2    0    0  0.76011027593E+01 -0.94416657571E+01 -0.61761713808E+02  0.62939900762E+02  0.00000000000E+00 0. -1.
<mgrwt>
<rscale>  0 0.56252022E+02</rscale>
<asrwt>0</asrwt>
<pdfrwt beam="1">  1        4 0.15896369E-02 0.93828867E+02</pdfrwt>
<pdfrwt beam="2">  1       -4 0.44344652E-01 0.93828867E+02</pdfrwt>
<totfact> 0.10534942E+04</totfact>
</mgrwt>
</event>
<event>
 6    1  0.1828142E-002  0.9924794E+02  0.7546771E-02  0.1405748E+00
          4   -1    0    0  501    0  0.00000000000E+00  0.00000000000E+00  0.31861082839E+02  0.31861082839E+02  0.00000000000E+00 0. -1.
         -4   -1    0    0    0  501 -0.00000000000E+00 -0.00000000000E+00 -0.13183234151E+03  0.13183234151E+03  0.00000000000E+00 0.  1.
         23    2    1    2    0    0  0.10731338106E+02  0.46582341905E+01 -0.11009218569E+03  0.14822429616E+03  0.98556034096E+02 0.  0.
         13    1    3    3    0    0  0.11304930589E+02  0.25089697600E+02  0.77764108831E+01  0.28596624757E+02  0.00000000000E+00 0. -1.
        -13    1    3    3    0    0 -0.57359248289E+00 -0.20431463409E+02 -0.11786859658E+03  0.11962767140E+03  0.00000000000E+00 0.  1.
         22    1    1    2    0    0 -0.10731338106E+02 -0.46582341905E+01  0.10120927021E+02  0.15469128194E+02  0.00000000000E+00 0.  1.
<mgrwt>
<rscale>  0 0.58153516E+02</rscale>
<asrwt>0</asrwt>
<pdfrwt beam="1">  1        4 0.49017051E-02 0.99247935E+02</pdfrwt>
<pdfrwt beam="2">  1       -4 0.20281899E-01 0.99247935E+02</pdfrwt>
<totfact> 0.81128226E+03</totfact>
</mgrwt>
</event>
<event>
 6    1  0.1828142E-002  0.9511732E+02  0.7546771E-02  0.1367619E+00
          2   -1    0    0  501    0  0.00000000000E+00  0.00000000000E+00  0.12536094846E+02  0.12536094846E+02  0.00000000000E+00 0. -1.
         -2   -1    0    0    0  501 -0.00000000000E+00 -0.00000000000E+00 -0.46938298322E+03  0.46938298322E+03  0.00000000000E+00 0.  1.
         23    2    1    2    0    0 -0.18421067770E+02  0.16309507033E+02 -0.44417253323E+03  0.45424282406E+03  0.91880183818E+02 0.  0.
         13    1    3    3    0    0 -0.47823305745E+02  0.10628406110E+02 -0.38314118086E+03  0.38626052874E+03  0.00000000000E+00 0.  1.
        -13    1    3    3    0    0  0.29402237975E+02  0.56811009232E+01 -0.61031352367E+02  0.67982295323E+02  0.00000000000E+00 0. -1.
         22    1    1    2    0    0  0.18421067770E+02 -0.16309507033E+02 -0.12674355148E+02  0.27676254007E+02  0.00000000000E+00 0. -1.
<mgrwt>
<rscale>  0 0.67833501E+02</rscale>
<asrwt>0</asrwt>
<pdfrwt beam="1">  1        2 0.19286301E-02 0.95117317E+02</pdfrwt>
<pdfrwt beam="2">  1       -2 0.72212763E-01 0.95117317E+02</pdfrwt>
<totfact> 0.92486972E+03</totfact>
</mgrwt>
</event>
<event>
 6    1  0.1828142E-002  0.9208057E+02  0.7546771E-02  0.1429574E+00
          2   -1    0    0  501    0  0.00000000000E+00  0.00000000000E+00  0.34910173373E+02  0.34910173373E+02  0.00000000000E+00 0. -1.
         -2   -1    0    0    0  501 -0.00000000000E+00 -0.00000000000E+00 -0.74836041727E+02  0.74836041727E+02  0.00000000000E+00 0.  1.
         23    2    1    2    0    0 -0.35296053578E+00  0.10135114455E+02 -0.36260302138E+02  0.98962825010E+02  0.91520413552E+02 0.  0.
         11    1    3    3    0    0 -0.76410245922E+01 -0.26059497543E+02  0.18542497923E+02  0.32883231262E+02  0.00000000000E+00 0. -1.
        -11    1    3    3    0    0  0.72880640564E+01  0.36194611998E+02 -0.54802800061E+02  0.66079593748E+02  0.00000000000E+00 0.  1.
         22    1    1    2    0    0  0.35296053578E+00 -0.10135114455E+02 -0.36655662154E+01  0.10783390090E+02  0.00000000000E+00 0. -1.
<mgrwt>
<rscale>  0 0.53045550E+02</rscale>
<asrwt>0</asrwt>
<pdfrwt beam="1">  1        2 0.53707959E-02 0.92080569E+02</pdfrwt>
<pdfrwt beam="2">  1       -2 0.11513237E-01 0.92080569E+02</pdfrwt>
<totfact> 0.64548015E+04</totfact>
</mgrwt>
</event>
<event>
 6    1  0.1828142E-002  0.9153251E+02  0.7546771E-02  0.1371742E+00
          4   -1    0    0  501    0  0.00000000000E+00  0.00000000000E+00  0.26802819366E+02  0.26802819366E+02  0.00000000000E+00 0. -1.
         -4   -1    0    0    0  501 -0.00000000000E+00 -0.00000000000E+00 -0.18492649992E+03  0.18492649992E+03  0.00000000000E+00 0.  1.
         23    2    1    2    0    0 -0.85469404420E+01 -0.24329083015E+02 -0.16158711989E+03  0.18571105871E+03  0.87825084927E+02 0.  0.
         11    1    3    3    0    0 -0.30987702121E+02 -0.23725963094E+02 -0.15827914930E+03  0.16301977828E+03  0.00000000000E+00 0.  1.
        -11    1    3    3    0    0  0.22440761679E+02 -0.60311992103E+00 -0.33079705945E+01  0.22691280436E+02  0.00000000000E+00 0. -1.
         22    1    1    2    0    0  0.85469404420E+01  0.24329083015E+02  0.34634393365E+01  0.26018260574E+02  0.00000000000E+00 0. -1.
<mgrwt>
<rscale>  0 0.66685362E+02</rscale>
<asrwt>0</asrwt>
<pdfrwt beam="1">  1        4 0.41235108E-02 0.91532508E+02</pdfrwt>
<pdfrwt beam="2">  1       -4 0.28450230E-01 0.91532508E+02</pdfrwt>
<totfact> 0.56269222E+03</totfact>
</mgrwt>
</event>
<event>
 6    1  0.1828142E-002  0.9899317E+02  0.7546771E-02  0.1358517E+00
          2   -1    0    0  501    0  0.00000000000E+00  0.00000000000E+00  0.20427705561E+02  0.20427705561E+02  0.00000000000E+00 0. -1.
         -2   -1    0    0    0  501 -0.00000000000E+00 -0.00000000000E+00 -0.55895380757E+03  0.55895380757E+03  0.00000000000E+00 0.  1.
         23    2    1    2    0    0  0.13360481359E+02  0.21619897234E+02 -0.54437462999E+03  0.55330225512E+03  0.95675103000E+02 0.  0.
         13    1    3    3    0    0  0.41903676442E+02  0.19399796445E+02 -0.13032088482E+03  0.13825991184E+03  0.00000000000E+00 0. -1.
        -13    1    3    3    0    0 -0.28543195083E+02  0.22201007895E+01 -0.41405374517E+03  0.41504234329E+03  0.00000000000E+00 0.  1.
         22    1    1    2    0    0 -0.13360481359E+02 -0.21619897234E+02  0.58485279789E+01  0.26079258005E+02  0.00000000000E+00 0. -1.
<mgrwt>
<rscale>  0 0.70465489E+02</rscale>
<asrwt>0</asrwt>
<pdfrwt beam="1">  1        2 0.31427241E-02 0.98993170E+02</pdfrwt>
<pdfrwt beam="2">  1       -2 0.85992889E-01 0.98993170E+02</pdfrwt>
<totfact> 0.33042831E+03</totfact>
</mgrwt>
</event>
<event>
 6    1  0.1828142E-002  0.1004480E+03  0.7546771E-02  0.1364178E+00
          3   -1    0    0  501    0  0.00000000000E+00  0.00000000000E+00  0.52797566476E+02  0.52797566476E+02  0.00000000000E+00 0. -1.
         -3   -1    0    0    0  501 -0.00000000000E+00 -0.00000000000E+00 -0.71545971149E+02  0.71545971149E+02  0.00000000000E+00 0.  1.
         23    2    1    2    0    0  0.21492538561E+02 -0.52447286869E+01 -0.18947706643E+02  0.10221943055E+03  0.97981426818E+02 0.  0.
         13    1    3    3    0    0 -0.11518499744E+02 -0.22659542158E+02  0.30859110346E+02  0.39980187325E+02  0.00000000000E+00 0. -1.
        -13    1    3    3    0    0  0.33011038305E+02  0.17414813471E+02 -0.49806816989E+02  0.62239243221E+02  0.00000000000E+00 0.  1.
         22    1    1    2    0    0 -0.21492538561E+02  0.52447286869E+01  0.19930197037E+00  0.22124107079E+02  0.00000000000E+00 0. -1.
<mgrwt>
<rscale>  0 0.68812595E+02</rscale>
<asrwt>0</asrwt>
<pdfrwt beam="1">  1        3 0.81227026E-02 0.10044798E+03</pdfrwt>
<pdfrwt beam="2">  1       -3 0.11007072E-01 0.10044798E+03</pdfrwt>
<totfact> 0.13757400E+04</totfact>
</mgrwt>
</event>
<event>
 6    1  0.1828142E-002  0.9197881E+02  0.7546771E-02  0.1417516E+00
         -3   -1    0    0    0  501 -0.00000000000E+00  0.00000000000E+00  0.44853982545E+03  0.44853982545E+03  0.00000000000E+00 0.  1.
          3   -1    0    0  501    0  0.00000000000E+00 -0.00000000000E+00 -0.63100135598E+01  0.63100135598E+01  0.00000000000E+00 0. -1.
         23    2    1    2    0    0 -0.11965085631E+02 -0.25649418038E+01  0.41378454843E+03  0.42388412872E+03  0.91161175169E+02 0.  0.
         13    1    3    3    0    0 -0.33498571258E+02 -0.36666371389E+02  0.18388735940E+03  0.19047608253E+03  0.00000000000E+00 0.  1.
        -13    1    3    3    0    0  0.21533485627E+02  0.34101429585E+02  0.22989718903E+03  0.23340804619E+03  0.00000000000E+00 0. -1.
         22    1    1    2    0    0  0.11965085631E+02  0.25649418038E+01  0.28445263459E+02  0.30965710292E+02  0.00000000000E+00 0.  1.
<mgrwt>
<rscale>  0 0.55549976E+02</rscale>
<asrwt>0</asrwt>
<pdfrwt beam="1">  1        3 0.97077167E-03 0.91978813E+02</pdfrwt>
<pdfrwt beam="2">  1       -3 0.69006102E-01 0.91978813E+02</pdfrwt>
<totfact> 0.12131563E+04</totfact>
</mgrwt>
</event>
<event>
 6    1  0.1828142E-002  0.8831180E+02  0.7546771E-02  0.1431893E+00
          2   -1    0    0  501    0  0.00000000000E+00  0.00000000000E+00  0.76948532818E+01  0.76948532818E+01  0.00000000000E+00 0. -1.
         -2   -1    0    0    0  501 -0.00000000000E+00 -0.00000000000E+00 -0.46356514395E+03  0.46356514395E+03  0.00000000000E+00 0.  1.
         23    2    1    2    0    0 -0.98030978484E+01  0.52047157716E+01 -0.45023119541E+03  0.45881053182E+03  0.87611557444E+02 0.  0.
         11    1    3    3    0    0 -0.19201273611E+02  0.16900895184E+01 -0.44814845206E+03  0.44856279426E+03  0.00000000000E+00 0.  1.
        -11    1    3    3    0    0  0.93981757622E+01  0.35146262532E+01 -0.20827433538E+01  0.10247737567E+02  0.00000000000E+00 0. -1.
         22    1    1    2    0    0  0.98030978484E+01 -0.52047157716E+01 -0.56390952623E+01  0.12449465413E+02  0.00000000000E+00 0. -1.
<mgrwt>
<rscale>  0 0.52581856E+02</rscale>
<asrwt>0</asrwt>
<pdfrwt beam="1">  1        2 0.11838237E-02 0.88311804E+02</pdfrwt>
<pdfrwt beam="2">  1       -2 0.71317708E-01 0.88311804E+02</pdfrwt>
<totfact> 0.18256617E+04</totfact>
</mgrwt>
</event>
<event>
 6    1  0.1828142E-002  0.9456268E+02  0.7546771E-02  0.1368477E+00
          2   -1    0    0  501    0  0.00000000000E+00  0.00000000000E+00  0.17816638740E+03  0.17816638740E+03  0.00000000000E+00 0.  1.
         -2   -1    0    0    0  501 -0.00000000000E+00 -0.00000000000E+00 -0.21624957656E+02  0.21624957656E+02  0.00000000000E+00 0. -1.
         23    2    1    2    0    0 -0.10618279545E+02 -0.22284412761E+02  0.97633909787E+02  0.13592086032E+03  0.91283936253E+02 0.  0.
         11    1    3    3    0    0 -0.30406340881E+02 -0.30535453111E+02  0.80889263059E+01  0.43845070318E+02  0.00000000000E+00 0. -1.
        -11    1    3    3    0    0  0.19788061336E+02  0.82510403494E+01  0.89544983481E+02  0.92075790004E+02  0.00000000000E+00 0.  1.
         22    1    1    2    0    0  0.10618279545E+02  0.22284412761E+02  0.58907519957E+02  0.63870484734E+02  0.00000000000E+00 0.  1.
<mgrwt>
<rscale>  0 0.67592349E+02</rscale>
<asrwt>0</asrwt>
<pdfrwt beam="1">  1        2 0.27410213E-01 0.94562677E+02</pdfrwt>
<pdfrwt beam="2">  1       -2 0.33269167E-02 0.94562677E+02</pdfrwt>
<totfact> 0.61128744E+04</totfact>
</mgrwt>
</event>
<event>
 6    1  0.1828142E-002  0.8795370E+02  0.7546771E-02  0.1433479E+00
          1   -1    0    0  501    0  0.00000000000E+00  0.00000000000E+00  0.15970327581E+02  0.15970327581E+02  0.00000000000E+00 0. -1.
         -1   -1    0    0    0  501 -0.00000000000E+00 -0.00000000000E+00 -0.17317378173E+03  0.17317378173E+03  0.00000000000E+00 0.  1.
         23    2    1    2    0    0 -0.81058938893E+01  0.73905167264E+01 -0.15460334550E+03  0.17787087471E+03  0.87266994778E+02 0.  0.
         13    1    3    3    0    0  0.21424177536E+02 -0.26269720510E+02 -0.29296368859E+02  0.44803692115E+02  0.00000000000E+00 0. -1.
        -13    1    3    3    0    0 -0.29530071426E+02  0.33660237237E+02 -0.12530697664E+03  0.13306718260E+03  0.00000000000E+00 0.  1.
         22    1    1    2    0    0  0.81058938893E+01 -0.73905167264E+01 -0.26001086416E+01  0.11273234592E+02  0.00000000000E+00 0.  1.
<mgrwt>
<rscale>  0 0.52267917E+02</rscale>
<asrwt>0</asrwt>
<pdfrwt beam="1">  1        1 0.24569735E-02 0.87953702E+02</pdfrwt>
<pdfrwt beam="2">  1       -1 0.26642120E-01 0.87953702E+02</pdfrwt>
<totfact> 0.48450575E+04</totfact>
</mgrwt>
</event>
<event>
 6    1  0.1828142E-002  0.9182726E+02  0.7546771E-02  0.1389848E+00
          2   -1    0    0  501    0  0.00000000000E+00  0.00000000000E+00  0.30283984533E+03  0.30283984533E+03  0.00000000000E+00 0. -1.
         -2   -1    0    0    0  501 -0.00000000000E+00 -0.00000000000E+00 -0.10208934796E+02  0.10208934796E+02  0.00000000000E+00 0.  1.
         23    2    1    2    0    0  0.18930198251E+02  0.17932543215E+01  0.23224632339E+03  0.24974106708E+03  0.89836950583E+02 0.  0.
         13    1    3    3    0    0 -0.32034200900E+02 -0.14885393028E+02  0.12410895367E+03  0.12903796857E+03  0.00000000000E+00 0. -1.
        -13    1    3    3    0    0  0.50964399151E+02  0.16678647350E+02  0.10813736973E+03  0.12070309851E+03  0.00000000000E+00 0.  1.
         22    1    1    2    0    0 -0.18930198251E+02 -0.17932543215E+01  0.60384587138E+02  0.63307713043E+02  0.00000000000E+00 0. -1.
<mgrwt>
<rscale>  0 0.61944464E+02</rscale>
<asrwt>0</asrwt>
<pdfrwt beam="1">  1        2 0.46590739E-01 0.91827261E+02</pdfrwt>
<pdfrwt beam="2">  1       -2 0.15706056E-02 0.91827261E+02</pdfrwt>
<totfact> 0.10259234E+05</totfact>
</mgrwt>
</event>
<event>
 6    1  0.1828142E-002  0.8479141E+02  0.7546771E-02  0.1406580E+00
          1   -1    0    0  501    0  0.00000000000E+00  0.00000000000E+00  0.19381599992E+03  0.19381599992E+03  0.00000000000E+00 0. -1.
         -1   -1    0    0    0  501 -0.00000000000E+00 -0.00000000000E+00 -0.14140080768E+02  0.14140080768E+02  0.00000000000E+00 0.  1.
         23    2    1    2    0    0 -0.11906319804E+02 -0.14181980640E+02  0.13286403240E+03  0.15761482755E+03  0.82744750482E+02 0.  0.
         11    1    3    3    0    0 -0.18678203560E+02  0.94800597747E+01  0.13129231450E+03  0.13295269335E+03  0.00000000000E+00 0. -1.
        -11    1    3    3    0    0  0.67718837562E+01 -0.23662040414E+02  0.15717178959E+01  0.24662134200E+02  0.00000000000E+00 0.  1.
         22    1    1    2    0    0  0.11906319804E+02  0.14181980640E+02  0.46811886754E+02  0.50341253139E+02  0.00000000000E+00 0. -1.
<mgrwt>
<rscale>  0 0.57963964E+02</rscale>
<asrwt>0</asrwt>
<pdfrwt beam="1">  1        1 0.29817844E-01 0.84791407E+02</pdfrwt>
<pdfrwt beam="2">  1       -1 0.21753972E-02 0.84791407E+02</pdfrwt>
<totfact> 0.78469962E+04</totfact>
</mgrwt>
</event>
<event>
 6    1  0.1828142E-002  0.9148101E+02  0.7546771E-02  0.1429393E+00
          1   -1    0    0  501    0  0.00000000000E+00  0.00000000000E+00  0.90494865577E+02  0.90494865577E+02  0.00000000000E+00 0. -1.
         -1   -1    0    0    0  501 -0.00000000000E+00 -0.00000000000E+00 -0.31268182500E+02  0.31268182500E+02  0.00000000000E+00 0.  1.
         23    2    1    2    0    0 -0.39802029011E+01 -0.95762116155E+01  0.39845871528E+02  0.99782108599E+02  0.90891308026E+02 0.  0.
         11    1    3    3    0    0 -0.28983022692E+02  0.26881168084E+02  0.39053320387E+02  0.55567748157E+02  0.00000000000E+00 0. -1.
        -11    1    3    3    0    0  0.25002819791E+02 -0.36457379699E+02  0.79255114069E+00  0.44214360443E+02  0.00000000000E+00 0.  1.
         22    1    1    2    0    0  0.39802029011E+01  0.95762116155E+01  0.19380811548E+02  0.21980939477E+02  0.00000000000E+00 0.  1.
<mgrwt>
<rscale>  0 0.53082018E+02</rscale>
<asrwt>0</asrwt>
<pdfrwt beam="1">  1        1 0.13922287E-01 0.91481013E+02</pdfrwt>
<pdfrwt beam="2">  1       -1 0.48104897E-02 0.91481013E+02</pdfrwt>
<totfact> 0.65635932E+04</totfact>
</mgrwt>
</event>
<event>
 6    1  0.1828142E-002  0.9119503E+02  0.7546771E-02  0.1384382E+00
          2   -1    0    0  501    0  0.00000000000E+00  0.00000000000E+00  0.13117723896E+03  0.13117723896E+03  0.00000000000E+00 0.  1.
         -2   -1    0    0    0  501 -0.00000000000E+00 -0.00000000000E+00 -0.31313901606E+02  0.31313901606E+02  0.00000000000E+00 0. -1.
         23    2    1    2    0    0  0.18899831281E+02 -0.96120291604E+01  0.41117683843E+02  0.10003598439E+03  0.88695769462E+02 0.  0.
         13    1    3    3    0    0  0.48194892278E+02 -0.52031033922E+00 -0.66593460654E+00  0.48202301122E+02  0.00000000000E+00 0. -1.
        -13    1    3    3    0    0 -0.29295060998E+02 -0.90917188212E+01  0.41783618449E+02  0.51833683264E+02  0.00000000000E+00 0.  1.
         22    1    1    2    0    0 -0.18899831281E+02  0.96120291604E+01  0.58745653513E+02  0.62455156182E+02  0.00000000000E+00 0.  1.
<mgrwt>
<rscale>  0 0.63325852E+02</rscale>
<asrwt>0</asrwt>
<pdfrwt beam="1">  1        2 0.20181113E-01 0.91195034E+02</pdfrwt>
<pdfrwt beam="2">  1       -2 0.48175234E-02 0.91195034E+02</pdfrwt>
<totfact> 0.49370070E+04</totfact>
</mgrwt>
</event>
<event>
 6    1  0.1828142E-002  0.9277528E+02  0.7546771E-02  0.1398785E+00
          2   -1    0    0  501    0  0.00000000000E+00  0.00000000000E+00  0.89512674539E+01  0.89512674539E+01  0.00000000000E+00 0. -1.
         -2   -1    0    0    0  501 -0.00000000000E+00 -0.00000000000E+00 -0.44005375206E+03  0.44005375206E+03  0.00000000000E+00 0.  1.
         23    2    1    2    0    0 -0.15355268879E+02  0.44453420025E+01 -0.41846878437E+03  0.42862964885E+03  0.91387674431E+02 0.  0.
         11    1    3    3    0    0  0.28326201098E+02  0.16113222673E+02 -0.69696719877E+02  0.76939212208E+02  0.00000000000E+00 0. -1.
        -11    1    3    3    0    0 -0.43681469977E+02 -0.11667880670E+02 -0.34877206449E+03  0.35169043664E+03  0.00000000000E+00 0.  1.
         22    1    1    2    0    0  0.15355268879E+02 -0.44453420025E+01 -0.12633700239E+02  0.20375370662E+02  0.00000000000E+00 0. -1.
<mgrwt>
<rscale>  0 0.59773364E+02</rscale>
<asrwt>0</asrwt>
<pdfrwt beam="1">  1        2 0.13771179E-02 0.92775279E+02</pdfrwt>
<pdfrwt beam="2">  1       -2 0.67700584E-01 0.92775279E+02</pdfrwt>
<totfact> 0.16687565E+04</totfact>
</mgrwt>
</event>
<event>
 6    1  0.1828142E-002  0.9297803E+02  0.7546771E-02  0.1392388E+00
          2   -1    0    0  501    0  0.00000000000E+00  0.00000000000E+00  0.17495811342E+02  0.17495811342E+02  0.00000000000E+00 0. -1.
         -2   -1    0    0    0  501 -0.00000000000E+00 -0.00000000000E+00 -0.17982550272E+03  0.17982550272E+03  0.00000000000E+00 0.  1.
         23    2    1    2    0    0 -0.17461212780E+02  0.20937613758E+01 -0.12256324426E+03  0.15383973055E+03  0.91299704618E+02 0.  0.
         13    1    3    3    0    0 -0.21696027685E+02 -0.31130102974E+02 -0.11271296009E+03  0.11892860170E+03  0.00000000000E+00 0.  1.
        -13    1    3    3    0    0  0.42348149050E+01  0.33223864350E+02 -0.98502841671E+01  0.34911128853E+02  0.00000000000E+00 0. -1.
         22    1    1    2    0    0  0.17461212780E+02 -0.20937613758E+01 -0.39766447116E+02  0.43481583511E+02  0.00000000000E+00 0. -1.
<mgrwt>
<rscale>  0 0.61316710E+02</rscale>
<asrwt>0</asrwt>
<pdfrwt beam="1">  1        2 0.26916634E-02 0.92978029E+02</pdfrwt>
<pdfrwt beam="2">  1       -2 0.27665461E-01 0.92978029E+02</pdfrwt>
<totfact> 0.37418409E+04</totfact>
</mgrwt>
</event>
<event>
 6    1  0.1828142E-002  0.1201236E+03  0.7546771E-02  0.1281693E+00
         -2   -1    0    0    0  501 -0.00000000000E+00  0.00000000000E+00  0.61778361526E+03  0.61778361526E+03  0.00000000000E+00 0.  1.
          2   -1    0    0  501    0  0.00000000000E+00 -0.00000000000E+00 -0.17124699843E+02  0.17124699843E+02  0.00000000000E+00 0. -1.
         23    2    1    2    0    0 -0.55405697351E+02  0.92970531840E+01  0.53580218174E+03  0.54910259035E+03  0.10617650529E+03 0.  0.
         13    1    3    3    0    0 -0.29622854768E+02 -0.45576032414E+02  0.33384280769E+03  0.33823912917E+03  0.00000000000E+00 0.  1.
        -13    1    3    3    0    0 -0.25782842582E+02  0.54873085598E+02  0.20195937405E+03  0.21086346118E+03  0.00000000000E+00 0. -1.
         22    1    1    2    0    0  0.55405697351E+02 -0.92970531840E+01  0.64856733677E+02  0.85805724751E+02  0.00000000000E+00 0.  1.
<mgrwt>
<rscale>  0 0.99338420E+02</rscale>
<asrwt>0</asrwt>
<pdfrwt beam="1">  1        2 0.26345697E-02 0.12012359E+03</pdfrwt>
<pdfrwt beam="2">  1       -2 0.95043616E-01 0.12012359E+03</pdfrwt>
<totfact> 0.34001907E+03</totfact>
</mgrwt>
</event>
<event>
 6    1  0.1828142E-002  0.9261094E+02  0.7546771E-02  0.1422259E+00
         -1   -1    0    0    0  501 -0.00000000000E+00  0.00000000000E+00  0.26890592551E+03  0.26890592551E+03  0.00000000000E+00 0. -1.
          1   -1    0    0  501    0  0.00000000000E+00 -0.00000000000E+00 -0.14053448317E+02  0.14053448317E+02  0.00000000000E+00 0.  1.
         23    2    1    2    0    0 -0.58267194736E+01  0.94998378387E+01  0.25552968486E+03  0.27179442022E+03  0.91937965169E+02 0.  0.
         11    1    3    3    0    0  0.19362442895E+02  0.22358806751E+02  0.22780444604E+02  0.37333216986E+02  0.00000000000E+00 0.  1.
        -11    1    3    3    0    0 -0.25189162368E+02 -0.12858968912E+02  0.23274924025E+03  0.23446120323E+03  0.00000000000E+00 0. -1.
         22    1    1    2    0    0  0.58267194736E+01 -0.94998378387E+01 -0.67720766788E+00  0.11164953605E+02  0.00000000000E+00 0. -1.
<mgrwt>
<rscale>  0 0.54545745E+02</rscale>
<asrwt>0</asrwt>
<pdfrwt beam="1">  1        1 0.21620692E-02 0.92610944E+02</pdfrwt>
<pdfrwt beam="2">  1       -1 0.41370138E-01 0.92610944E+02</pdfrwt>
<totfact> 0.27698930E+04</totfact>
</mgrwt>
</event>
<event>
 6    1  0.1828142E-002  0.8969350E+02  0.7546771E-02  0.1423037E+00
         -3   -1    0    0    0  501 -0.00000000000E+00  0.00000000000E+00  0.84706432703E+02  0.84706432703E+02  0.00000000000E+00 0.  1.
          3   -1    0    0  501    0  0.00000000000E+00 -0.00000000000E+00 -0.32871274483E+02  0.32871274483E+02  0.00000000000E+00 0. -1.
         23    2    1    2    0    0  0.12117696723E+02  0.33737881483E+00  0.54785124241E+02  0.10510154199E+03  0.88870534448E+02 0.  0.
         11    1    3    3    0    0  0.11988893632E+02  0.83381329503E+01  0.78617198479E+02  0.79962003028E+02  0.00000000000E+00 0.  1.
        -11    1    3    3    0    0  0.12880309130E+00 -0.80007541355E+01 -0.23832074238E+02  0.25139538966E+02  0.00000000000E+00 0. -1.
         22    1    1    2    0    0 -0.12117696723E+02 -0.33737881483E+00 -0.29499660212E+01  0.12476165191E+02  0.00000000000E+00 0. -1.
<mgrwt>
<rscale>  0 0.54383583E+02</rscale>
<asrwt>0</asrwt>
<pdfrwt beam="1">  1        3 0.50571192E-02 0.89693502E+02</pdfrwt>
<pdfrwt beam="2">  1       -3 0.13031759E-01 0.89693502E+02</pdfrwt>
<totfact> 0.21469231E+04</totfact>
</mgrwt>
</event>
<event>
 6    1  0.1828142E-002  0.1279978E+03  0.7546771E-02  0.1248419E+00
          2   -1    0    0  501    0  0.00000000000E+00  0.00000000000E+00  0.60220657068E+02  0.60220657068E+02  0.00000000000E+00 0. -1.
         -2   -1    0    0    0  501 -0.00000000000E+00 -0.00000000000E+00 -0.24856461778E+03  0.24856461778E+03  0.00000000000E+00 0.  1.
         23    2    1    2    0    0 -0.84020036253E+02  0.28870532383E+02 -0.17814404489E+03  0.21935981753E+03  0.92144205931E+02 0.  0.
         13    1    3    3    0    0 -0.96034330928E+01  0.49621655586E+02 -0.76500872110E+02  0.91689247264E+02  0.00000000000E+00 0.  1.
        -13    1    3    3    0    0 -0.74416603161E+02 -0.20751123204E+02 -0.10164317278E+03  0.12767057027E+03  0.00000000000E+00 0. -1.
         22    1    1    2    0    0  0.84020036253E+02 -0.28870532383E+02 -0.10199915817E+02  0.89425457308E+02  0.00000000000E+00 0.  1.
<mgrwt>
<rscale>  0 0.11683049E+03</rscale>
<asrwt>0</asrwt>
<pdfrwt beam="1">  1        2 0.92647168E-02 0.12799777E+03</pdfrwt>
<pdfrwt beam="2">  1       -2 0.38240709E-01 0.12799777E+03</pdfrwt>
<totfact> 0.43488290E+03</totfact>
</mgrwt>
</event>
<event>
 6    1  0.1828142E-002  0.9398322E+02  0.7546771E-02  0.1365421E+00
         -2   -1    0    0    0  501 -0.00000000000E+00  0.00000000000E+00  0.12837786833E+03  0.12837786833E+03  0.00000000000E+00 0. -1.
          2   -1    0    0  501    0  0.00000000000E+00 -0.00000000000E+00 -0.32084184373E+02  0.32084184373E+02  0.00000000000E+00 0.  1.
         23    2    1    2    0    0 -0.18862962450E+02  0.18549333273E+02  0.95508156503E+02  0.13399497560E+03  0.90182905307E+02 0.  0.
         13    1    3    3    0    0 -0.16813928189E+02 -0.16150696842E+02  0.96443940063E+02  0.99221906676E+02  0.00000000000E+00 0. -1.
        -13    1    3    3    0    0 -0.20490342617E+01  0.34700030115E+02 -0.93578355965E+00  0.34773068922E+02  0.00000000000E+00 0.  1.
         22    1    1    2    0    0  0.18862962450E+02 -0.18549333273E+02  0.78552745835E+00  0.26467077108E+02  0.00000000000E+00 0.  1.
<mgrwt>
<rscale>  0 0.68456768E+02</rscale>
<asrwt>0</asrwt>
<pdfrwt beam="1">  1        2 0.49360284E-02 0.93983219E+02</pdfrwt>
<pdfrwt beam="2">  1       -2 0.19750441E-01 0.93983219E+02</pdfrwt>
<totfact> 0.30082822E+04</totfact>
</mgrwt>
</event>
<event>
 6    1  0.1828142E-002  0.9139366E+02  0.7546771E-02  0.1401348E+00
          2   -1    0    0  501    0  0.00000000000E+00  0.00000000000E+00  0.12144726125E+03  0.12144726125E+03  0.00000000000E+00 0. -1.
         -2   -1    0    0    0  501 -0.00000000000E+00 -0.00000000000E+00 -0.26048740108E+02  0.26048740108E+02  0.00000000000E+00 0.  1.
         23    2    1    2    0    0  0.81433065582E+01  0.13838727199E+02  0.62002902637E+02  0.11044075682E+03  0.89972090230E+02 0.  0.
         11    1    3    3    0    0  0.24419276458E+02 -0.21259886095E+02 -0.53020237743E+01  0.32808463475E+02  0.00000000000E+00 0.  1.
        -11    1    3    3    0    0 -0.16275969900E+02  0.35098613294E+02  0.67304926411E+02  0.77632293349E+02  0.00000000000E+00 0. -1.
         22    1    1    2    0    0 -0.81433065582E+01 -0.13838727199E+02  0.33395618510E+02  0.37055244539E+02  0.00000000000E+00 0. -1.
<mgrwt>
<rscale>  0 0.59170117E+02</rscale>
<asrwt>0</asrwt>
<pdfrwt beam="1">  1        2 0.18684194E-01 0.91393659E+02</pdfrwt>
<pdfrwt beam="2">  1       -2 0.40074986E-02 0.91393659E+02</pdfrwt>
<totfact> 0.70658728E+04</totfact>
</mgrwt>
</event>
<event>
 6    1  0.1828142E-002  0.9302710E+02  0.7546771E-02  0.1398720E+00
         -4   -1    0    0    0  501 -0.00000000000E+00  0.00000000000E+00  0.48525613299E+02  0.48525613299E+02  0.00000000000E+00 0.  1.
          4   -1    0    0  501    0  0.00000000000E+00 -0.00000000000E+00 -0.64805896934E+02  0.64805896934E+02  0.00000000000E+00 0. -1.
         23    2    1    2    0    0 -0.10299046302E+02 -0.12077716383E+02 -0.37390380291E+01  0.93102213926E+02  0.91662970958E+02 0.  0.
         11    1    3    3    0    0  0.33247287327E+02  0.14361883156E+02  0.14471408534E+02  0.39000864956E+02  0.00000000000E+00 0. -1.
        -11    1    3    3    0    0 -0.43546333629E+02 -0.26439599539E+02 -0.18210446563E+02  0.54101348969E+02  0.00000000000E+00 0.  1.
         22    1    1    2    0    0  0.10299046302E+02  0.12077716383E+02 -0.12541245606E+02  0.20229296308E+02  0.00000000000E+00 0. -1.
<mgrwt>
<rscale>  0 0.59788768E+02</rscale>
<asrwt>0</asrwt>
<pdfrwt beam="1">  1        4 0.99701380E-02 0.93027103E+02</pdfrwt>
<pdfrwt beam="2">  1       -4 0.74654790E-02 0.93027103E+02</pdfrwt>
<totfact> 0.13750050E+04</totfact>
</mgrwt>
</event>
<event>
 6    1  0.1828142E-002  0.9350762E+02  0.7546771E-02  0.1396541E+00
          2   -1    0    0  501    0  0.00000000000E+00  0.00000000000E+00  0.17621949030E+03  0.17621949030E+03  0.00000000000E+00 0. -1.
         -2   -1    0    0    0  501 -0.00000000000E+00 -0.00000000000E+00 -0.18813297606E+02  0.18813297606E+02  0.00000000000E+00 0.  1.
         23    2    1    2    0    0 -0.12257549202E+02 -0.10561581089E+02  0.10703782024E+03  0.14212940946E+03  0.92097120278E+02 0.  0.
         13    1    3    3    0    0  0.76373833382E+01  0.37836320782E+02  0.29477748683E+02  0.48568039512E+02  0.00000000000E+00 0. -1.
        -13    1    3    3    0    0 -0.19894932540E+02 -0.48397901871E+02  0.77560071556E+02  0.93561369945E+02  0.00000000000E+00 0.  1.
         22    1    1    2    0    0  0.12257549202E+02  0.10561581089E+02  0.50368372456E+02  0.52903378450E+02  0.00000000000E+00 0. -1.
<mgrwt>
<rscale>  0 0.60308746E+02</rscale>
<asrwt>0</asrwt>
<pdfrwt beam="1">  1        2 0.27110690E-01 0.93507615E+02</pdfrwt>
<pdfrwt beam="2">  1       -2 0.28943536E-02 0.93507615E+02</pdfrwt>
<totfact> 0.75660080E+04</totfact>
</mgrwt>
</event>
<event>
 6    1  0.1828142E-002  0.6857798E+02  0.7546771E-02  0.1441629E+00
          4   -1    0    0  501    0  0.00000000000E+00  0.00000000000E+00  0.16049117140E+02  0.16049117140E+02  0.00000000000E+00 0. -1.
         -4   -1    0    0    0  501 -0.00000000000E+00 -0.00000000000E+00 -0.12854853626E+03  0.12854853626E+03  0.00000000000E+00 0.  1.
         23    2    1    2    0    0 -0.13741548151E+02  0.15183675565E+02 -0.73345610584E+02  0.10041174080E+03  0.65448949189E+02 0.  0.
         11    1    3    3    0    0 -0.14952107843E+02 -0.18283996245E+00  0.84505575897E+01  0.17175880850E+02  0.00000000000E+00 0. -1.
        -11    1    3    3    0    0  0.12105596922E+01  0.15366515527E+02 -0.81796168173E+02  0.83235859953E+02  0.00000000000E+00 0.  1.
         22    1    1    2    0    0  0.13741548151E+02 -0.15183675565E+02 -0.39153808541E+02  0.44185912602E+02  0.00000000000E+00 0.  1.
<mgrwt>
<rscale>  0 0.50694835E+02</rscale>
<asrwt>0</asrwt>
<pdfrwt beam="1">  1        4 0.24690950E-02 0.68577978E+02</pdfrwt>
<pdfrwt beam="2">  1       -4 0.19776698E-01 0.68577978E+02</pdfrwt>
<totfact> 0.21993804E+04</totfact>
</mgrwt>
</event>
<event>
 6    1  0.1828142E-002  0.9374848E+02  0.7546771E-02  0.1393627E+00
          2   -1    0    0  501    0  0.00000000000E+00  0.00000000000E+00  0.11094953603E+03  0.11094953603E+03  0.00000000000E+00 0. -1.
         -2   -1    0    0    0  501 -0.00000000000E+00 -0.00000000000E+00 -0.37496195426E+02  0.37496195426E+02  0.00000000000E+00 0.  1.
         23    2    1    2    0    0  0.92962902345E+00  0.16793624583E+02  0.24808804991E+02  0.96975537344E+02  0.92227371216E+02 0.  0.
         11    1    3    3    0    0  0.42319311411E+02  0.11240744429E+02  0.32477604774E+02  0.54516724640E+02  0.00000000000E+00 0. -1.
        -11    1    3    3    0    0 -0.41389682388E+02  0.55528801544E+01 -0.76687997832E+01  0.42458812704E+02  0.00000000000E+00 0.  1.
         22    1    1    2    0    0 -0.92962902345E+00 -0.16793624583E+02  0.48644535611E+02  0.51470194108E+02  0.00000000000E+00 0. -1.
<mgrwt>
<rscale>  0 0.61013423E+02</rscale>
<asrwt>0</asrwt>
<pdfrwt beam="1">  1        2 0.17069159E-01 0.93748483E+02</pdfrwt>
<pdfrwt beam="2">  1       -2 0.57686455E-02 0.93748483E+02</pdfrwt>
<totfact> 0.45754863E+04</totfact>
</mgrwt>
</event>
<event>
 6    1  0.1828142E-002  0.9478385E+02  0.7546771E-02  0.1349207E+00
          2   -1    0    0  501    0  0.00000000000E+00  0.00000000000E+00  0.39188401698E+03  0.39188401698E+03  0.00000000000E+00 0.  1.
         -2   -1    0    0    0  501 -0.00000000000E+00 -0.00000000000E+00 -0.10616475489E+02  0.10616475489E+02  0.00000000000E+00 0. -1.
         23    2    1    2    0    0 -0.13471702840E+02 -0.31115877142E+02  0.26804631272E+03  0.28431110534E+03  0.88511548761E+02 0.  0.
         11    1    3    3    0    0  0.26394110774E+02 -0.89262639347E+01  0.26359892234E+02  0.38355849488E+02  0.00000000000E+00 0. -1.
        -11    1    3    3    0    0 -0.39865813614E+02 -0.22189613207E+02  0.24168642049E+03  0.24595525585E+03  0.00000000000E+00 0.  1.
         22    1    1    2    0    0  0.13471702840E+02  0.31115877142E+02  0.11322122877E+03  0.11818938714E+03  0.00000000000E+00 0.  1.
<mgrwt>
<rscale>  0 0.73303230E+02</rscale>
<asrwt>0</asrwt>
<pdfrwt beam="1">  1        2 0.60289838E-01 0.94783853E+02</pdfrwt>
<pdfrwt beam="2">  1       -2 0.16333042E-02 0.94783853E+02</pdfrwt>
<totfact> 0.74378274E+04</totfact>
</mgrwt>
</event>
<event>
 6    1  0.1828142E-002  0.9138988E+02  0.7546771E-02  0.1392403E+00
          3   -1    0    0  501    0  0.00000000000E+00  0.00000000000E+00  0.68030550721E+02  0.68030550721E+02  0.00000000000E+00 0. -1.
         -3   -1    0    0    0  501 -0.00000000000E+00 -0.00000000000E+00 -0.45445381772E+02  0.45445381772E+02  0.00000000000E+00 0.  1.
         23    2    1    2    0    0 -0.15988032859E+02 -0.93367088650E+01  0.12069466417E+02  0.92183414396E+02  0.89494796179E+02 0.  0.
         11    1    3    3    0    0 -0.43171202366E+02 -0.33672272088E+02  0.98672602106E+01  0.55632161969E+02  0.00000000000E+00 0.  1.
        -11    1    3    3    0    0  0.27183169508E+02  0.24335563223E+02  0.22022062060E+01  0.36551252427E+02  0.00000000000E+00 0. -1.
         22    1    1    2    0    0  0.15988032859E+02  0.93367088650E+01  0.10515702533E+02  0.21292518096E+02  0.00000000000E+00 0. -1.
<mgrwt>
<rscale>  0 0.61312963E+02</rscale>
<asrwt>0</asrwt>
<pdfrwt beam="1">  1        3 0.10466239E-01 0.91389878E+02</pdfrwt>
<pdfrwt beam="2">  1       -3 0.69915972E-02 0.91389878E+02</pdfrwt>
<totfact> 0.18584417E+04</totfact>
</mgrwt>
</event>
<event>
 6    1  0.1828142E-002  0.1043939E+03  0.7546771E-02  0.1307497E+00
          2   -1    0    0  501    0  0.00000000000E+00  0.00000000000E+00  0.34988277240E+03  0.34988277240E+03  0.00000000000E+00 0. -1.
         -2   -1    0    0    0  501 -0.00000000000E+00 -0.00000000000E+00 -0.38366780041E+02  0.38366780041E+02  0.00000000000E+00 0.  1.
         23    2    1    2    0    0 -0.22574451846E+02  0.47922116475E+02  0.40290067906E+02  0.11189898302E+03  0.89955309491E+02 0.  0.
         11    1    3    3    0    0 -0.39419507019E+01  0.54124074709E+02 -0.12401991356E+02  0.55666541369E+02  0.00000000000E+00 0.  1.
        -11    1    3    3    0    0 -0.18632501144E+02 -0.62019582338E+01  0.52692059262E+02  0.56232441652E+02  0.00000000000E+00 0. -1.
         22    1    1    2    0    0  0.22574451846E+02 -0.47922116475E+02  0.27122592445E+03  0.27635056942E+03  0.00000000000E+00 0. -1.
<mgrwt>
<rscale>  0 0.88108947E+02</rscale>
<asrwt>0</asrwt>
<pdfrwt beam="1">  1        2 0.53828117E-01 0.10439393E+03</pdfrwt>
<pdfrwt beam="2">  1       -2 0.59025818E-02 0.10439393E+03</pdfrwt>
<totfact> 0.12945698E+04</totfact>
</mgrwt>
</event>
<event>
 6    1  0.1828142E-002  0.9362834E+02  0.7546771E-02  0.1388269E+00
          2   -1    0    0  501    0  0.00000000000E+00  0.00000000000E+00  0.63008409870E+03  0.63008409870E+03  0.00000000000E+00 0. -1.
         -2   -1    0    0    0  501 -0.00000000000E+00 -0.00000000000E+00 -0.51649453876E+01  0.51649453876E+01  0.00000000000E+00 0.  1.
         23    2    1    2    0    0 -0.35667680742E+01  0.18051175361E+02  0.55998253167E+03  0.56775584742E+03  0.91802503968E+02 0.  0.
         13    1    3    3    0    0  0.43983531751E+02  0.12681834083E+02  0.27282348764E+03  0.27663701016E+03  0.00000000000E+00 0. -1.
        -13    1    3    3    0    0 -0.47550299825E+02  0.53693412787E+01  0.28715904403E+03  0.29111883726E+03  0.00000000000E+00 0.  1.
         22    1    1    2    0    0  0.35667680742E+01 -0.18051175361E+02  0.64936621643E+02  0.67493196670E+02  0.00000000000E+00 0.  1.
<mgrwt>
<rscale>  0 0.62339174E+02</rscale>
<asrwt>0</asrwt>
<pdfrwt beam="1">  1        2 0.96935955E-01 0.93628342E+02</pdfrwt>
<pdfrwt beam="2">  1       -2 0.79460748E-03 0.93628342E+02</pdfrwt>
<totfact> 0.12341911E+05</totfact>
</mgrwt>
</event>
<event>
 6    1  0.1828142E-002  0.9091425E+02  0.7546771E-02  0.1412936E+00
          2   -1    0    0  501    0  0.00000000000E+00  0.00000000000E+00  0.17887342586E+02  0.17887342586E+02  0.00000000000E+00 0. -1.
         -2   -1    0    0    0  501 -0.00000000000E+00 -0.00000000000E+00 -0.15311769448E+03  0.15311769448E+03  0.00000000000E+00 0.  1.
         23    2    1    2    0    0  0.10485400042E+02  0.86664186167E+01 -0.12057878035E+03  0.15101206394E+03  0.89890771269E+02 0.  0.
         13    1    3    3    0    0 -0.37950800246E+02  0.27209793159E+01 -0.75650771740E+02  0.84680022630E+02  0.00000000000E+00 0.  1.
        -13    1    3    3    0    0  0.48436200288E+02  0.59454393008E+01 -0.44928008611E+02  0.66332041312E+02  0.00000000000E+00 0. -1.
         22    1    1    2    0    0 -0.10485400042E+02 -0.86664186167E+01 -0.14651571546E+02  0.19992973127E+02  0.00000000000E+00 0.  1.
<mgrwt>
<rscale>  0 0.56543832E+02</rscale>
<asrwt>0</asrwt>
<pdfrwt beam="1">  1        2 0.27518988E-02 0.90914252E+02</pdfrwt>
<pdfrwt beam="2">  1       -2 0.23556569E-01 0.90914252E+02</pdfrwt>
<totfact> 0.47875839E+04</totfact>
</mgrwt>
</event>
<event>
 6    1  0.1828142E-002  0.1043120E+03  0.7546771E-02  0.1390896E+00
          2   -1    0    0  501    0  0.00000000000E+00  0.00000000000E+00  0.97146042051E+02  0.97146042051E+02  0.00000000000E+00 0. -1.
         -2   -1    0    0    0  501 -0.00000000000E+00 -0.00000000000E+00 -0.53817627452E+02  0.53817627452E+02  0.00000000000E+00 0.  1.
         23    2    1    2    0    0 -0.12657012849E+02 -0.15823732322E+01 -0.15338327008E+01  0.10432328880E+03  0.10352918460E+03 0.  0.
         13    1    3    3    0    0  0.38998546232E+02 -0.23440798387E+02 -0.12465810616E+02  0.47177898126E+02  0.00000000000E+00 0. -1.
        -13    1    3    3    0    0 -0.51655559081E+02  0.21858425155E+02  0.10931977915E+02  0.57145390675E+02  0.00000000000E+00 0.  1.
         22    1    1    2    0    0  0.12657012849E+02  0.15823732322E+01  0.44862247300E+02  0.46640380702E+02  0.00000000000E+00 0. -1.
<mgrwt>
<rscale>  0 0.61684419E+02</rscale>
<asrwt>0</asrwt>
<pdfrwt beam="1">  1        2 0.14945545E-01 0.10431201E+03</pdfrwt>
<pdfrwt beam="2">  1       -2 0.82796350E-02 0.10431201E+03</pdfrwt>
<totfact> 0.31229971E+04</totfact>
</mgrwt>
</event>
<event>
 6    1  0.1828142E-002  0.9331201E+02  0.7546771E-02  0.1406407E+00
         -2   -1    0    0    0  501 -0.00000000000E+00  0.00000000000E+00  0.36986881291E+02  0.36986881291E+02  0.00000000000E+00 0.  1.
          2   -1    0    0  501    0  0.00000000000E+00 -0.00000000000E+00 -0.78279944664E+02  0.78279944664E+02  0.00000000000E+00 0. -1.
         23    2    1    2    0    0  0.10928237604E+02  0.86407695793E+01 -0.32586115251E+02  0.98838185669E+02  0.92266151774E+02 0.  0.
         11    1    3    3    0    0  0.11708199646E+02 -0.46920341367E+01 -0.63722204250E+02  0.64958574782E+02  0.00000000000E+00 0. -1.
        -11    1    3    3    0    0 -0.77996204197E+00  0.13332803716E+02  0.31136088999E+02  0.33879610887E+02  0.00000000000E+00 0.  1.
         22    1    1    2    0    0 -0.10928237604E+02 -0.86407695793E+01 -0.87069481219E+01  0.16428640286E+02  0.00000000000E+00 0.  1.
<mgrwt>
<rscale>  0 0.58003389E+02</rscale>
<asrwt>0</asrwt>
<pdfrwt beam="1">  1        2 0.12043068E-01 0.93312014E+02</pdfrwt>
<pdfrwt beam="2">  1       -2 0.56902896E-02 0.93312014E+02</pdfrwt>
<totfact> 0.70038047E+04</totfact>
</mgrwt>
</event>
<event>
 6    1  0.1828142E-002  0.9084725E+02  0.7546771E-02  0.1409677E+00
         -1   -1    0    0    0  501 -0.00000000000E+00  0.00000000000E+00  0.25185461063E+03  0.25185461063E+03  0.00000000000E+00 0.  1.
          1   -1    0    0  501    0  0.00000000000E+00 -0.00000000000E+00 -0.13859624485E+02  0.13859624485E+02  0.00000000000E+00 0. -1.
         23    2    1    2    0    0  0.17475069259E+01 -0.14236515493E+02  0.23370757049E+03  0.25074379468E+03  0.89707802955E+02 0.  0.
         11    1    3    3    0    0  0.29611147659E+02 -0.86860546266E+01  0.21388818083E+03  0.21610280311E+03  0.00000000000E+00 0.  1.
        -11    1    3    3    0    0 -0.27863640733E+02 -0.55504608665E+01  0.19819389661E+02  0.34640991574E+02  0.00000000000E+00 0. -1.
         22    1    1    2    0    0 -0.17475069259E+01  0.14236515493E+02  0.42874156524E+01  0.14970440435E+02  0.00000000000E+00 0.  1.
<mgrwt>
<rscale>  0 0.57265967E+02</rscale>
<asrwt>0</asrwt>
<pdfrwt beam="1">  1        1 0.21322501E-02 0.90847246E+02</pdfrwt>
<pdfrwt beam="2">  1       -1 0.38746860E-01 0.90847246E+02</pdfrwt>
<totfact> 0.31552906E+04</totfact>
</mgrwt>
</event>
<event>
 6    1  0.1828142E-002  0.9389852E+02  0.7546771E-02  0.1389773E+00
          1   -1    0    0  501    0  0.00000000000E+00  0.00000000000E+00  0.62698571548E+02  0.62698571548E+02  0.00000000000E+00 0. -1.
         -1   -1    0    0    0  501 -0.00000000000E+00 -0.00000000000E+00 -0.59703900898E+02  0.59703900898E+02  0.00000000000E+00 0.  1.
         23    2    1    2    0    0 -0.65347028974E+00  0.17793750874E+02 -0.17219597735E+02  0.95464372292E+02  0.92194833030E+02 0.  0.
         11    1    3    3    0    0  0.28658743551E+02  0.26325024418E+02 -0.41178555582E+02  0.56656896600E+02  0.00000000000E+00 0.  1.
        -11    1    3    3    0    0 -0.29312213841E+02 -0.85312735440E+01  0.23958957847E+02  0.38807475693E+02  0.00000000000E+00 0. -1.
         22    1    1    2    0    0  0.65347028974E+00 -0.17793750874E+02  0.20214268385E+02  0.26938100154E+02  0.00000000000E+00 0.  1.
<mgrwt>
<rscale>  0 0.61963237E+02</rscale>
<asrwt>0</asrwt>
<pdfrwt beam="1">  1        1 0.96459341E-02 0.93898519E+02</pdfrwt>
<pdfrwt beam="2">  1       -1 0.91852155E-02 0.93898519E+02</pdfrwt>
<totfact> 0.40710332E+04</totfact>
</mgrwt>
</event>
<event>
 6    1  0.1828142E-002  0.9137377E+02  0.7546771E-02  0.1396408E+00
         -2   -1    0    0    0  501 -0.00000000000E+00  0.00000000000E+00  0.76953316838E+01  0.76953316838E+01  0.00000000000E+00 0.  1.
          2   -1    0    0  501    0  0.00000000000E+00 -0.00000000000E+00 -0.39391718832E+03  0.39391718832E+03  0.00000000000E+00 0. -1.
         23    2    1    2    0    0 -0.21974407235E+01  0.17237447193E+02 -0.34460842633E+03  0.35651666749E+03  0.89706233754E+02 0.  0.
         11    1    3    3    0    0  0.84620665602E+01 -0.90617077253E+01 -0.31592455915E+03  0.31616775324E+03  0.00000000000E+00 0. -1.
        -11    1    3    3    0    0 -0.10659507284E+02  0.26299154918E+02 -0.28683867176E+02  0.40348914250E+02  0.00000000000E+00 0.  1.
         22    1    1    2    0    0  0.21974407235E+01 -0.17237447193E+02 -0.41613430313E+02  0.45095852513E+02  0.00000000000E+00 0. -1.
<mgrwt>
<rscale>  0 0.60340590E+02</rscale>
<asrwt>0</asrwt>
<pdfrwt beam="1">  1        2 0.60602662E-01 0.91373775E+02</pdfrwt>
<pdfrwt beam="2">  1       -2 0.11838968E-02 0.91373775E+02</pdfrwt>
<totfact> 0.11640994E+05</totfact>
</mgrwt>
</event>
<event>
 6    1  0.1828142E-002  0.9256720E+02  0.7546771E-02  0.1411963E+00
         -2   -1    0    0    0  501 -0.00000000000E+00  0.00000000000E+00  0.24350101711E+02  0.24350101711E+02  0.00000000000E+00 0.  1.
          2   -1    0    0  501    0  0.00000000000E+00 -0.00000000000E+00 -0.13890114598E+03  0.13890114598E+03  0.00000000000E+00 0. -1.
         23    2    1    2    0    0  0.11308707161E+02 -0.65804290306E+01 -0.67900268564E+02  0.11480040892E+03  0.91637866151E+02 0.  0.
         13    1    3    3    0    0  0.38639236597E+02  0.26723227185E+00 -0.76192297206E+02  0.85430253256E+02  0.00000000000E+00 0. -1.
        -13    1    3    3    0    0 -0.27330529436E+02 -0.68476613025E+01  0.82920286423E+01  0.29370155661E+02  0.00000000000E+00 0.  1.
         22    1    1    2    0    0 -0.11308707161E+02  0.65804290306E+01 -0.46650775705E+02  0.48450838772E+02  0.00000000000E+00 0. -1.
<mgrwt>
<rscale>  0 0.56758030E+02</rscale>
<asrwt>0</asrwt>
<pdfrwt beam="1">  1        2 0.21369407E-01 0.92567205E+02</pdfrwt>
<pdfrwt beam="2">  1       -2 0.37461695E-02 0.92567205E+02</pdfrwt>
<totfact> 0.67268528E+04</totfact>
</mgrwt>
</event>
<event>
 6    1  0.1828142E-002  0.9397870E+02  0.7546771E-02  0.1392838E+00
         -2   -1    0    0    0  501 -0.00000000000E+00  0.00000000000E+00  0.19186845094E+02  0.19186845094E+02  0.00000000000E+00 0.  1.
          2   -1    0    0  501    0  0.00000000000E+00 -0.00000000000E+00 -0.19944768034E+03  0.19944768034E+03  0.00000000000E+00 0. -1.
         23    2    1    2    0    0  0.51196172861E-01 -0.16908139375E+02 -0.10252228932E+03  0.13907844885E+03  0.92445158497E+02 0.  0.
         11    1    3    3    0    0 -0.32892471250E+02  0.19736582677E+02 -0.20763659186E+02  0.43618538530E+02  0.00000000000E+00 0.  1.
        -11    1    3    3    0    0  0.32943667423E+02 -0.36644722052E+02 -0.81758630132E+02  0.95459910321E+02  0.00000000000E+00 0. -1.
         22    1    1    2    0    0 -0.51196172861E-01  0.16908139375E+02 -0.77738545927E+02  0.79556076581E+02  0.00000000000E+00 0. -1.
<mgrwt>
<rscale>  0 0.61206354E+02</rscale>
<asrwt>0</asrwt>
<pdfrwt beam="1">  1        2 0.30684259E-01 0.93978695E+02</pdfrwt>
<pdfrwt beam="2">  1       -2 0.29518223E-02 0.93978695E+02</pdfrwt>
<totfact> 0.64416649E+04</totfact>
</mgrwt>
</event>
<event>
 6    1  0.1828142E-002  0.9167175E+02  0.7546771E-02  0.1429725E+00
          2   -1    0    0  501    0  0.00000000000E+00  0.00000000000E+00  0.16514395928E+03  0.16514395928E+03  0.00000000000E+00 0.  1.
         -2   -1    0    0    0  501 -0.00000000000E+00 -0.00000000000E+00 -0.18136181978E+02  0.18136181978E+02  0.00000000000E+00 0. -1.
         23    2    1    2    0    0 -0.77057693625E+01 -0.67650334949E+01  0.10209580828E+03  0.13721247883E+03  0.91096463816E+02 0.  0.
         13    1    3    3    0    0  0.50739514899E+00 -0.30523275102E+02  0.10728580198E+03  0.11154448027E+03  0.00000000000E+00 0.  1.
        -13    1    3    3    0    0 -0.82131645115E+01  0.23758241607E+02 -0.51899937005E+01  0.25667998562E+02  0.00000000000E+00 0. -1.
         22    1    1    2    0    0  0.77057693625E+01  0.67650334949E+01  0.44911969026E+02  0.46067662426E+02  0.00000000000E+00 0. -1.
<mgrwt>
<rscale>  0 0.53015151E+02</rscale>
<asrwt>0</asrwt>
<pdfrwt beam="1">  1        2 0.25406762E-01 0.91671753E+02</pdfrwt>
<pdfrwt beam="2">  1       -2 0.27901819E-02 0.91671753E+02</pdfrwt>
<totfact> 0.85371123E+04</totfact>
</mgrwt>
</event>
<event>
 6    1  0.1828142E-002  0.9770584E+02  0.7546771E-02  0.1338674E+00
         -2   -1    0    0    0  501 -0.00000000000E+00  0.00000000000E+00  0.13196291302E+03  0.13196291302E+03  0.00000000000E+00 0.  1.
          2   -1    0    0  501    0  0.00000000000E+00 -0.00000000000E+00 -0.34504670972E+02  0.34504670972E+02  0.00000000000E+00 0. -1.
         23    2    1    2    0    0  0.10426558426E+02  0.35617228994E+02  0.73959958014E+02  0.12254185720E+03  0.90383246535E+02 0.  0.
         13    1    3    3    0    0 -0.40025697500E+02  0.19648762461E+02  0.29945244994E+02  0.53710781268E+02  0.00000000000E+00 0.  1.
        -13    1    3    3    0    0  0.50452255926E+02  0.15968466533E+02  0.44014713019E+02  0.68831075930E+02  0.00000000000E+00 0. -1.
         22    1    1    2    0    0 -0.10426558426E+02 -0.35617228994E+02  0.23498284033E+02  0.43925726794E+02  0.00000000000E+00 0.  1.
<mgrwt>
<rscale>  0 0.76704169E+02</rscale>
<asrwt>0</asrwt>
<pdfrwt beam="1">  1        2 0.53084110E-02 0.97705841E+02</pdfrwt>
<pdfrwt beam="2">  1       -2 0.20301986E-01 0.97705841E+02</pdfrwt>
<totfact> 0.26280610E+04</totfact>
</mgrwt>
</event>
<event>
 6    1  0.1828142E-002  0.9864905E+02  0.7546771E-02  0.1336155E+00
          2   -1    0    0  501    0  0.00000000000E+00  0.00000000000E+00  0.46152413465E+03  0.46152413465E+03  0.00000000000E+00 0.  1.
         -2   -1    0    0    0  501 -0.00000000000E+00 -0.00000000000E+00 -0.11487793518E+02  0.11487793518E+02  0.00000000000E+00 0. -1.
         23    2    1    2    0    0  0.34168033732E+02 -0.15866706875E+02  0.23766698006E+03  0.25732708299E+03  0.91172514029E+02 0.  0.
         11    1    3    3    0    0  0.99685858245E-01  0.18658455381E+02  0.45337870065E+01  0.19201643656E+02  0.00000000000E+00 0. -1.
        -11    1    3    3    0    0  0.34068347873E+02 -0.34525162256E+02  0.23313319305E+03  0.23812543934E+03  0.00000000000E+00 0.  1.
         22    1    1    2    0    0 -0.34168033732E+02  0.15866706875E+02  0.21236936107E+03  0.21568484517E+03  0.00000000000E+00 0.  1.
<mgrwt>
<rscale>  0 0.77548853E+02</rscale>
<asrwt>0</asrwt>
<pdfrwt beam="1">  1        2 0.71003699E-01 0.98649046E+02</pdfrwt>
<pdfrwt beam="2">  1       -2 0.17673532E-02 0.98649046E+02</pdfrwt>
<totfact> 0.56133006E+04</totfact>
</mgrwt>
</event>
<event>
 6    1  0.1828142E-002  0.1034644E+03  0.7546771E-02  0.1308904E+00
          2   -1    0    0  501    0  0.00000000000E+00  0.00000000000E+00  0.12456711117E+02  0.12456711117E+02  0.00000000000E+00 0. -1.
         -2   -1    0    0    0  501 -0.00000000000E+00 -0.00000000000E+00 -0.49911639212E+03  0.49911639212E+03  0.00000000000E+00 0.  1.
         23    2    1    2    0    0 -0.99706039596E+01 -0.52092014629E+02 -0.29072668561E+03  0.30858854812E+03  0.88836340398E+02 0.  0.
         11    1    3    3    0    0  0.32854980272E+02 -0.13738479862E+02 -0.51919489868E+02  0.62958946828E+02  0.00000000000E+00 0. -1.
        -11    1    3    3    0    0 -0.42825584232E+02 -0.38353534768E+02 -0.23880719574E+03  0.24562960129E+03  0.00000000000E+00 0.  1.
         22    1    1    2    0    0  0.99706039596E+01  0.52092014629E+02 -0.19593299540E+03  0.20298455512E+03  0.00000000000E+00 0.  1.
<mgrwt>
<rscale>  0 0.87546606E+02</rscale>
<asrwt>0</asrwt>
<pdfrwt beam="1">  1        2 0.19164173E-02 0.10346442E+03</pdfrwt>
<pdfrwt beam="2">  1       -2 0.76787130E-01 0.10346442E+03</pdfrwt>
<totfact> 0.82574122E+03</totfact>
</mgrwt>
</event>
<event>
 6    1  0.1828142E-002  0.9958739E+02  0.7546771E-02  0.1331113E+00
         -1   -1    0    0    0  501 -0.00000000000E+00  0.00000000000E+00  0.14021600091E+03  0.14021600091E+03  0.00000000000E+00 0.  1.
          1   -1    0    0  501    0  0.00000000000E+00 -0.00000000000E+00 -0.51202597152E+02  0.51202597152E+02  0.00000000000E+00 0. -1.
         23    2    1    2    0    0 -0.38840418298E+02 -0.95377306319E+01  0.10820523591E+03  0.14705788548E+03  0.91203630439E+02 0.  0.
         11    1    3    3    0    0 -0.30071583268E+02  0.92826694917E+01 -0.50857621974E+01  0.31879978831E+02  0.00000000000E+00 0. -1.
        -11    1    3    3    0    0 -0.87688350299E+01 -0.18820400124E+02  0.11329099811E+03  0.11517790665E+03  0.00000000000E+00 0.  1.
         22    1    1    2    0    0  0.38840418298E+02  0.95377306319E+01 -0.19191832152E+02  0.44360712579E+02  0.00000000000E+00 0. -1.
<mgrwt>
<rscale>  0 0.79278034E+02</rscale>
<asrwt>0</asrwt>
<pdfrwt beam="1">  1        1 0.78773227E-02 0.99587392E+02</pdfrwt>
<pdfrwt beam="2">  1       -1 0.21571692E-01 0.99587392E+02</pdfrwt>
<totfact> 0.14283087E+04</totfact>
</mgrwt>
</event>
<event>
 6    1  0.1828142E-002  0.9345540E+02  0.7546771E-02  0.1399826E+00
          2   -1    0    0  501    0  0.00000000000E+00  0.00000000000E+00  0.16578076431E+03  0.16578076431E+03  0.00000000000E+00 0. -1.
         -2   -1    0    0    0  501 -0.00000000000E+00 -0.00000000000E+00 -0.22030758947E+02  0.22030758947E+02  0.00000000000E+00 0.  1.
         23    2    1    2    0    0  0.15354791458E+02 -0.93720951613E+00  0.82503071650E+02  0.12466221707E+03  0.92180602902E+02 0.  0.
         11    1    3    3    0    0  0.27937763018E+02  0.21258970719E+02 -0.31902536336E+01  0.35251101497E+02  0.00000000000E+00 0.  1.
        -11    1    3    3    0    0 -0.12582971560E+02 -0.22196180235E+02  0.85693325284E+02  0.89411115576E+02  0.00000000000E+00 0. -1.
         22    1    1    2    0    0 -0.15354791458E+02  0.93720951613E+00  0.61246933714E+02  0.63149306186E+02  0.00000000000E+00 0. -1.
<mgrwt>
<rscale>  0 0.59527295E+02</rscale>
<asrwt>0</asrwt>
<pdfrwt beam="1">  1        2 0.25504732E-01 0.93455399E+02</pdfrwt>
<pdfrwt beam="2">  1       -2 0.33893476E-02 0.93455399E+02</pdfrwt>
<totfact> 0.64219845E+04</totfact>
</mgrwt>
</event>
<event>
 6    1  0.1828142E-002  0.1085188E+03  0.7546771E-02  0.1297248E+00
         -1   -1    0    0    0  501 -0.00000000000E+00  0.00000000000E+00  0.27381429205E+02  0.27381429205E+02  0.00000000000E+00 0.  1.
          1   -1    0    0  501    0  0.00000000000E+00 -0.00000000000E+00 -0.25096638550E+03  0.25096638550E+03  0.00000000000E+00 0. -1.
         23    2    1    2    0    0 -0.51743561123E+02  0.23733683459E+02 -0.15506063615E+03  0.18926209026E+03  0.92388603618E+02 0.  0.
         11    1    3    3    0    0 -0.28925175419E+02  0.19539170533E+00 -0.15375583331E+03  0.15645306079E+03  0.00000000000E+00 0. -1.
        -11    1    3    3    0    0 -0.22818385704E+02  0.23538291754E+02 -0.13048028380E+01  0.32809029478E+02  0.00000000000E+00 0.  1.
         22    1    1    2    0    0  0.51743561123E+02 -0.23733683459E+02 -0.68524320141E+02  0.89085724440E+02  0.00000000000E+00 0.  1.
<mgrwt>
<rscale>  0 0.92354578E+02</rscale>
<asrwt>0</asrwt>
<pdfrwt beam="1">  1        1 0.38610214E-01 0.10851884E+03</pdfrwt>
<pdfrwt beam="2">  1       -1 0.42125275E-02 0.10851884E+03</pdfrwt>
<totfact> 0.22733906E+04</totfact>
</mgrwt>
</event>
<event>
 6    1  0.1828142E-002  0.9132834E+02  0.7546771E-02  0.1405415E+00
          2   -1    0    0  501    0  0.00000000000E+00  0.00000000000E+00  0.39948749668E+02  0.39948749668E+02  0.00000000000E+00 0.  1.
         -2   -1    0    0    0  501 -0.00000000000E+00 -0.00000000000E+00 -0.76766680940E+02  0.76766680940E+02  0.00000000000E+00 0. -1.
         23    2    1    2    0    0  0.13960194170E+02 -0.57351712880E+01 -0.42312592683E+02  0.10065397006E+03  0.90072676090E+02 0.  0.
         13    1    3    3    0    0 -0.22869645455E+02 -0.36678008391E+02 -0.19731743216E+02  0.47514615363E+02  0.00000000000E+00 0.  1.
        -13    1    3    3    0    0  0.36829839626E+02  0.30942837103E+02 -0.22580849467E+02  0.53139354695E+02  0.00000000000E+00 0. -1.
         22    1    1    2    0    0 -0.13960194170E+02  0.57351712880E+01  0.54946614108E+01  0.16061460550E+02  0.00000000000E+00 0.  1.
<mgrwt>
<rscale>  0 0.58229551E+02</rscale>
<asrwt>0</asrwt>
<pdfrwt beam="1">  1        2 0.61459616E-02 0.91328343E+02</pdfrwt>
<pdfrwt beam="2">  1       -2 0.11810258E-01 0.91328343E+02</pdfrwt>
<totfact> 0.52140931E+04</totfact>
</mgrwt>
</event>
<event>
 6    1  0.1828142E-002  0.1023161E+03  0.7546771E-02  0.1323167E+00
         -2   -1    0    0    0  501 -0.00000000000E+00  0.00000000000E+00  0.75845501954E+02  0.75845501954E+02  0.00000000000E+00 0.  1.
          2   -1    0    0  501    0  0.00000000000E+00 -0.00000000000E+00 -0.26561472875E+03  0.26561472875E+03  0.00000000000E+00 0. -1.
         23    2    1    2    0    0 -0.14198047471E+02  0.39992886615E+02  0.38469821346E+02  0.10930924831E+03  0.93099780230E+02 0.  0.
         13    1    3    3    0    0 -0.78545588580E+01  0.68968938611E+02  0.39042895500E+02  0.79641423123E+02  0.00000000000E+00 0.  1.
        -13    1    3    3    0    0 -0.63434886132E+01 -0.28976051996E+02 -0.57307415424E+00  0.29667825183E+02  0.00000000000E+00 0. -1.
         22    1    1    2    0    0  0.14198047471E+02 -0.39992886615E+02 -0.22823904814E+03  0.23215098240E+03  0.00000000000E+00 0. -1.
<mgrwt>
<rscale>  0 0.82110306E+02</rscale>
<asrwt>0</asrwt>
<pdfrwt beam="1">  1        2 0.40863804E-01 0.10231610E+03</pdfrwt>
<pdfrwt beam="2">  1       -2 0.11668539E-01 0.10231610E+03</pdfrwt>
<totfact> 0.60461608E+03</totfact>
</mgrwt>
</event>
<event>
 6    1  0.1828142E-002  0.1035795E+03  0.7546771E-02  0.1400152E+00
         -4   -1    0    0    0  501 -0.00000000000E+00  0.00000000000E+00  0.71690178268E+01  0.71690178268E+01  0.00000000000E+00 0. -1.
          4   -1    0    0  501    0  0.00000000000E+00 -0.00000000000E+00 -0.45977445291E+03  0.45977445291E+03  0.00000000000E+00 0.  1.
         23    2    1    2    0    0 -0.11152324524E+02  0.14082313320E+01 -0.40719423321E+03  0.42016169316E+03  0.10296770067E+03 0.  0.
         13    1    3    3    0    0 -0.14760064429E+01  0.34801813490E+02 -0.48099224663E+02  0.59387542721E+02  0.00000000000E+00 0. -1.
        -13    1    3    3    0    0 -0.96763180809E+01 -0.33393582158E+02 -0.35909500855E+03  0.36077415044E+03  0.00000000000E+00 0.  1.
         22    1    1    2    0    0  0.11152324524E+02 -0.14082313320E+01 -0.45411201871E+02  0.46781777576E+02  0.00000000000E+00 0. -1.
<mgrwt>
<rscale>  0 0.59450477E+02</rscale>
<asrwt>0</asrwt>
<pdfrwt beam="1">  1        4 0.70734544E-01 0.10357946E+03</pdfrwt>
<pdfrwt beam="2">  1       -4 0.11029256E-02 0.10357946E+03</pdfrwt>
<totfact> 0.71805082E+03</totfact>
</mgrwt>
</event>
<event>
 6    1  0.1828142E-002  0.9982282E+02  0.7546771E-02  0.1332961E+00
          4   -1    0    0  501    0  0.00000000000E+00  0.00000000000E+00  0.24871300222E+03  0.24871300222E+03  0.00000000000E+00 0. -1.
         -4   -1    0    0    0  501 -0.00000000000E+00 -0.00000000000E+00 -0.20903984062E+02  0.20903984062E+02  0.00000000000E+00 0.  1.
         23    2    1    2    0    0 -0.29276016712E+02 -0.24919730095E+02  0.19503959655E+03  0.21910052267E+03  0.92122292162E+02 0.  0.
         11    1    3    3    0    0 -0.66124339720E+01 -0.56925050245E+02  0.14207340501E+03  0.15319607710E+03  0.00000000000E+00 0. -1.
        -11    1    3    3    0    0 -0.22663582740E+02  0.32005320149E+02  0.52966191537E+02  0.65904445574E+02  0.00000000000E+00 0.  1.
         22    1    1    2    0    0  0.29276016712E+02  0.24919730095E+02  0.32769421611E+02  0.50516463606E+02  0.00000000000E+00 0.  1.
<mgrwt>
<rscale>  0 0.78638377E+02</rscale>
<asrwt>0</asrwt>
<pdfrwt beam="1">  1        4 0.38263537E-01 0.99822817E+02</pdfrwt>
<pdfrwt beam="2">  1       -4 0.32159977E-02 0.99822817E+02</pdfrwt>
<totfact> 0.48472977E+03</totfact>
</mgrwt>
</event>
<event>
 6    1  0.1828142E-002  0.9305787E+02  0.7546771E-02  0.1386027E+00
          2   -1    0    0  501    0  0.00000000000E+00  0.00000000000E+00  0.92260951145E+02  0.92260951145E+02  0.00000000000E+00 0.  1.
         -2   -1    0    0    0  501 -0.00000000000E+00 -0.00000000000E+00 -0.39572116415E+02  0.39572116415E+02  0.00000000000E+00 0. -1.
         23    2    1    2    0    0 -0.12560251208E+01  0.19390680407E+02  0.22184717041E+02  0.95665716514E+02  0.91006546798E+02 0.  0.
         11    1    3    3    0    0 -0.21016903288E+02  0.54196428296E+01 -0.30647351760E+02  0.37554532644E+02  0.00000000000E+00 0. -1.
        -11    1    3    3    0    0  0.19760878168E+02  0.13971037577E+02  0.52832068801E+02  0.58111183869E+02  0.00000000000E+00 0.  1.
         22    1    1    2    0    0  0.12560251208E+01 -0.19390680407E+02  0.30504117689E+02  0.36167351047E+02  0.00000000000E+00 0.  1.
<mgrwt>
<rscale>  0 0.62905758E+02</rscale>
<asrwt>0</asrwt>
<pdfrwt beam="1">  1        2 0.14193992E-01 0.93057873E+02</pdfrwt>
<pdfrwt beam="2">  1       -2 0.60880179E-02 0.93057873E+02</pdfrwt>
<totfact> 0.52144354E+04</totfact>
</mgrwt>
</event>
<event>
 6    1  0.1828142E-002  0.9045232E+02  0.7546771E-02  0.1397574E+00
         -2   -1    0    0    0  501 -0.00000000000E+00  0.00000000000E+00  0.27353337879E+02  0.27353337879E+02  0.00000000000E+00 0.  1.
          2   -1    0    0  501    0  0.00000000000E+00 -0.00000000000E+00 -0.20441370042E+03  0.20441370042E+03  0.00000000000E+00 0. -1.
         23    2    1    2    0    0  0.17567238044E+02 -0.77634169507E+00 -0.18966644442E+03  0.21013086813E+03  0.88726608445E+02 0.  0.
         11    1    3    3    0    0 -0.28671672704E+02 -0.24819668533E+02 -0.89934528473E+02  0.97602767242E+02  0.00000000000E+00 0.  1.
        -11    1    3    3    0    0  0.46238910747E+02  0.24043326838E+02 -0.99731915944E+02  0.11252810089E+03  0.00000000000E+00 0. -1.
         22    1    1    2    0    0 -0.17567238044E+02  0.77634169507E+00  0.12606081880E+02  0.21636170162E+02  0.00000000000E+00 0.  1.
<mgrwt>
<rscale>  0 0.60061553E+02</rscale>
<asrwt>0</asrwt>
<pdfrwt beam="1">  1        2 0.31448260E-01 0.90452317E+02</pdfrwt>
<pdfrwt beam="2">  1       -2 0.42082060E-02 0.90452317E+02</pdfrwt>
<totfact> 0.37157058E+04</totfact>
</mgrwt>
</event>
<event>
 6    1  0.1828142E-002  0.9488356E+02  0.7546771E-02  0.1384794E+00
          2   -1    0    0  501    0  0.00000000000E+00  0.00000000000E+00  0.18678076512E+03  0.18678076512E+03  0.00000000000E+00 0. -1.
         -2   -1    0    0    0  501 -0.00000000000E+00 -0.00000000000E+00 -0.30978837060E+02  0.30978837060E+02  0.00000000000E+00 0.  1.
         23    2    1    2    0    0  0.17828148129E+02 -0.56447779497E+01  0.44327211897E+02  0.10472722307E+03  0.93022487354E+02 0.  0.
         13    1    3    3    0    0  0.30119580335E+01  0.25015049067E+02  0.61593633093E+02  0.66547728801E+02  0.00000000000E+00 0. -1.
        -13    1    3    3    0    0  0.14816190096E+02 -0.30659827017E+02 -0.17266421196E+02  0.38179494268E+02  0.00000000000E+00 0.  1.
         22    1    1    2    0    0 -0.17828148129E+02  0.56447779497E+01  0.11147471616E+03  0.11303237911E+03  0.00000000000E+00 0.  1.
<mgrwt>
<rscale>  0 0.63220244E+02</rscale>
<asrwt>0</asrwt>
<pdfrwt beam="1">  1        2 0.28735502E-01 0.94883558E+02</pdfrwt>
<pdfrwt beam="2">  1       -2 0.47659751E-02 0.94883558E+02</pdfrwt>
<totfact> 0.34242504E+04</totfact>
</mgrwt>
</event>
<event>
 6    1  0.1828142E-002  0.9582864E+02  0.7546771E-02  0.1351415E+00
          2   -1    0    0  501    0  0.00000000000E+00  0.00000000000E+00  0.23515257636E+03  0.23515257636E+03  0.00000000000E+00 0. -1.
         -2   -1    0    0    0  501 -0.00000000000E+00 -0.00000000000E+00 -0.31706666396E+02  0.31706666396E+02  0.00000000000E+00 0.  1.
         23    2    1    2    0    0 -0.29537731563E+02 -0.11222472121E+02  0.46042753988E+02  0.10631586862E+03  0.90469371944E+02 0.  0.
         13    1    3    3    0    0  0.18744571334E+02 -0.81527334797E+00  0.53197452156E+02  0.56409152990E+02  0.00000000000E+00 0. -1.
        -13    1    3    3    0    0 -0.48282302898E+02 -0.10407198774E+02 -0.71546981688E+01  0.49906715633E+02  0.00000000000E+00 0.  1.
         22    1    1    2    0    0  0.29537731563E+02  0.11222472121E+02  0.15740315598E+03  0.16054337413E+03  0.00000000000E+00 0. -1.
<mgrwt>
<rscale>  0 0.72616572E+02</rscale>
<asrwt>0</asrwt>
<pdfrwt beam="1">  1        2 0.36177318E-01 0.95828643E+02</pdfrwt>
<pdfrwt beam="2">  1       -2 0.48779488E-02 0.95828643E+02</pdfrwt>
<totfact> 0.25915265E+04</totfact>
</mgrwt>
</event>
<event>
 6    1  0.1828142E-002  0.9408831E+02  0.7546771E-02  0.1405578E+00
         -2   -1    0    0    0  501 -0.00000000000E+00  0.00000000000E+00  0.28154229013E+02  0.28154229013E+02  0.00000000000E+00 0. -1.
          2   -1    0    0  501    0  0.00000000000E+00 -0.00000000000E+00 -0.11143544383E+03  0.11143544383E+03  0.00000000000E+00 0.  1.
         23    2    1    2    0    0  0.12477795525E+02  0.58178654303E+01 -0.57236530773E+02  0.11013006480E+03  0.93075602485E+02 0.  0.
         13    1    3    3    0    0  0.10806550565E+02 -0.16248649915E+02  0.21092549941E+02  0.28734923389E+02  0.00000000000E+00 0. -1.
        -13    1    3    3    0    0  0.16712449602E+01  0.22066515345E+02 -0.78329080715E+02  0.81395141408E+02  0.00000000000E+00 0.  1.
         22    1    1    2    0    0 -0.12477795525E+02 -0.58178654303E+01 -0.26044684043E+02  0.29459608046E+02  0.00000000000E+00 0. -1.
<mgrwt>
<rscale>  0 0.58192259E+02</rscale>
<asrwt>0</asrwt>
<pdfrwt beam="1">  1        2 0.17143915E-01 0.94088313E+02</pdfrwt>
<pdfrwt beam="2">  1       -2 0.43314198E-02 0.94088313E+02</pdfrwt>
<totfact> 0.69751720E+04</totfact>
</mgrwt>
</event>
<event>
 6    1  0.1828142E-002  0.8883203E+02  0.7546771E-02  0.1421000E+00
          2   -1    0    0  501    0  0.00000000000E+00  0.00000000000E+00  0.19344189245E+03  0.19344189245E+03  0.00000000000E+00 0. -1.
         -2   -1    0    0    0  501 -0.00000000000E+00 -0.00000000000E+00 -0.14146414713E+02  0.14146414713E+02  0.00000000000E+00 0.  1.
         23    2    1    2    0    0  0.35242686571E+01 -0.12382584478E+02  0.13618145268E+03  0.16259310715E+03  0.87894149801E+02 0.  0.
         13    1    3    3    0    0  0.32732811247E+02 -0.35349553302E+02  0.98620528507E+02  0.10975899277E+03  0.00000000000E+00 0. -1.
        -13    1    3    3    0    0 -0.29208542590E+02  0.22966968824E+02  0.37560924174E+02  0.52834114377E+02  0.00000000000E+00 0.  1.
         22    1    1    2    0    0 -0.35242686571E+01  0.12382584478E+02  0.43114025059E+02  0.44995200019E+02  0.00000000000E+00 0.  1.
<mgrwt>
<rscale>  0 0.54809839E+02</rscale>
<asrwt>0</asrwt>
<pdfrwt beam="1">  1        2 0.29760289E-01 0.88832035E+02</pdfrwt>
<pdfrwt beam="2">  1       -2 0.21763716E-02 0.88832035E+02</pdfrwt>
<totfact> 0.10257278E+05</totfact>
</mgrwt>
</event>
<event>
 6    1  0.1828142E-002  0.9409759E+02  0.7546771E-02  0.1377785E+00
         -2   -1    0    0    0  501 -0.00000000000E+00  0.00000000000E+00  0.18815929773E+02  0.18815929773E+02  0.00000000000E+00 0.  1.
          2   -1    0    0  501    0  0.00000000000E+00 -0.00000000000E+00 -0.18491476769E+03  0.18491476769E+03  0.00000000000E+00 0. -1.
         23    2    1    2    0    0 -0.17113789733E+02  0.12997958299E+02 -0.11707095745E+03  0.15019975518E+03  0.91610745320E+02 0.  0.
         13    1    3    3    0    0 -0.21104216432E+02  0.49943972180E+02 -0.86460193276E+02  0.10205465854E+03  0.00000000000E+00 0.  1.
        -13    1    3    3    0    0  0.39904266989E+01 -0.36946013881E+02 -0.30610764172E+02  0.48145096636E+02  0.00000000000E+00 0. -1.
         22    1    1    2    0    0  0.17113789733E+02 -0.12997958299E+02 -0.49027880473E+02  0.53530942292E+02  0.00000000000E+00 0. -1.
<mgrwt>
<rscale>  0 0.65049507E+02</rscale>
<asrwt>0</asrwt>
<pdfrwt beam="1">  1        2 0.28448427E-01 0.94097595E+02</pdfrwt>
<pdfrwt beam="2">  1       -2 0.28947583E-02 0.94097595E+02</pdfrwt>
<totfact> 0.71882020E+04</totfact>
</mgrwt>
</event>
<event>
 6    1  0.1828142E-002  0.8695393E+02  0.7546771E-02  0.1422710E+00
         -2   -1    0    0    0  501 -0.00000000000E+00  0.00000000000E+00  0.36313212582E+03  0.36313212582E+03  0.00000000000E+00 0.  1.
          2   -1    0    0  501    0  0.00000000000E+00 -0.00000000000E+00 -0.88354958633E+01  0.88354958633E+01  0.00000000000E+00 0. -1.
         23    2    1    2    0    0 -0.19735319672E+00  0.13369842753E+02  0.34472746137E+03  0.35552497497E+03  0.85919692512E+02 0.  0.
         13    1    3    3    0    0  0.82063198559E+01  0.45188478509E+02  0.26990740515E+03  0.27378705161E+03  0.00000000000E+00 0.  1.
        -13    1    3    3    0    0 -0.84036730527E+01 -0.31818635756E+02  0.74820056222E+02  0.81737923360E+02  0.00000000000E+00 0. -1.
         22    1    1    2    0    0  0.19735319672E+00 -0.13369842753E+02  0.95691685879E+01  0.16442646714E+02  0.00000000000E+00 0. -1.
<mgrwt>
<rscale>  0 0.54451556E+02</rscale>
<asrwt>0</asrwt>
<pdfrwt beam="1">  1        2 0.13593073E-02 0.86953926E+02</pdfrwt>
<pdfrwt beam="2">  1       -2 0.55866469E-01 0.86953926E+02</pdfrwt>
<totfact> 0.24952242E+04</totfact>
</mgrwt>
</event>
<event>
 6    1  0.1828142E-002  0.9331719E+02  0.7546771E-02  0.1394349E+00
         -3   -1    0    0    0  501 -0.00000000000E+00  0.00000000000E+00  0.29026716437E+03  0.29026716437E+03  0.00000000000E+00 0.  1.
          3   -1    0    0  501    0  0.00000000000E+00 -0.00000000000E+00 -0.10479624252E+02  0.10479624252E+02  0.00000000000E+00 0. -1.
         23    2    1    2    0    0  0.16794744395E+02  0.14610849855E+01  0.24203260306E+03  0.25939907428E+03  0.91781809676E+02 0.  0.
         11    1    3    3    0    0  0.12439421360E+02  0.41369652869E+01 -0.36936036519E+01  0.13619706072E+02  0.00000000000E+00 0. -1.
        -11    1    3    3    0    0  0.43553230352E+01 -0.26758803014E+01  0.24572620671E+03  0.24577936821E+03  0.00000000000E+00 0.  1.
         22    1    1    2    0    0 -0.16794744395E+02 -0.14610849855E+01  0.37754937055E+02  0.41347714335E+02  0.00000000000E+00 0.  1.
<mgrwt>
<rscale>  0 0.60837859E+02</rscale>
<asrwt>0</asrwt>
<pdfrwt beam="1">  1        3 0.16122501E-02 0.93317195E+02</pdfrwt>
<pdfrwt beam="2">  1       -3 0.44656481E-01 0.93317195E+02</pdfrwt>
<totfact> 0.13745012E+04</totfact>
</mgrwt>
</event>
<event>
 6    1  0.1828142E-002  0.9136592E+02  0.7546771E-02  0.1422745E+00
          1   -1    0    0  501    0  0.00000000000E+00  0.00000000000E+00  0.74643988027E+02  0.74643988027E+02  0.00000000000E+00 0. -1.
         -1   -1    0    0    0  501 -0.00000000000E+00 -0.00000000000E+00 -0.35720131599E+02  0.35720131599E+02  0.00000000000E+00 0.  1.
         23    2    1    2    0    0  0.17578155820E+01  0.11385177574E+02  0.31428473894E+02  0.96620286706E+02  0.90636740055E+02 0.  0.
         11    1    3    3    0    0 -0.24362127815E+02  0.36695217733E+02  0.39726372789E+02  0.59314728112E+02  0.00000000000E+00 0. -1.
        -11    1    3    3    0    0  0.26119943397E+02 -0.25310040159E+02 -0.82978988948E+01  0.37305558593E+02  0.00000000000E+00 0.  1.
         22    1    1    2    0    0 -0.17578155820E+01 -0.11385177574E+02  0.74953825334E+01  0.13743832920E+02  0.00000000000E+00 0. -1.
<mgrwt>
<rscale>  0 0.54444249E+02</rscale>
<asrwt>0</asrwt>
<pdfrwt beam="1">  1        1 0.11483690E-01 0.91365917E+02</pdfrwt>
<pdfrwt beam="2">  1       -1 0.54954049E-02 0.91365917E+02</pdfrwt>
<totfact> 0.69254519E+04</totfact>
</mgrwt>
</event>
<event>
 6    1  0.1828142E-002  0.9394804E+02  0.7546771E-02  0.1386970E+00
         -2   -1    0    0    0  501 -0.00000000000E+00  0.00000000000E+00  0.44124465624E+02  0.44124465624E+02  0.00000000000E+00 0.  1.
          2   -1    0    0  501    0  0.00000000000E+00 -0.00000000000E+00 -0.81198893941E+02  0.81198893941E+02  0.00000000000E+00 0. -1.
         23    2    1    2    0    0 -0.80542509110E+01  0.16764288181E+02 -0.12911073669E+02  0.94831065067E+02  0.92088667937E+02 0.  0.
         13    1    3    3    0    0  0.24092490244E+02  0.85901276410E+01  0.30751162000E+02  0.39998404261E+02  0.00000000000E+00 0.  1.
        -13    1    3    3    0    0 -0.32146741155E+02  0.81741605401E+01 -0.43662235669E+02  0.54832660806E+02  0.00000000000E+00 0. -1.
         22    1    1    2    0    0  0.80542509110E+01 -0.16764288181E+02 -0.24163354648E+02  0.30492294499E+02  0.00000000000E+00 0. -1.
<mgrwt>
<rscale>  0 0.62666662E+02</rscale>
<asrwt>0</asrwt>
<pdfrwt beam="1">  1        2 0.12492138E-01 0.93948045E+02</pdfrwt>
<pdfrwt beam="2">  1       -2 0.67883793E-02 0.93948045E+02</pdfrwt>
<totfact> 0.51473691E+04</totfact>
</mgrwt>
</event>
<event>
 6    1  0.1828142E-002  0.9631750E+02  0.7546771E-02  0.1394304E+00
          2   -1    0    0  501    0  0.00000000000E+00  0.00000000000E+00  0.12580352052E+03  0.12580352052E+03  0.00000000000E+00 0. -1.
         -2   -1    0    0    0  501 -0.00000000000E+00 -0.00000000000E+00 -0.25965422528E+02  0.25965422528E+02  0.00000000000E+00 0.  1.
         23    2    1    2    0    0 -0.95322757481E+01 -0.12021816932E+02  0.73002043925E+02  0.12085677455E+03  0.95087713057E+02 0.  0.
         11    1    3    3    0    0  0.39375087998E+02 -0.65748951702E+01  0.10444845822E+02  0.41264047372E+02  0.00000000000E+00 0.  1.
        -11    1    3    3    0    0 -0.48907363746E+02 -0.54469217617E+01  0.62557198103E+02  0.79592727179E+02  0.00000000000E+00 0. -1.
         22    1    1    2    0    0  0.95322757481E+01  0.12021816932E+02  0.26836054062E+02  0.30912168493E+02  0.00000000000E+00 0.  1.
<mgrwt>
<rscale>  0 0.60848803E+02</rscale>
<asrwt>0</asrwt>
<pdfrwt beam="1">  1        2 0.19354387E-01 0.96317504E+02</pdfrwt>
<pdfrwt beam="2">  1       -2 0.39946805E-02 0.96317504E+02</pdfrwt>
<totfact> 0.68745673E+04</totfact>
</mgrwt>
</event>
<event>
 6    1  0.1828142E-002  0.9391357E+02  0.7546771E-02  0.1419111E+00
         -2   -1    0    0    0  501 -0.00000000000E+00  0.00000000000E+00  0.14055190662E+03  0.14055190662E+03  0.00000000000E+00 0.  1.
          2   -1    0    0  501    0  0.00000000000E+00 -0.00000000000E+00 -0.25601350664E+02  0.25601350664E+02  0.00000000000E+00 0. -1.
         23    2    1    2    0    0 -0.80489493741E+01 -0.78121226208E+01  0.12118901522E+03  0.15331841331E+03  0.93241319182E+02 0.  0.
         13    1    3    3    0    0  0.50636302463E+01  0.29187774473E+01  0.13270368609E+03  0.13283233008E+03  0.00000000000E+00 0.  1.
        -13    1    3    3    0    0 -0.13112579620E+02 -0.10730900068E+02 -0.11514670871E+02  0.20486083223E+02  0.00000000000E+00 0. -1.
         22    1    1    2    0    0  0.80489493741E+01  0.78121226208E+01 -0.62384592662E+01  0.12834843976E+02  0.00000000000E+00 0. -1.
<mgrwt>
<rscale>  0 0.55209364E+02</rscale>
<asrwt>0</asrwt>
<pdfrwt beam="1">  1        2 0.39386694E-02 0.93913569E+02</pdfrwt>
<pdfrwt beam="2">  1       -2 0.21623370E-01 0.93913569E+02</pdfrwt>
<totfact> 0.34640078E+04</totfact>
</mgrwt>
</event>
<event>
 6    1  0.1828142E-002  0.8007772E+02  0.7546771E-02  0.1417005E+00
         -2   -1    0    0    0  501 -0.00000000000E+00  0.00000000000E+00  0.20046312408E+02  0.20046312408E+02  0.00000000000E+00 0.  1.
          2   -1    0    0  501    0  0.00000000000E+00 -0.00000000000E+00 -0.12166765255E+03  0.12166765255E+03  0.00000000000E+00 0. -1.
         23    2    1    2    0    0 -0.17616699572E+02 -0.62442816303E+01 -0.81896314180E+02  0.11454015760E+03  0.77865924967E+02 0.  0.
         13    1    3    3    0    0 -0.24935880974E+02 -0.27496604417E+01  0.63851930202E+01  0.25886859261E+02  0.00000000000E+00 0.  1.
        -13    1    3    3    0    0  0.73191814021E+01 -0.34946211885E+01 -0.88281507200E+02  0.88653298343E+02  0.00000000000E+00 0. -1.
         22    1    1    2    0    0  0.17616699572E+02  0.62442816303E+01 -0.19725025963E+02  0.27173807354E+02  0.00000000000E+00 0. -1.
<mgrwt>
<rscale>  0 0.55659550E+02</rscale>
<asrwt>0</asrwt>
<pdfrwt beam="1">  1        2 0.18718101E-01 0.80077721E+02</pdfrwt>
<pdfrwt beam="2">  1       -2 0.30840480E-02 0.80077721E+02</pdfrwt>
<totfact> 0.10127693E+05</totfact>
</mgrwt>
</event>
<event>
 6    1  0.1828142E-002  0.6012085E+02  0.7546771E-02  0.1511808E+00
          2   -1    0    0  501    0  0.00000000000E+00  0.00000000000E+00  0.35292792596E+02  0.35292792596E+02  0.00000000000E+00 0.  1.
         -2   -1    0    0    0  501 -0.00000000000E+00 -0.00000000000E+00 -0.86747482416E+02  0.86747482416E+02  0.00000000000E+00 0. -1.
         23    2    1    2    0    0 -0.28104502869E+00 -0.11216465125E+02 -0.74902457991E+02  0.96046315938E+02  0.59064613060E+02 0.  0.
         13    1    3    3    0    0 -0.59859715570E+01 -0.13484176848E+02  0.52497576641E+01  0.15659337032E+02  0.00000000000E+00 0.  1.
        -13    1    3    3    0    0  0.57049265283E+01  0.22677117233E+01 -0.80152215655E+02  0.80386978906E+02  0.00000000000E+00 0. -1.
         22    1    1    2    0    0  0.28104502869E+00  0.11216465125E+02  0.23447768171E+02  0.25993959075E+02  0.00000000000E+00 0.  1.
<mgrwt>
<rscale>  0 0.39515448E+02</rscale>
<asrwt>0</asrwt>
<pdfrwt beam="1">  1        2 0.54296605E-02 0.60120850E+02</pdfrwt>
<pdfrwt beam="2">  1       -2 0.13345766E-01 0.60120850E+02</pdfrwt>
<totfact> 0.47183260E+04</totfact>
</mgrwt>
</event>
<event>
 6    1  0.1828142E-002  0.1012927E+03  0.7546771E-02  0.1325769E+00
         -2   -1    0    0    0  501 -0.00000000000E+00  0.00000000000E+00  0.17232988803E+02  0.17232988803E+02  0.00000000000E+00 0.  1.
          2   -1    0    0  501    0  0.00000000000E+00 -0.00000000000E+00 -0.29689586499E+03  0.29689586499E+03  0.00000000000E+00 0. -1.
         23    2    1    2    0    0 -0.37432086708E+02 -0.18523819306E+02 -0.19844381176E+03  0.22280071233E+03  0.92281731622E+02 0.  0.
         13    1    3    3    0    0 -0.31469915213E+02 -0.55015200103E+02 -0.13944554278E+03  0.15317338936E+03  0.00000000000E+00 0. -1.
        -13    1    3    3    0    0 -0.59621714952E+01  0.36491380797E+02 -0.58998268973E+02  0.69627322965E+02  0.00000000000E+00 0.  1.
         22    1    1    2    0    0  0.37432086708E+02  0.18523819306E+02 -0.81219064431E+02  0.91328141468E+02  0.00000000000E+00 0. -1.
<mgrwt>
<rscale>  0 0.81168223E+02</rscale>
<asrwt>0</asrwt>
<pdfrwt beam="1">  1        2 0.45676282E-01 0.10129270E+03</pdfrwt>
<pdfrwt beam="2">  1       -2 0.26512293E-02 0.10129270E+03</pdfrwt>
<totfact> 0.49958259E+04</totfact>
</mgrwt>
</event>
<event>
 6    1  0.1828142E-002  0.1076056E+03  0.7546771E-02  0.1366043E+00
          2   -1    0    0  501    0  0.00000000000E+00  0.00000000000E+00  0.33236614561E+02  0.33236614561E+02  0.00000000000E+00 0.  1.
         -2   -1    0    0    0  501 -0.00000000000E+00 -0.00000000000E+00 -0.13701076850E+03  0.13701076850E+03  0.00000000000E+00 0. -1.
         23    2    1    2    0    0 -0.13660640813E+02  0.10848994272E+02 -0.10783156581E+03  0.15233715204E+03  0.10618214314E+03 0.  0.
         13    1    3    3    0    0 -0.34629640596E+02  0.41771642654E+02 -0.21675244221E+02  0.58428574772E+02  0.00000000000E+00 0.  1.
        -13    1    3    3    0    0  0.20968999784E+02 -0.30922648382E+02 -0.86156321584E+02  0.93908577264E+02  0.00000000000E+00 0. -1.
         22    1    1    2    0    0  0.13660640813E+02 -0.10848994272E+02  0.40574118709E+01  0.17910231021E+02  0.00000000000E+00 0.  1.
<mgrwt>
<rscale>  0 0.68279653E+02</rscale>
<asrwt>0</asrwt>
<pdfrwt beam="1">  1        2 0.51133255E-02 0.10760558E+03</pdfrwt>
<pdfrwt beam="2">  1       -2 0.21078579E-01 0.10760558E+03</pdfrwt>
<totfact> 0.26198162E+04</totfact>
</mgrwt>
</event>
<event>
 6    1  0.1828142E-002  0.9902676E+02  0.7546771E-02  0.1332189E+00
         -2   -1    0    0    0  501 -0.00000000000E+00  0.00000000000E+00  0.29452056163E+03  0.29452056163E+03  0.00000000000E+00 0.  1.
          2   -1    0    0  501    0  0.00000000000E+00 -0.00000000000E+00 -0.18632759825E+02  0.18632759825E+02  0.00000000000E+00 0. -1.
         23    2    1    2    0    0 -0.38633197395E+02 -0.10039475776E+02  0.23940147487E+03  0.25907405493E+03  0.90625519319E+02 0.  0.
         11    1    3    3    0    0  0.50290659548E+01 -0.69766566329E-01 -0.70088828017E+01  0.86267496706E+01  0.00000000000E+00 0. -1.
        -11    1    3    3    0    0 -0.43662263350E+02 -0.99697092099E+01  0.24641035767E+03  0.25044730526E+03  0.00000000000E+00 0.  1.
         22    1    1    2    0    0  0.38633197395E+02  0.10039475776E+02  0.36486326930E+02  0.54079266523E+02  0.00000000000E+00 0. -1.
<mgrwt>
<rscale>  0 0.78904567E+02</rscale>
<asrwt>0</asrwt>
<pdfrwt beam="1">  1        2 0.28665787E-02 0.99026763E+02</pdfrwt>
<pdfrwt beam="2">  1       -2 0.45310852E-01 0.99026763E+02</pdfrwt>
<totfact> 0.14000402E+04</totfact>
</mgrwt>
</event>
<event>
 6    1  0.1828142E-002  0.9197514E+02  0.7546771E-02  0.1411118E+00
          4   -1    0    0  501    0  0.00000000000E+00  0.00000000000E+00  0.14459246765E+03  0.14459246765E+03  0.00000000000E+00 0. -1.
         -4   -1    0    0    0  501 -0.00000000000E+00 -0.00000000000E+00 -0.21733515258E+02  0.21733515258E+02  0.00000000000E+00 0.  1.
         23    2    1    2    0    0  0.54364878995E+01 -0.12373344382E+02  0.81758383180E+02  0.12306038640E+03  0.90976757625E+02 0.  0.
         11    1    3    3    0    0 -0.36209514960E+02 -0.13504133088E+02  0.97307947403E+01  0.39851962942E+02  0.00000000000E+00 0.  1.
        -11    1    3    3    0    0  0.41646002859E+02  0.11307887061E+01  0.72027588440E+02  0.83208423454E+02  0.00000000000E+00 0. -1.
         22    1    1    2    0    0 -0.54364878995E+01  0.12373344382E+02  0.41100569208E+02  0.43265596507E+02  0.00000000000E+00 0.  1.
<mgrwt>
<rscale>  0 0.56945156E+02</rscale>
<asrwt>0</asrwt>
<pdfrwt beam="1">  1        4 0.22244994E-01 0.91975135E+02</pdfrwt>
<pdfrwt beam="2">  1       -4 0.33436178E-02 0.91975135E+02</pdfrwt>
<totfact> 0.12288420E+04</totfact>
</mgrwt>
</event>
<event>
 6    1  0.1828142E-002  0.9252360E+02  0.7546771E-02  0.1398781E+00
         -1   -1    0    0    0  501 -0.00000000000E+00  0.00000000000E+00  0.65249265262E+01  0.65249265262E+01  0.00000000000E+00 0.  1.
          1   -1    0    0  501    0  0.00000000000E+00 -0.00000000000E+00 -0.45237235521E+03  0.45237235521E+03  0.00000000000E+00 0. -1.
         23    2    1    2    0    0 -0.76845244622E+01 -0.14167890061E+02 -0.38259714857E+03  0.39362570324E+03  0.91108919058E+02 0.  0.
         11    1    3    3    0    0 -0.38868237642E+02 -0.24304349012E+01 -0.32306242984E+03  0.32540126073E+03  0.00000000000E+00 0.  1.
        -11    1    3    3    0    0  0.31183713180E+02 -0.11737455160E+02 -0.59534718732E+02  0.68224442510E+02  0.00000000000E+00 0. -1.
         22    1    1    2    0    0  0.76845244622E+01  0.14167890061E+02 -0.63250280114E+02  0.65271578498E+02  0.00000000000E+00 0.  1.
<mgrwt>
<rscale>  0 0.59774412E+02</rscale>
<asrwt>0</asrwt>
<pdfrwt beam="1">  1        1 0.69595750E-01 0.92523598E+02</pdfrwt>
<pdfrwt beam="2">  1       -1 0.10038348E-02 0.92523598E+02</pdfrwt>
<totfact> 0.84067328E+04</totfact>
</mgrwt>
</event>
<event>
 6    1  0.1828142E-002  0.1228846E+03  0.7546771E-02  0.1259000E+00
         -2   -1    0    0    0  501 -0.00000000000E+00  0.00000000000E+00  0.78408079686E+01  0.78408079686E+01  0.00000000000E+00 0.  1.
          2   -1    0    0  501    0  0.00000000000E+00 -0.00000000000E+00 -0.16129515855E+04  0.16129515855E+04  0.00000000000E+00 0. -1.
         23    2    1    2    0    0 -0.70229466374E+02  0.41102796641E+02 -0.12705113636E+04  0.12764402690E+04  0.92081580069E+02 0.  0.
         13    1    3    3    0    0 -0.70121491181E+01 -0.17023279778E+02 -0.62139645756E+03  0.62166914010E+03  0.00000000000E+00 0. -1.
        -13    1    3    3    0    0 -0.63217317256E+02  0.58126076419E+02 -0.64911490603E+03  0.65477112886E+03  0.00000000000E+00 0.  1.
         22    1    1    2    0    0  0.70229466374E+02 -0.41102796641E+02 -0.33459941392E+03  0.34435212448E+03  0.00000000000E+00 0.  1.
<mgrwt>
<rscale>  0 0.11085205E+03</rscale>
<asrwt>0</asrwt>
<pdfrwt beam="1">  1        2 0.24814653E+00 0.12288464E+03</pdfrwt>
<pdfrwt beam="2">  1       -2 0.12062775E-02 0.12288464E+03</pdfrwt>
<totfact> 0.18533748E+04</totfact>
</mgrwt>
</event>
<event>
 6    1  0.1828142E-002  0.9212565E+02  0.7546771E-02  0.1401066E+00
         -2   -1    0    0    0  501 -0.00000000000E+00  0.00000000000E+00  0.16455974153E+02  0.16455974153E+02  0.00000000000E+00 0.  1.
          2   -1    0    0  501    0  0.00000000000E+00 -0.00000000000E+00 -0.18508872647E+03  0.18508872647E+03  0.00000000000E+00 0. -1.
         23    2    1    2    0    0  0.15719928023E+02  0.92653776112E+00 -0.12592598931E+03  0.15602720711E+03  0.90769818581E+02 0.  0.
         11    1    3    3    0    0  0.43860271124E+02 -0.23385659782E+02 -0.45355413495E+02  0.67288379382E+02  0.00000000000E+00 0.  1.
        -11    1    3    3    0    0 -0.28140343101E+02  0.24312197543E+02 -0.80570575813E+02  0.88738827726E+02  0.00000000000E+00 0. -1.
         22    1    1    2    0    0 -0.15719928023E+02 -0.92653776112E+00 -0.42706763006E+02  0.45517493513E+02  0.00000000000E+00 0. -1.
<mgrwt>
<rscale>  0 0.59236080E+02</rscale>
<asrwt>0</asrwt>
<pdfrwt beam="1">  1        2 0.28475189E-01 0.92125646E+02</pdfrwt>
<pdfrwt beam="2">  1       -2 0.25316883E-02 0.92125646E+02</pdfrwt>
<totfact> 0.86945727E+04</totfact>
</mgrwt>
</event>
<event>
 6    1  0.1828142E-002  0.9379781E+02  0.7546771E-02  0.1387900E+00
         -2   -1    0    0    0  501 -0.00000000000E+00  0.00000000000E+00  0.11924989451E+03  0.11924989451E+03  0.00000000000E+00 0.  1.
          2   -1    0    0  501    0  0.00000000000E+00 -0.00000000000E+00 -0.30246748560E+02  0.30246748560E+02  0.00000000000E+00 0. -1.
         23    2    1    2    0    0  0.84949765884E+01 -0.16332786978E+02  0.91358541916E+02  0.13093667411E+03  0.91973392283E+02 0.  0.
         11    1    3    3    0    0  0.37221208716E+02  0.18999744831E+02  0.20104083386E+02  0.46374377093E+02  0.00000000000E+00 0. -1.
        -11    1    3    3    0    0 -0.28726232128E+02 -0.35332531810E+02  0.71254458530E+02  0.84562297016E+02  0.00000000000E+00 0.  1.
         22    1    1    2    0    0 -0.84949765884E+01  0.16332786978E+02 -0.23553959649E+01  0.18559968962E+02  0.00000000000E+00 0. -1.
<mgrwt>
<rscale>  0 0.62432023E+02</rscale>
<asrwt>0</asrwt>
<pdfrwt beam="1">  1        2 0.46533460E-02 0.93797812E+02</pdfrwt>
<pdfrwt beam="2">  1       -2 0.18346137E-01 0.93797812E+02</pdfrwt>
<totfact> 0.36706791E+04</totfact>
</mgrwt>
</event>
<event>
 6    1  0.1828142E-002  0.9210285E+02  0.7546771E-02  0.1369745E+00
          2   -1    0    0  501    0  0.00000000000E+00  0.00000000000E+00  0.96357843807E+02  0.96357843807E+02  0.00000000000E+00 0. -1.
         -2   -1    0    0    0  501 -0.00000000000E+00 -0.00000000000E+00 -0.36314338742E+02  0.36314338742E+02  0.00000000000E+00 0.  1.
         23    2    1    2    0    0  0.16265296816E+02 -0.20489270661E+02  0.45242469311E+02  0.10261489138E+03  0.88309483136E+02 0.  0.
         13    1    3    3    0    0  0.12146885600E+02 -0.24207718984E+02 -0.22153716589E+02  0.34990679428E+02  0.00000000000E+00 0.  1.
        -13    1    3    3    0    0  0.41184112163E+01  0.37184483229E+01  0.67396185900E+02  0.67624211956E+02  0.00000000000E+00 0. -1.
         22    1    1    2    0    0 -0.16265296816E+02  0.20489270661E+02  0.14801035753E+02  0.30057291164E+02  0.00000000000E+00 0. -1.
<mgrwt>
<rscale>  0 0.67238215E+02</rscale>
<asrwt>0</asrwt>
<pdfrwt beam="1">  1        2 0.14824283E-01 0.92102850E+02</pdfrwt>
<pdfrwt beam="2">  1       -2 0.55868214E-02 0.92102850E+02</pdfrwt>
<totfact> 0.56310114E+04</totfact>
</mgrwt>
</event>
<event>
 6    1  0.1828142E-002  0.9764815E+02  0.7546771E-02  0.1344141E+00
          2   -1    0    0  501    0  0.00000000000E+00  0.00000000000E+00  0.39302452308E+03  0.39302452308E+03  0.00000000000E+00 0. -1.
         -2   -1    0    0    0  501 -0.00000000000E+00 -0.00000000000E+00 -0.11002953436E+02  0.11002953436E+02  0.00000000000E+00 0.  1.
         23    2    1    2    0    0  0.33714646443E+02  0.27289944899E+01  0.27891021799E+03  0.29550984829E+03  0.91602597899E+02 0.  0.
         11    1    3    3    0    0 -0.22771286487E+01 -0.13308833878E+02 -0.32702927913E+00  0.13506195698E+02  0.00000000000E+00 0.  1.
        -11    1    3    3    0    0  0.35991775092E+02  0.16037828368E+02  0.27923724727E+03  0.28200365260E+03  0.00000000000E+00 0. -1.
         22    1    1    2    0    0 -0.33714646443E+02 -0.27289944899E+01  0.10311135165E+03  0.10851762823E+03  0.00000000000E+00 0. -1.
<mgrwt>
<rscale>  0 0.74912999E+02</rscale>
<asrwt>0</asrwt>
<pdfrwt beam="1">  1        2 0.60465300E-01 0.97648148E+02</pdfrwt>
<pdfrwt beam="2">  1       -2 0.16927624E-02 0.97648148E+02</pdfrwt>
<totfact> 0.70733573E+04</totfact>
</mgrwt>
</event>
<event>
 6    1  0.1828142E-002  0.9036926E+02  0.7546771E-02  0.1426041E+00
          2   -1    0    0  501    0  0.00000000000E+00  0.00000000000E+00  0.19083865257E+03  0.19083865257E+03  0.00000000000E+00 0. -1.
         -2   -1    0    0    0  501 -0.00000000000E+00 -0.00000000000E+00 -0.15540325452E+02  0.15540325452E+02  0.00000000000E+00 0.  1.
         23    2    1    2    0    0 -0.93291185461E+01  0.64127780269E+01  0.12161529398E+03  0.15151529038E+03  0.89657388507E+02 0.  0.
         11    1    3    3    0    0 -0.14009916529E+00 -0.30642029689E+02  0.80174348123E+01  0.31673851554E+02  0.00000000000E+00 0.  1.
        -11    1    3    3    0    0 -0.91890193808E+01  0.37054807716E+02  0.11359785917E+03  0.11984143883E+03  0.00000000000E+00 0. -1.
         22    1    1    2    0    0  0.93291185461E+01 -0.64127780269E+01  0.53683033131E+02  0.54863687636E+02  0.00000000000E+00 0. -1.
<mgrwt>
<rscale>  0 0.53762938E+02</rscale>
<asrwt>0</asrwt>
<pdfrwt beam="1">  1        2 0.29359791E-01 0.90369262E+02</pdfrwt>
<pdfrwt beam="2">  1       -2 0.23908194E-02 0.90369262E+02</pdfrwt>
<totfact> 0.91131940E+04</totfact>
</mgrwt>
</event>
<event>
 6    1  0.1828142E-002  0.9380356E+02  0.7546771E-02  0.1414531E+00
         -4   -1    0    0    0  501 -0.00000000000E+00  0.00000000000E+00  0.24286815787E+02  0.24286815787E+02  0.00000000000E+00 0.  1.
          4   -1    0    0  501    0  0.00000000000E+00 -0.00000000000E+00 -0.12867771527E+03  0.12867771527E+03  0.00000000000E+00 0. -1.
         23    2    1    2    0    0 -0.11543668316E+02  0.35656409957E+01 -0.71565011954E+02  0.11798583803E+03  0.93022239090E+02 0.  0.
         11    1    3    3    0    0 -0.12733322179E+02 -0.15733670424E+02 -0.89410842048E+02  0.91673248848E+02  0.00000000000E+00 0. -1.
        -11    1    3    3    0    0  0.11896538630E+01  0.19299311420E+02  0.17845830094E+02  0.26312589180E+02  0.00000000000E+00 0.  1.
         22    1    1    2    0    0  0.11543668316E+02 -0.35656409957E+01 -0.32825887534E+02  0.34978693033E+02  0.00000000000E+00 0. -1.
<mgrwt>
<rscale>  0 0.56194971E+02</rscale>
<asrwt>0</asrwt>
<pdfrwt beam="1">  1        4 0.19796572E-01 0.93803556E+02</pdfrwt>
<pdfrwt beam="2">  1       -4 0.37364331E-02 0.93803556E+02</pdfrwt>
<totfact> 0.12804388E+04</totfact>
</mgrwt>
</event>
<event>
 6    1  0.1828142E-002  0.9806362E+02  0.7546771E-02  0.1375984E+00
         -2   -1    0    0    0  501 -0.00000000000E+00  0.00000000000E+00  0.76979038343E+03  0.76979038343E+03  0.00000000000E+00 0.  1.
          2   -1    0    0  501    0  0.00000000000E+00 -0.00000000000E+00 -0.85939986578E+01  0.85939986578E+01  0.00000000000E+00 0. -1.
         23    2    1    2    0    0  0.19033549655E+02  0.44889343219E+01  0.74888014745E+03  0.75527342699E+03  0.96093952603E+02 0.  0.
         11    1    3    3    0    0 -0.11655853917E+02  0.13405710911E+02  0.24894771750E+02  0.30583029216E+02  0.00000000000E+00 0. -1.
        -11    1    3    3    0    0  0.30689403571E+02 -0.89167765886E+01  0.72398537570E+03  0.72469039778E+03  0.00000000000E+00 0.  1.
         22    1    1    2    0    0 -0.19033549655E+02 -0.44889343219E+01  0.12316237321E+02  0.23110955098E+02  0.00000000000E+00 0.  1.
<mgrwt>
<rscale>  0 0.65531402E+02</rscale>
<asrwt>0</asrwt>
<pdfrwt beam="1">  1        2 0.13221542E-02 0.98063624E+02</pdfrwt>
<pdfrwt beam="2">  1       -2 0.11842924E+00 0.98063624E+02</pdfrwt>
<totfact> 0.50998764E+03</totfact>
</mgrwt>
</event>
<event>
 6    1  0.1828142E-002  0.9427970E+02  0.7546771E-02  0.1402355E+00
         -2   -1    0    0    0  501 -0.00000000000E+00  0.00000000000E+00  0.51218639107E+03  0.51218639107E+03  0.00000000000E+00 0.  1.
          2   -1    0    0  501    0  0.00000000000E+00 -0.00000000000E+00 -0.72531729760E+01  0.72531729760E+01  0.00000000000E+00 0. -1.
         23    2    1    2    0    0  0.10402582372E+02 -0.99515784055E+01  0.48883327434E+03  0.49784197572E+03  0.93174111487E+02 0.  0.
         13    1    3    3    0    0 -0.60438565540E+00 -0.27518565676E+02  0.40144792803E+02  0.48674851085E+02  0.00000000000E+00 0. -1.
        -13    1    3    3    0    0  0.11006968027E+02  0.17566987271E+02  0.44868848154E+03  0.44916712463E+03  0.00000000000E+00 0.  1.
         22    1    1    2    0    0 -0.10402582372E+02  0.99515784055E+01  0.16099943756E+02  0.21597588331E+02  0.00000000000E+00 0. -1.
<mgrwt>
<rscale>  0 0.58935213E+02</rscale>
<asrwt>0</asrwt>
<pdfrwt beam="1">  1        2 0.11158732E-02 0.94279705E+02</pdfrwt>
<pdfrwt beam="2">  1       -2 0.78797878E-01 0.94279705E+02</pdfrwt>
<totfact> 0.16131232E+04</totfact>
</mgrwt>
</event>
<event>
 6    1  0.1828142E-002  0.9021618E+02  0.7546771E-02  0.1381837E+00
         -2   -1    0    0    0  501 -0.00000000000E+00  0.00000000000E+00  0.12580714686E+02  0.12580714686E+02  0.00000000000E+00 0.  1.
          2   -1    0    0  501    0  0.00000000000E+00 -0.00000000000E+00 -0.25392879721E+03  0.25392879721E+03  0.00000000000E+00 0. -1.
         23    2    1    2    0    0 -0.19237532534E+02 -0.12284617491E+02 -0.19240967074E+03  0.21250985789E+03  0.87280947640E+02 0.  0.
         11    1    3    3    0    0  0.23830874809E+02  0.23643612302E+02 -0.83784722965E+02  0.90259685348E+02  0.00000000000E+00 0.  1.
        -11    1    3    3    0    0 -0.43068407343E+02 -0.35928229793E+02 -0.10862494777E+03  0.12225017254E+03  0.00000000000E+00 0. -1.
         22    1    1    2    0    0  0.19237532534E+02  0.12284617491E+02 -0.48938411789E+02  0.53999654011E+02  0.00000000000E+00 0.  1.
<mgrwt>
<rscale>  0 0.63983420E+02</rscale>
<asrwt>0</asrwt>
<pdfrwt beam="1">  1        2 0.39065966E-01 0.90216175E+02</pdfrwt>
<pdfrwt beam="2">  1       -2 0.19354947E-02 0.90216175E+02</pdfrwt>
<totfact> 0.91229853E+04</totfact>
</mgrwt>
</event>
<event>
 6    1  0.1828142E-002  0.9283412E+02  0.7546771E-02  0.1394077E+00
          2   -1    0    0  501    0  0.00000000000E+00  0.00000000000E+00  0.38877063417E+01  0.38877063417E+01  0.00000000000E+00 0. -1.
         -2   -1    0    0    0  501 -0.00000000000E+00 -0.00000000000E+00 -0.11984142855E+04  0.11984142855E+04  0.00000000000E+00 0.  1.
         23    2    1    2    0    0  0.14992102926E+02  0.84248595135E+01 -0.11602038750E+04  0.11639120266E+04  0.91227368547E+02 0.  0.
         11    1    3    3    0    0  0.15931283720E+02  0.47104059489E+02 -0.46963303056E+03  0.47225817263E+03  0.00000000000E+00 0. -1.
        -11    1    3    3    0    0 -0.93918079428E+00 -0.38679199976E+02 -0.69057084442E+03  0.69165385398E+03  0.00000000000E+00 0.  1.
         22    1    1    2    0    0 -0.14992102926E+02 -0.84248595135E+01 -0.34322704172E+02  0.38389965220E+02  0.00000000000E+00 0.  1.
<mgrwt>
<rscale>  0 0.60903849E+02</rscale>
<asrwt>0</asrwt>
<pdfrwt beam="1">  1        2 0.59810849E-03 0.92834122E+02</pdfrwt>
<pdfrwt beam="2">  1       -2 0.18437148E+00 0.92834122E+02</pdfrwt>
<totfact> 0.49049216E+03</totfact>
</mgrwt>
</event>
<event>
 6    1  0.1828142E-002  0.9089678E+02  0.7546771E-02  0.1431164E+00
          1   -1    0    0  501    0  0.00000000000E+00  0.00000000000E+00  0.91238182111E+02  0.91238182111E+02  0.00000000000E+00 0. -1.
         -1   -1    0    0    0  501 -0.00000000000E+00 -0.00000000000E+00 -0.28905276792E+02  0.28905276792E+02  0.00000000000E+00 0.  1.
         23    2    1    2    0    0  0.71748717663E+01  0.73784517165E+01  0.48882174127E+02  0.10320703354E+03  0.90312261013E+02 0.  0.
         13    1    3    3    0    0  0.15530566306E+02  0.17854840624E+02 -0.21250678933E+02  0.31805426873E+02  0.00000000000E+00 0.  1.
        -13    1    3    3    0    0 -0.83556945393E+01 -0.10476388907E+02  0.70132853060E+02  0.71401606663E+02  0.00000000000E+00 0. -1.
         22    1    1    2    0    0 -0.71748717663E+01 -0.73784517165E+01  0.13450731192E+02  0.16936425367E+02  0.00000000000E+00 0. -1.
<mgrwt>
<rscale>  0 0.52727089E+02</rscale>
<asrwt>0</asrwt>
<pdfrwt beam="1">  1        1 0.14036643E-01 0.90896781E+02</pdfrwt>
<pdfrwt beam="2">  1       -1 0.44469657E-02 0.90896781E+02</pdfrwt>
<totfact> 0.72773887E+04</totfact>
</mgrwt>
</event>
<event>
 6    1  0.1828142E-002  0.8832366E+02  0.7546771E-02  0.1428253E+00
         -2   -1    0    0    0  501 -0.00000000000E+00  0.00000000000E+00  0.33185066540E+03  0.33185066540E+03  0.00000000000E+00 0.  1.
          2   -1    0    0  501    0  0.00000000000E+00 -0.00000000000E+00 -0.91438089443E+01  0.91438089443E+01  0.00000000000E+00 0. -1.
         23    2    1    2    0    0  0.12693327078E+01 -0.11655101192E+02  0.31454221576E+03  0.32670762910E+03  0.87542086038E+02 0.  0.
         13    1    3    3    0    0 -0.36545196130E+02 -0.25021659208E+02  0.11628128911E+03  0.12443059506E+03  0.00000000000E+00 0. -1.
        -13    1    3    3    0    0  0.37814528838E+02  0.13366558016E+02  0.19826092665E+03  0.20227703404E+03  0.00000000000E+00 0.  1.
         22    1    1    2    0    0 -0.12693327078E+01  0.11655101192E+02  0.81646406949E+01  0.14286845243E+02  0.00000000000E+00 0. -1.
<mgrwt>
<rscale>  0 0.53312239E+02</rscale>
<asrwt>0</asrwt>
<pdfrwt beam="1">  1        2 0.14067401E-02 0.88323663E+02</pdfrwt>
<pdfrwt beam="2">  1       -2 0.51053939E-01 0.88323663E+02</pdfrwt>
<totfact> 0.28550207E+04</totfact>
</mgrwt>
</event>
<event>
 6    1  0.1828142E-002  0.9067525E+02  0.7546771E-02  0.1428231E+00
         -3   -1    0    0    0  501 -0.00000000000E+00  0.00000000000E+00  0.17212572693E+03  0.17212572693E+03  0.00000000000E+00 0.  1.
          3   -1    0    0  501    0  0.00000000000E+00 -0.00000000000E+00 -0.22585182981E+02  0.22585182981E+02  0.00000000000E+00 0. -1.
         23    2    1    2    0    0 -0.27010556397E+01 -0.10496949090E+02  0.15717363718E+03  0.18145399647E+03  0.90025101882E+02 0.  0.
         13    1    3    3    0    0  0.87971688327E+01 -0.40177068071E+02  0.13866134954E+03  0.14463248887E+03  0.00000000000E+00 0.  1.
        -13    1    3    3    0    0 -0.11498224472E+02  0.29680118981E+02  0.18512287637E+02  0.36821507605E+02  0.00000000000E+00 0. -1.
         22    1    1    2    0    0  0.27010556397E+01  0.10496949090E+02 -0.76330932303E+01  0.13256913443E+02  0.00000000000E+00 0. -1.
<mgrwt>
<rscale>  0 0.53316645E+02</rscale>
<asrwt>0</asrwt>
<pdfrwt beam="1">  1        3 0.34746436E-02 0.90675248E+02</pdfrwt>
<pdfrwt beam="2">  1       -3 0.26480880E-01 0.90675248E+02</pdfrwt>
<totfact> 0.11291508E+04</totfact>
</mgrwt>
</event>
<event>
 6    1  0.1828142E-002  0.9834553E+02  0.7546771E-02  0.1389808E+00
          2   -1    0    0  501    0  0.00000000000E+00  0.00000000000E+00  0.14454668176E+03  0.14454668176E+03  0.00000000000E+00 0. -1.
         -2   -1    0    0    0  501 -0.00000000000E+00 -0.00000000000E+00 -0.24038786040E+02  0.24038786040E+02  0.00000000000E+00 0.  1.
         23    2    1    2    0    0 -0.13735376575E+02 -0.71589962354E+01  0.11674202110E+03  0.15264515386E+03  0.97118132757E+02 0.  0.
         13    1    3    3    0    0 -0.41977262069E+02 -0.66083623404E+01  0.11691426830E+03  0.12439737584E+03  0.00000000000E+00 0. -1.
        -13    1    3    3    0    0  0.28241885494E+02 -0.55063389499E+00 -0.17224720310E+00  0.28247778020E+02  0.00000000000E+00 0.  1.
         22    1    1    2    0    0  0.13735376575E+02  0.71589962354E+01  0.37658746194E+01  0.15940313937E+02  0.00000000000E+00 0.  1.
<mgrwt>
<rscale>  0 0.61954438E+02</rscale>
<asrwt>0</asrwt>
<pdfrwt beam="1">  1        2 0.22237950E-01 0.98345531E+02</pdfrwt>
<pdfrwt beam="2">  1       -2 0.36982749E-02 0.98345531E+02</pdfrwt>
<totfact> 0.66151486E+04</totfact>
</mgrwt>
</event>
<event>
 6    1  0.1828142E-002  0.9382254E+02  0.7546771E-02  0.1374846E+00
         -1   -1    0    0    0  501 -0.00000000000E+00  0.00000000000E+00  0.53730900251E+02  0.53730900251E+02  0.00000000000E+00 0.  1.
          1   -1    0    0  501    0  0.00000000000E+00 -0.00000000000E+00 -0.63234099987E+02  0.63234099987E+02  0.00000000000E+00 0. -1.
         23    2    1    2    0    0  0.12216401483E+02 -0.19192129305E+02 -0.80950731909E+01  0.94171117005E+02  0.91022474014E+02 0.  0.
         13    1    3    3    0    0 -0.15664468853E+02 -0.42980448407E+02 -0.26805787695E+02  0.53021172975E+02  0.00000000000E+00 0. -1.
        -13    1    3    3    0    0  0.27880870336E+02  0.23788319102E+02  0.18710714504E+02  0.41149944030E+02  0.00000000000E+00 0.  1.
         22    1    1    2    0    0 -0.12216401483E+02  0.19192129305E+02 -0.14081265452E+01  0.22793883233E+02  0.00000000000E+00 0.  1.
<mgrwt>
<rscale>  0 0.65838116E+02</rscale>
<asrwt>0</asrwt>
<pdfrwt beam="1">  1        1 0.97283230E-02 0.93822540E+02</pdfrwt>
<pdfrwt beam="2">  1       -1 0.82662924E-02 0.93822540E+02</pdfrwt>
<totfact> 0.47149311E+04</totfact>
</mgrwt>
</event>
<event>
 6    1  0.1828142E-002  0.9206728E+02  0.7546771E-02  0.1389958E+00
         -4   -1    0    0    0  501 -0.00000000000E+00  0.00000000000E+00  0.57248997237E+03  0.57248997237E+03  0.00000000000E+00 0.  1.
          4   -1    0    0  501    0  0.00000000000E+00 -0.00000000000E+00 -0.10721665336E+02  0.10721665336E+02  0.00000000000E+00 0. -1.
         23    2    1    2    0    0 -0.73816795434E+01  0.17326530444E+02  0.55591840766E+03  0.56349060394E+03  0.90120402297E+02 0.  0.
         11    1    3    3    0    0 -0.47156652015E+02  0.47842187347E+01  0.22382767135E+03  0.22879131330E+03  0.00000000000E+00 0. -1.
        -11    1    3    3    0    0  0.39774972472E+02  0.12542311710E+02  0.33209073630E+03  0.33469929064E+03  0.00000000000E+00 0.  1.
         22    1    1    2    0    0  0.73816795434E+01 -0.17326530444E+02  0.58498993818E+01  0.19721033769E+02  0.00000000000E+00 0. -1.
<mgrwt>
<rscale>  0 0.61917201E+02</rscale>
<asrwt>0</asrwt>
<pdfrwt beam="1">  1        4 0.16494874E-02 0.92067284E+02</pdfrwt>
<pdfrwt beam="2">  1       -4 0.88075356E-01 0.92067284E+02</pdfrwt>
<totfact> 0.23452868E+03</totfact>
</mgrwt>
</event>
<event>
 6    1  0.1828142E-002  0.1013250E+03  0.7546771E-02  0.1401624E+00
         -2   -1    0    0    0  501 -0.00000000000E+00  0.00000000000E+00  0.88028792966E+01  0.88028792966E+01  0.00000000000E+00 0. -1.
          2   -1    0    0  501    0  0.00000000000E+00 -0.00000000000E+00 -0.37254098831E+03  0.37254098831E+03  0.00000000000E+00 0.  1.
         23    2    1    2    0    0 -0.63950153574E+01  0.98355935069E+01 -0.30329515098E+03  0.31977288177E+03  0.10064349053E+03 0.  0.
         11    1    3    3    0    0  0.23844937762E+02  0.24862366479E+02 -0.34113301619E+02  0.48481291970E+02  0.00000000000E+00 0. -1.
        -11    1    3    3    0    0 -0.30239953119E+02 -0.15026772972E+02 -0.26918184936E+03  0.27129158980E+03  0.00000000000E+00 0.  1.
         22    1    1    2    0    0  0.63950153574E+01 -0.98355935069E+01 -0.60442958042E+02  0.61570985845E+02  0.00000000000E+00 0. -1.
<mgrwt>
<rscale>  0 0.59105580E+02</rscale>
<asrwt>0</asrwt>
<pdfrwt beam="1">  1        2 0.57314003E-01 0.10132496E+03</pdfrwt>
<pdfrwt beam="2">  1       -2 0.13542890E-02 0.10132496E+03</pdfrwt>
<totfact> 0.10349796E+05</totfact>
</mgrwt>
</event>
<event>
 6    1  0.1828142E-002  0.9463235E+02  0.7546771E-02  0.1366624E+00
          3   -1    0    0  501    0  0.00000000000E+00  0.00000000000E+00  0.65299391604E+02  0.65299391604E+02  0.00000000000E+00 0. -1.
         -3   -1    0    0    0  501 -0.00000000000E+00 -0.00000000000E+00 -0.23155369957E+03  0.23155369957E+03  0.00000000000E+00 0.  1.
         23    2    1    2    0    0 -0.23910465271E+01  0.25287701569E+02 -0.21885630654E+03  0.23843943517E+03  0.91159730003E+02 0.  0.
         11    1    3    3    0    0  0.38843445969E+02 -0.10137253607E+02 -0.99091119885E+02  0.10691411154E+03  0.00000000000E+00 0.  1.
        -11    1    3    3    0    0 -0.41234492496E+02  0.35424955176E+02 -0.11976518666E+03  0.13152532363E+03  0.00000000000E+00 0. -1.
         22    1    1    2    0    0  0.23910465271E+01 -0.25287701569E+02  0.52601998576E+02  0.58413656009E+02  0.00000000000E+00 0. -1.
<mgrwt>
<rscale>  0 0.68114605E+02</rscale>
<asrwt>0</asrwt>
<pdfrwt beam="1">  1        3 0.10046060E-01 0.94632348E+02</pdfrwt>
<pdfrwt beam="2">  1       -3 0.35623646E-01 0.94632348E+02</pdfrwt>
<totfact> 0.12275953E+03</totfact>
</mgrwt>
</event>
<event>
 6    1  0.1828142E-002  0.8619234E+02  0.7546771E-02  0.1423270E+00
          1   -1    0    0  501    0  0.00000000000E+00  0.00000000000E+00  0.31029891768E+02  0.31029891768E+02  0.00000000000E+00 0. -1.
         -1   -1    0    0    0  501 -0.00000000000E+00 -0.00000000000E+00 -0.98417437775E+02  0.98417437775E+02  0.00000000000E+00 0.  1.
         23    2    1    2    0    0 -0.11005826199E+02  0.80094902418E+01 -0.74644794200E+02  0.11402177297E+03  0.85110747064E+02 0.  0.
         13    1    3    3    0    0 -0.41576815724E+01  0.36992616411E+02 -0.75553955235E+02  0.84226718663E+02  0.00000000000E+00 0.  1.
        -13    1    3    3    0    0 -0.68481446262E+01 -0.28983126170E+02  0.90916103476E+00  0.29795054307E+02  0.00000000000E+00 0. -1.
         22    1    1    2    0    0  0.11005826199E+02 -0.80094902418E+01  0.72572481935E+01  0.15425556573E+02  0.00000000000E+00 0. -1.
<mgrwt>
<rscale>  0 0.54335055E+02</rscale>
<asrwt>0</asrwt>
<pdfrwt beam="1">  1        1 0.47738296E-02 0.86192340E+02</pdfrwt>
<pdfrwt beam="2">  1       -1 0.15141144E-01 0.86192340E+02</pdfrwt>
<totfact> 0.47953363E+04</totfact>
</mgrwt>
</event>
<event>
 6    1  0.1828142E-002  0.9382531E+02  0.7546771E-02  0.1365085E+00
         -1   -1    0    0    0  501 -0.00000000000E+00  0.00000000000E+00  0.51646561088E+02  0.51646561088E+02  0.00000000000E+00 0. -1.
          1   -1    0    0  501    0  0.00000000000E+00 -0.00000000000E+00 -0.16365301012E+03  0.16365301012E+03  0.00000000000E+00 0.  1.
         23    2    1    2    0    0  0.20451374641E+02  0.17224924616E+02  0.62736523284E+01  0.94034823112E+02  0.89934601192E+02 0.  0.
         11    1    3    3    0    0  0.20127639032E+02  0.15847667785E+02 -0.40129928490E+02  0.47609679560E+02  0.00000000000E+00 0.  1.
        -11    1    3    3    0    0  0.32373560915E+00  0.13772568310E+01  0.46403580818E+02  0.46425143552E+02  0.00000000000E+00 0. -1.
         22    1    1    2    0    0 -0.20451374641E+02 -0.17224924616E+02 -0.11828010136E+03  0.12126474809E+03  0.00000000000E+00 0.  1.
<mgrwt>
<rscale>  0 0.68552767E+02</rscale>
<asrwt>0</asrwt>
<pdfrwt beam="1">  1        1 0.25177386E-01 0.93825312E+02</pdfrwt>
<pdfrwt beam="2">  1       -1 0.79456249E-02 0.93825312E+02</pdfrwt>
<totfact> 0.14859720E+04</totfact>
</mgrwt>
</event>
<event>
 6    1  0.1828142E-002  0.9323841E+02  0.7546771E-02  0.1420565E+00
          4   -1    0    0  501    0  0.00000000000E+00  0.00000000000E+00  0.26132462981E+02  0.26132462981E+02  0.00000000000E+00 0. -1.
         -4   -1    0    0    0  501 -0.00000000000E+00 -0.00000000000E+00 -0.12496378267E+03  0.12496378267E+03  0.00000000000E+00 0.  1.
         23    2    1    2    0    0  0.12072447980E+01  0.11143544799E+02 -0.10318624441E+03  0.13907121343E+03  0.92562224151E+02 0.  0.
         11    1    3    3    0    0 -0.25379477876E+02  0.28718954112E+02 -0.99938307494E+02  0.10703532841E+03  0.00000000000E+00 0.  1.
        -11    1    3    3    0    0  0.26586722674E+02 -0.17575409314E+02 -0.32479369122E+01  0.32035885024E+02  0.00000000000E+00 0. -1.
         22    1    1    2    0    0 -0.12072447980E+01 -0.11143544799E+02  0.43549247145E+01  0.12025032223E+02  0.00000000000E+00 0.  1.
<mgrwt>
<rscale>  0 0.54901654E+02</rscale>
<asrwt>0</asrwt>
<pdfrwt beam="1">  1        4 0.40203789E-02 0.93238411E+02</pdfrwt>
<pdfrwt beam="2">  1       -4 0.19225197E-01 0.93238411E+02</pdfrwt>
<totfact> 0.11999969E+04</totfact>
</mgrwt>
</event>
<event>
 6    1  0.1828142E-002  0.9114153E+02  0.7546771E-02  0.1389219E+00
         -2   -1    0    0    0  501 -0.00000000000E+00  0.00000000000E+00  0.49056736031E+02  0.49056736031E+02  0.00000000000E+00 0.  1.
          2   -1    0    0  501    0  0.00000000000E+00 -0.00000000000E+00 -0.64391358622E+02  0.64391358622E+02  0.00000000000E+00 0. -1.
         23    2    1    2    0    0  0.11892422212E+02 -0.15636758701E+02 -0.50691085163E+01  0.91282384469E+02  0.88999100695E+02 0.  0.
         11    1    3    3    0    0  0.30737305430E+01 -0.28037940501E+02 -0.42425243910E+02  0.50945806970E+02  0.00000000000E+00 0. -1.
        -11    1    3    3    0    0  0.88186916692E+01  0.12401181799E+02  0.37356135394E+02  0.40336577499E+02  0.00000000000E+00 0.  1.
         22    1    1    2    0    0 -0.11892422212E+02  0.15636758701E+02 -0.10265514075E+02  0.22165710184E+02  0.00000000000E+00 0. -1.
<mgrwt>
<rscale>  0 0.62101474E+02</rscale>
<asrwt>0</asrwt>
<pdfrwt beam="1">  1        2 0.99063629E-02 0.91141527E+02</pdfrwt>
<pdfrwt beam="2">  1       -2 0.75471901E-02 0.91141527E+02</pdfrwt>
<totfact> 0.57627865E+04</totfact>
</mgrwt>
</event>
<event>
 6    1  0.1828142E-002  0.9208889E+02  0.7546771E-02  0.1403203E+00
         -3   -1    0    0    0  501 -0.00000000000E+00  0.00000000000E+00  0.51012749915E+02  0.51012749915E+02  0.00000000000E+00 0.  1.
          3   -1    0    0  501    0  0.00000000000E+00 -0.00000000000E+00 -0.77361920179E+02  0.77361920179E+02  0.00000000000E+00 0. -1.
         23    2    1    2    0    0 -0.70124596569E+01  0.13534166976E+02  0.63393729464E+01  0.92306829523E+02  0.90818582135E+02 0.  0.
         11    1    3    3    0    0  0.20996822984E+02  0.22976603935E+02 -0.31505061761E+02  0.44287242185E+02  0.00000000000E+00 0. -1.
        -11    1    3    3    0    0 -0.28009282641E+02 -0.94424369590E+01  0.37844434707E+02  0.48019587338E+02  0.00000000000E+00 0.  1.
         22    1    1    2    0    0  0.70124596569E+01 -0.13534166976E+02 -0.32688543211E+02  0.36067840570E+02  0.00000000000E+00 0.  1.
<mgrwt>
<rscale>  0 0.58738499E+02</rscale>
<asrwt>0</asrwt>
<pdfrwt beam="1">  1        3 0.11901834E-01 0.92088887E+02</pdfrwt>
<pdfrwt beam="2">  1       -3 0.78481154E-02 0.92088887E+02</pdfrwt>
<totfact> 0.12511031E+04</totfact>
</mgrwt>
</event>
<event>
 6    1  0.1828142E-002  0.9096758E+02  0.7546771E-02  0.1417608E+00
         -2   -1    0    0    0  501 -0.00000000000E+00  0.00000000000E+00  0.15012117264E+03  0.15012117264E+03  0.00000000000E+00 0.  1.
          2   -1    0    0  501    0  0.00000000000E+00 -0.00000000000E+00 -0.17944028214E+02  0.17944028214E+02  0.00000000000E+00 0. -1.
         23    2    1    2    0    0 -0.12265443202E+02  0.30189442992E+01  0.11932109512E+03  0.15004207334E+03  0.90086319214E+02 0.  0.
         11    1    3    3    0    0 -0.12066191830E+02 -0.34038671286E+02  0.14593413003E+02  0.38951146726E+02  0.00000000000E+00 0. -1.
        -11    1    3    3    0    0 -0.19925137267E+00  0.37057615585E+02  0.10472768212E+03  0.11109092662E+03  0.00000000000E+00 0.  1.
         22    1    1    2    0    0  0.12265443202E+02 -0.30189442992E+01  0.12856049299E+02  0.18023127509E+02  0.00000000000E+00 0.  1.
<mgrwt>
<rscale>  0 0.55530146E+02</rscale>
<asrwt>0</asrwt>
<pdfrwt beam="1">  1        2 0.27606198E-02 0.90967577E+02</pdfrwt>
<pdfrwt beam="2">  1       -2 0.23095564E-01 0.90967577E+02</pdfrwt>
<totfact> 0.49319935E+04</totfact>
</mgrwt>
</event>
<event>
 6    1  0.1828142E-002  0.1070910E+03  0.7546771E-02  0.1305677E+00
          1   -1    0    0  501    0  0.00000000000E+00  0.00000000000E+00  0.10218634478E+03  0.10218634478E+03  0.00000000000E+00 0. -1.
         -1   -1    0    0    0  501 -0.00000000000E+00 -0.00000000000E+00 -0.81359755138E+02  0.81359755138E+02  0.00000000000E+00 0.  1.
         23    2    1    2    0    0 -0.46529320503E+02  0.20204917170E+02 -0.30533040830E+02  0.11135864958E+03  0.94314717352E+02 0.  0.
         11    1    3    3    0    0 -0.69920833114E+02  0.33751462741E+02 -0.11947100444E+02  0.78554550152E+02  0.00000000000E+00 0.  1.
        -11    1    3    3    0    0  0.23391512611E+02 -0.13546545571E+02 -0.18585940386E+02  0.32804099426E+02  0.00000000000E+00 0. -1.
         22    1    1    2    0    0  0.46529320503E+02 -0.20204917170E+02  0.51359630470E+02  0.72187450338E+02  0.00000000000E+00 0. -1.
<mgrwt>
<rscale>  0 0.88843215E+02</rscale>
<asrwt>0</asrwt>
<pdfrwt beam="1">  1        1 0.15720976E-01 0.10709100E+03</pdfrwt>
<pdfrwt beam="2">  1       -1 0.12516885E-01 0.10709100E+03</pdfrwt>
<totfact> 0.13696469E+04</totfact>
</mgrwt>
</event>
<event>
 6    1  0.1828142E-002  0.9393369E+02  0.7546771E-02  0.1369639E+00
         -4   -1    0    0    0  501 -0.00000000000E+00  0.00000000000E+00  0.91570729750E+02  0.91570729750E+02  0.00000000000E+00 0.  1.
          4   -1    0    0  501    0  0.00000000000E+00 -0.00000000000E+00 -0.42268695506E+02  0.42268695506E+02  0.00000000000E+00 0. -1.
         23    2    1    2    0    0 -0.24615678596E+02  0.20802733850E+01  0.54494133615E+02  0.10859626646E+03  0.90627144501E+02 0.  0.
         11    1    3    3    0    0 -0.27223980792E+02  0.48210247711E+00 -0.20160152941E+02  0.33879334698E+02  0.00000000000E+00 0. -1.
        -11    1    3    3    0    0  0.26083021957E+01  0.15981709079E+01  0.74654286557E+02  0.74716931762E+02  0.00000000000E+00 0.  1.
         22    1    1    2    0    0  0.24615678596E+02 -0.20802733850E+01 -0.51920993714E+01  0.25243158796E+02  0.00000000000E+00 0. -1.
<mgrwt>
<rscale>  0 0.67267507E+02</rscale>
<asrwt>0</asrwt>
<pdfrwt beam="1">  1        4 0.65028762E-02 0.93933692E+02</pdfrwt>
<pdfrwt beam="2">  1       -4 0.14087805E-01 0.93933692E+02</pdfrwt>
<totfact> 0.96077211E+03</totfact>
</mgrwt>
</event>
<event>
 6    1  0.1828142E-002  0.1020210E+03  0.7546771E-02  0.1344646E+00
          2   -1    0    0  501    0  0.00000000000E+00  0.00000000000E+00  0.19042568310E+03  0.19042568310E+03  0.00000000000E+00 0. -1.
         -2   -1    0    0    0  501 -0.00000000000E+00 -0.00000000000E+00 -0.27301390493E+02  0.27301390493E+02  0.00000000000E+00 0.  1.
         23    2    1    2    0    0 -0.20028361248E+02 -0.21526190813E+02  0.80279688963E+02  0.12981950567E+03  0.97692187238E+02 0.  0.
         11    1    3    3    0    0 -0.47347903874E+02 -0.42078951751E+02  0.69356165190E+02  0.93929440707E+02  0.00000000000E+00 0. -1.
        -11    1    3    3    0    0  0.27319542626E+02  0.20552760938E+02  0.10923523774E+02  0.35890064964E+02  0.00000000000E+00 0.  1.
         22    1    1    2    0    0  0.20028361248E+02  0.21526190813E+02  0.82844603647E+02  0.87907567925E+02  0.00000000000E+00 0. -1.
<mgrwt>
<rscale>  0 0.74750385E+02</rscale>
<asrwt>0</asrwt>
<pdfrwt beam="1">  1        2 0.29296258E-01 0.10202096E+03</pdfrwt>
<pdfrwt beam="2">  1       -2 0.42002140E-02 0.10202096E+03</pdfrwt>
<totfact> 0.40800907E+04</totfact>
</mgrwt>
</event>
<event>
 6    1  0.1828142E-002  0.9211816E+02  0.7546771E-02  0.1403315E+00
          4   -1    0    0  501    0  0.00000000000E+00  0.00000000000E+00  0.15953475738E+03  0.15953475738E+03  0.00000000000E+00 0. -1.
         -4   -1    0    0    0  501 -0.00000000000E+00 -0.00000000000E+00 -0.20964018926E+02  0.20964018926E+02  0.00000000000E+00 0.  1.
         23    2    1    2    0    0  0.11683152764E+02 -0.97258637379E+01  0.86901623576E+02  0.12663983168E+03  0.90855194148E+02 0.  0.
         13    1    3    3    0    0  0.57002533065E+01  0.34601571991E+02  0.80423149535E+01  0.35978333784E+02  0.00000000000E+00 0.  1.
        -13    1    3    3    0    0  0.59828994576E+01 -0.44327435729E+02  0.78859308623E+02  0.90661497896E+02  0.00000000000E+00 0. -1.
         22    1    1    2    0    0 -0.11683152764E+02  0.97258637379E+01  0.51669114874E+02  0.53858944622E+02  0.00000000000E+00 0. -1.
<mgrwt>
<rscale>  0 0.58712587E+02</rscale>
<asrwt>0</asrwt>
<pdfrwt beam="1">  1        4 0.24543808E-01 0.92118157E+02</pdfrwt>
<pdfrwt beam="2">  1       -4 0.32252338E-02 0.92118157E+02</pdfrwt>
<totfact> 0.10878454E+04</totfact>
</mgrwt>
</event>
<event>
 6    1  0.1828142E-002  0.9276193E+02  0.7546771E-02  0.1412443E+00
          2   -1    0    0  501    0  0.00000000000E+00  0.00000000000E+00  0.48074118681E+03  0.48074118681E+03  0.00000000000E+00 0. -1.
         -2   -1    0    0    0  501 -0.00000000000E+00 -0.00000000000E+00 -0.63543510493E+01  0.63543510493E+01  0.00000000000E+00 0.  1.
         23    2    1    2    0    0 -0.10762833275E+02 -0.71206395134E+01  0.45044383437E+03  0.45989610031E+03  0.91859855623E+02 0.  0.
         11    1    3    3    0    0  0.30043400956E+02  0.23694386320E+02  0.25588318310E+03  0.25872810685E+03  0.00000000000E+00 0. -1.
        -11    1    3    3    0    0 -0.40806234232E+02 -0.30815025833E+02  0.19456065127E+03  0.20116799346E+03  0.00000000000E+00 0.  1.
         22    1    1    2    0    0  0.10762833275E+02  0.71206395134E+01  0.23943001394E+02  0.27199437548E+02  0.00000000000E+00 0.  1.
<mgrwt>
<rscale>  0 0.56652336E+02</rscale>
<asrwt>0</asrwt>
<pdfrwt beam="1">  1        2 0.73960154E-01 0.92761927E+02</pdfrwt>
<pdfrwt beam="2">  1       -2 0.97759285E-03 0.92761927E+02</pdfrwt>
<totfact> 0.12387115E+05</totfact>
</mgrwt>
</event>
<event>
 6    1  0.1828142E-002  0.9092176E+02  0.7546771E-02  0.1407766E+00
          2   -1    0    0  501    0  0.00000000000E+00  0.00000000000E+00  0.63939463792E+02  0.63939463792E+02  0.00000000000E+00 0. -1.
         -2   -1    0    0    0  501 -0.00000000000E+00 -0.00000000000E+00 -0.46518595234E+02  0.46518595234E+02  0.00000000000E+00 0.  1.
         23    2    1    2    0    0 -0.12626676539E+02  0.76090406755E+01  0.47948687927E+01  0.91048104609E+02  0.89718649821E+02 0.  0.
         13    1    3    3    0    0 -0.33230400367E+00 -0.59498175588E+01 -0.41156550349E+02  0.41585723411E+02  0.00000000000E+00 0.  1.
        -13    1    3    3    0    0 -0.12294372536E+02  0.13558858234E+02  0.45951419142E+02  0.49462381198E+02  0.00000000000E+00 0. -1.
         22    1    1    2    0    0  0.12626676539E+02 -0.76090406755E+01  0.12625999764E+02  0.19409954417E+02  0.00000000000E+00 0. -1.
<mgrwt>
<rscale>  0 0.57695369E+02</rscale>
<asrwt>0</asrwt>
<pdfrwt beam="1">  1        2 0.98368406E-02 0.90921761E+02</pdfrwt>
<pdfrwt beam="2">  1       -2 0.71567069E-02 0.90921761E+02</pdfrwt>
<totfact> 0.62986943E+04</totfact>
</mgrwt>
</event>
<event>
 6    1  0.1828142E-002  0.7891221E+02  0.7546771E-02  0.1434215E+00
         -2   -1    0    0    0  501 -0.00000000000E+00  0.00000000000E+00  0.24998166590E+02  0.24998166590E+02  0.00000000000E+00 0.  1.
          2   -1    0    0  501    0  0.00000000000E+00 -0.00000000000E+00 -0.95023771044E+02  0.95023771044E+02  0.00000000000E+00 0. -1.
         23    2    1    2    0    0  0.14250344417E+02  0.47485082415E+01 -0.45018476878E+02  0.90850426255E+02  0.77469452326E+02 0.  0.
         13    1    3    3    0    0  0.40917371960E+02 -0.12208113393E+02 -0.40638005448E+02  0.58946728896E+02  0.00000000000E+00 0. -1.
        -13    1    3    3    0    0 -0.26667027543E+02  0.16956621634E+02 -0.43804714308E+01  0.31903697359E+02  0.00000000000E+00 0.  1.
         22    1    1    2    0    0 -0.14250344417E+02 -0.47485082415E+01 -0.25007127576E+02  0.29171511378E+02  0.00000000000E+00 0.  1.
<mgrwt>
<rscale>  0 0.52123132E+02</rscale>
<asrwt>0</asrwt>
<pdfrwt beam="1">  1        2 0.14619042E-01 0.78912209E+02</pdfrwt>
<pdfrwt beam="2">  1       -2 0.38458717E-02 0.78912209E+02</pdfrwt>
<totfact> 0.97062593E+04</totfact>
</mgrwt>
</event>
<event>
 6    1  0.1828142E-002  0.9258382E+02  0.7546771E-02  0.1408880E+00
          2   -1    0    0  501    0  0.00000000000E+00  0.00000000000E+00  0.93583686005E+02  0.93583686005E+02  0.00000000000E+00 0. -1.
         -2   -1    0    0    0  501 -0.00000000000E+00 -0.00000000000E+00 -0.49024136098E+02  0.49024136098E+02  0.00000000000E+00 0.  1.
         23    2    1    2    0    0 -0.27653350475E+01  0.13439547704E+02 -0.34779711812E+01  0.92649119630E+02  0.91561425088E+02 0.  0.
         11    1    3    3    0    0  0.29606898146E+02 -0.22758889527E+02  0.15603917098E+02  0.40472431347E+02  0.00000000000E+00 0. -1.
        -11    1    3    3    0    0 -0.32372233194E+02  0.36198437231E+02 -0.19081888279E+02  0.52176688283E+02  0.00000000000E+00 0.  1.
         22    1    1    2    0    0  0.27653350475E+01 -0.13439547704E+02  0.48037521088E+02  0.49958702473E+02  0.00000000000E+00 0.  1.
<mgrwt>
<rscale>  0 0.57444509E+02</rscale>
<asrwt>0</asrwt>
<pdfrwt beam="1">  1        2 0.14397490E-01 0.92583817E+02</pdfrwt>
<pdfrwt beam="2">  1       -2 0.75421748E-02 0.92583817E+02</pdfrwt>
<totfact> 0.37070637E+04</totfact>
</mgrwt>
</event>
<event>
 6    1  0.1828142E-002  0.9393247E+02  0.7546771E-02  0.1376479E+00
          1   -1    0    0  501    0  0.00000000000E+00  0.00000000000E+00  0.13712672459E+02  0.13712672459E+02  0.00000000000E+00 0. -1.
         -1   -1    0    0    0  501 -0.00000000000E+00 -0.00000000000E+00 -0.25927787055E+03  0.25927787055E+03  0.00000000000E+00 0.  1.
         23    2    1    2    0    0  0.15887837494E+02 -0.15319872758E+02 -0.22001434791E+03  0.23922713342E+03  0.91302717377E+02 0.  0.
         13    1    3    3    0    0  0.11762055371E+02  0.16574773311E+02 -0.38525293838E+01  0.20686010720E+02  0.00000000000E+00 0. -1.
        -13    1    3    3    0    0  0.41257821234E+01 -0.31894646069E+02 -0.21616181852E+03  0.21854112270E+03  0.00000000000E+00 0.  1.
         22    1    1    2    0    0 -0.15887837494E+02  0.15319872758E+02 -0.25550850185E+02  0.33763409584E+02  0.00000000000E+00 0.  1.
<mgrwt>
<rscale>  0 0.65398306E+02</rscale>
<asrwt>0</asrwt>
<pdfrwt beam="1">  1        1 0.21096419E-02 0.93932466E+02</pdfrwt>
<pdfrwt beam="2">  1       -1 0.39888903E-01 0.93932466E+02</pdfrwt>
<totfact> 0.30585548E+04</totfact>
</mgrwt>
</event>
<event>
 6    1  0.1828142E-002  0.1061775E+03  0.7546771E-02  0.1306756E+00
         -1   -1    0    0    0  501 -0.00000000000E+00  0.00000000000E+00  0.44437451132E+02  0.44437451132E+02  0.00000000000E+00 0.  1.
          1   -1    0    0  501    0  0.00000000000E+00 -0.00000000000E+00 -0.20363268784E+03  0.20363268784E+03  0.00000000000E+00 0. -1.
         23    2    1    2    0    0 -0.27264057135E+02  0.43139823396E+02 -0.31806010078E+02  0.11083899005E+03  0.93109002053E+02 0.  0.
         11    1    3    3    0    0 -0.21551309954E+02 -0.24781197854E+02 -0.26988367725E+02  0.42508101820E+02  0.00000000000E+00 0. -1.
        -11    1    3    3    0    0 -0.57127471809E+01  0.67921021250E+02 -0.48176423528E+01  0.68330888227E+02  0.00000000000E+00 0.  1.
         22    1    1    2    0    0  0.27264057135E+02 -0.43139823396E+02 -0.12738922663E+03  0.13723114893E+03  0.00000000000E+00 0. -1.
<mgrwt>
<rscale>  0 0.88407120E+02</rscale>
<asrwt>0</asrwt>
<pdfrwt beam="1">  1        1 0.31328105E-01 0.10617749E+03</pdfrwt>
<pdfrwt beam="2">  1       -1 0.68365311E-02 0.10617749E+03</pdfrwt>
<totfact> 0.14364450E+04</totfact>
</mgrwt>
</event>
<event>
 6    1  0.1828142E-002  0.9511212E+02  0.7546771E-02  0.1362393E+00
          2   -1    0    0  501    0  0.00000000000E+00  0.00000000000E+00  0.22291754898E+02  0.22291754898E+02  0.00000000000E+00 0. -1.
         -2   -1    0    0    0  501 -0.00000000000E+00 -0.00000000000E+00 -0.16864826265E+03  0.16864826265E+03  0.00000000000E+00 0.  1.
         23    2    1    2    0    0  0.19384736706E+02  0.18576996820E+02 -0.12195763225E+03  0.15466085061E+03  0.91243859077E+02 0.  0.
         13    1    3    3    0    0  0.80327975038E+01 -0.17312036827E+02  0.69952122761E+01  0.20326471647E+02  0.00000000000E+00 0. -1.
        -13    1    3    3    0    0  0.11351939203E+02  0.35889033647E+02 -0.12895284453E+03  0.13433437896E+03  0.00000000000E+00 0.  1.
         22    1    1    2    0    0 -0.19384736706E+02 -0.18576996820E+02 -0.24398875502E+02  0.36279166939E+02  0.00000000000E+00 0.  1.
<mgrwt>
<rscale>  0 0.69328087E+02</rscale>
<asrwt>0</asrwt>
<pdfrwt beam="1">  1        2 0.34295006E-02 0.95112116E+02</pdfrwt>
<pdfrwt beam="2">  1       -2 0.25945888E-01 0.95112116E+02</pdfrwt>
<totfact> 0.30440218E+04</totfact>
</mgrwt>
</event>
<event>
 6    1  0.1828142E-002  0.9175519E+02  0.7546771E-02  0.1411919E+00
          2   -1    0    0  501    0  0.00000000000E+00  0.00000000000E+00  0.57541325831E+02  0.57541325831E+02  0.00000000000E+00 0. -1.
         -2   -1    0    0    0  501 -0.00000000000E+00 -0.00000000000E+00 -0.10975315647E+03  0.10975315647E+03  0.00000000000E+00 0.  1.
         23    2    1    2    0    0  0.12903797998E+02 -0.37714200425E+01 -0.89182633344E+02  0.12795529236E+03  0.90764988524E+02 0.  0.
         11    1    3    3    0    0  0.21926511400E+02 -0.58759154373E+01 -0.10618939839E+03  0.10858861181E+03  0.00000000000E+00 0.  1.
        -11    1    3    3    0    0 -0.90227134023E+01  0.21044953948E+01  0.17006765050E+02  0.19366680549E+02  0.00000000000E+00 0. -1.
         22    1    1    2    0    0 -0.12903797998E+02  0.37714200425E+01  0.36970802708E+02  0.39339189936E+02  0.00000000000E+00 0. -1.
<mgrwt>
<rscale>  0 0.56767823E+02</rscale>
<asrwt>0</asrwt>
<pdfrwt beam="1">  1        2 0.88525118E-02 0.91755189E+02</pdfrwt>
<pdfrwt beam="2">  1       -2 0.16885101E-01 0.91755189E+02</pdfrwt>
<totfact> 0.18611280E+04</totfact>
</mgrwt>
</event>
<event>
 6    1  0.1828142E-002  0.1007368E+03  0.7546771E-02  0.1325497E+00
          3   -1    0    0  501    0  0.00000000000E+00  0.00000000000E+00  0.27308965291E+02  0.27308965291E+02  0.00000000000E+00 0. -1.
         -3   -1    0    0    0  501 -0.00000000000E+00 -0.00000000000E+00 -0.29429266514E+03  0.29429266514E+03  0.00000000000E+00 0.  1.
         23    2    1    2    0    0  0.29918843269E+02 -0.30415983104E+02 -0.25939276271E+03  0.27826698451E+03  0.91255904519E+02 0.  0.
         11    1    3    3    0    0 -0.22758367190E+02 -0.17566524677E+02 -0.17902475391E+03  0.18131847280E+03  0.00000000000E+00 0.  1.
        -11    1    3    3    0    0  0.52677210459E+02 -0.12849458428E+02 -0.80368008803E+02  0.96948511709E+02  0.00000000000E+00 0. -1.
         22    1    1    2    0    0 -0.29918843269E+02  0.30415983104E+02 -0.75909371404E+01  0.43334645925E+02  0.00000000000E+00 0. -1.
<mgrwt>
<rscale>  0 0.81265866E+02</rscale>
<asrwt>0</asrwt>
<pdfrwt beam="1">  1        3 0.42013790E-02 0.10073683E+03</pdfrwt>
<pdfrwt beam="2">  1       -3 0.45275797E-01 0.10073683E+03</pdfrwt>
<totfact> 0.31543831E+03</totfact>
</mgrwt>
</event>
<event>
 6    1  0.1828142E-002  0.9515703E+02  0.7546771E-02  0.1379384E+00
          2   -1    0    0  501    0  0.00000000000E+00  0.00000000000E+00  0.23687107295E+03  0.23687107295E+03  0.00000000000E+00 0. -1.
         -2   -1    0    0    0  501 -0.00000000000E+00 -0.00000000000E+00 -0.16229494321E+02  0.16229494321E+02  0.00000000000E+00 0.  1.
         23    2    1    2    0    0 -0.66068138028E+01  0.19136115609E+02  0.13543422878E+03  0.16552126962E+03  0.92978596793E+02 0.  0.
         11    1    3    3    0    0 -0.12833306984E+02 -0.22935531837E+01  0.14173470965E+03  0.14233299713E+03  0.00000000000E+00 0. -1.
        -11    1    3    3    0    0  0.62264931807E+01  0.21429668792E+02 -0.63004808628E+01  0.23188272488E+02  0.00000000000E+00 0.  1.
         22    1    1    2    0    0  0.66068138028E+01 -0.19136115609E+02  0.85207349848E+02  0.87579297653E+02  0.00000000000E+00 0. -1.
<mgrwt>
<rscale>  0 0.64626044E+02</rscale>
<asrwt>0</asrwt>
<pdfrwt beam="1">  1        2 0.36441701E-01 0.95157030E+02</pdfrwt>
<pdfrwt beam="2">  1       -2 0.24968455E-02 0.95157030E+02</pdfrwt>
<totfact> 0.68533878E+04</totfact>
</mgrwt>
</event>
<event>
 6    1  0.1828142E-002  0.9415788E+02  0.7546771E-02  0.1365919E+00
          1   -1    0    0  501    0  0.00000000000E+00  0.00000000000E+00  0.64607642910E+02  0.64607642910E+02  0.00000000000E+00 0. -1.
         -1   -1    0    0    0  501 -0.00000000000E+00 -0.00000000000E+00 -0.56170895832E+02  0.56170895832E+02  0.00000000000E+00 0.  1.
         23    2    1    2    0    0 -0.24100507328E+02  0.99953214061E+01  0.34887645267E+01  0.94222495460E+02  0.90470803409E+02 0.  0.
         11    1    3    3    0    0  0.44954643301E+01  0.19027045758E+02  0.41459347880E+02  0.45837923126E+02  0.00000000000E+00 0. -1.
        -11    1    3    3    0    0 -0.28595971658E+02 -0.90317243522E+01 -0.37970583353E+02  0.48384572335E+02  0.00000000000E+00 0.  1.
         22    1    1    2    0    0  0.24100507328E+02 -0.99953214061E+01  0.49479825508E+01  0.26556043282E+02  0.00000000000E+00 0.  1.
<mgrwt>
<rscale>  0 0.68314870E+02</rscale>
<asrwt>0</asrwt>
<pdfrwt beam="1">  1        1 0.99396375E-02 0.94157884E+02</pdfrwt>
<pdfrwt beam="2">  1       -1 0.86416762E-02 0.94157884E+02</pdfrwt>
<totfact> 0.42909215E+04</totfact>
</mgrwt>
</event>
<event>
 6    1  0.1828142E-002  0.9162251E+02  0.7546771E-02  0.1408485E+00
          2   -1    0    0  501    0  0.00000000000E+00  0.00000000000E+00  0.75248592479E+02  0.75248592479E+02  0.00000000000E+00 0. -1.
         -2   -1    0    0    0  501 -0.00000000000E+00 -0.00000000000E+00 -0.51765273387E+02  0.51765273387E+02  0.00000000000E+00 0.  1.
         23    2    1    2    0    0 -0.12579848395E+02  0.66838295646E+01 -0.84857306021E+01  0.92014632993E+02  0.90508336068E+02 0.  0.
         11    1    3    3    0    0 -0.25268605501E+02 -0.37614061213E+02 -0.74622391848E+01  0.45923904870E+02  0.00000000000E+00 0. -1.
        -11    1    3    3    0    0  0.12688757106E+02  0.44297890778E+02 -0.10234914172E+01  0.46090728123E+02  0.00000000000E+00 0.  1.
         22    1    1    2    0    0  0.12579848395E+02 -0.66838295646E+01  0.31969049695E+02  0.34999232872E+02  0.00000000000E+00 0. -1.
<mgrwt>
<rscale>  0 0.57533250E+02</rscale>
<asrwt>0</asrwt>
<pdfrwt beam="1">  1        2 0.11576706E-01 0.91622514E+02</pdfrwt>
<pdfrwt beam="2">  1       -2 0.79638882E-02 0.91622514E+02</pdfrwt>
<totfact> 0.44049144E+04</totfact>
</mgrwt>
</event>
<event>
 6    1  0.1828142E-002  0.9231076E+02  0.7546771E-02  0.1389437E+00
          1   -1    0    0  501    0  0.00000000000E+00  0.00000000000E+00  0.12139990757E+02  0.12139990757E+02  0.00000000000E+00 0. -1.
         -1   -1    0    0    0  501 -0.00000000000E+00 -0.00000000000E+00 -0.25448403520E+03  0.25448403520E+03  0.00000000000E+00 0.  1.
         23    2    1    2    0    0 -0.17680209363E+02  0.65138595480E+01 -0.20275221832E+03  0.22277732865E+03  0.90367338985E+02 0.  0.
         13    1    3    3    0    0  0.66283495311E+01 -0.16028827964E+02 -0.12852297565E-01  0.17345273378E+02  0.00000000000E+00 0. -1.
        -13    1    3    3    0    0 -0.24308558894E+02  0.22542687512E+02 -0.20273936603E+03  0.20543205527E+03  0.00000000000E+00 0.  1.
         22    1    1    2    0    0  0.17680209363E+02 -0.65138595480E+01 -0.39591826116E+02  0.43846697305E+02  0.00000000000E+00 0. -1.
<mgrwt>
<rscale>  0 0.62047011E+02</rscale>
<asrwt>0</asrwt>
<pdfrwt beam="1">  1        1 0.18676910E-02 0.92310758E+02</pdfrwt>
<pdfrwt beam="2">  1       -1 0.39151388E-01 0.92310758E+02</pdfrwt>
<totfact> 0.37282500E+04</totfact>
</mgrwt>
</event>
<event>
 6    1  0.1828142E-002  0.9334850E+02  0.7546771E-02  0.1401375E+00
          2   -1    0    0  501    0  0.00000000000E+00  0.00000000000E+00  0.11516884541E+03  0.11516884541E+03  0.00000000000E+00 0. -1.
         -2   -1    0    0    0  501 -0.00000000000E+00 -0.00000000000E+00 -0.35374745222E+02  0.35374745222E+02  0.00000000000E+00 0.  1.
         23    2    1    2    0    0  0.36413432593E+01  0.14615971655E+02  0.29281948548E+02  0.97833406876E+02  0.92125224462E+02 0.  0.
         11    1    3    3    0    0  0.37374551675E+02  0.30350047717E+02  0.35862298481E+02  0.60034048353E+02  0.00000000000E+00 0. -1.
        -11    1    3    3    0    0 -0.33733208416E+02 -0.15734076062E+02 -0.65803499329E+01  0.37799358523E+02  0.00000000000E+00 0.  1.
         22    1    1    2    0    0 -0.36413432593E+01 -0.14615971655E+02  0.50512151638E+02  0.52710183753E+02  0.00000000000E+00 0.  1.
<mgrwt>
<rscale>  0 0.59163857E+02</rscale>
<asrwt>0</asrwt>
<pdfrwt beam="1">  1        2 0.17718284E-01 0.93348503E+02</pdfrwt>
<pdfrwt beam="2">  1       -2 0.54422686E-02 0.93348503E+02</pdfrwt>
<totfact> 0.47817907E+04</totfact>
</mgrwt>
</event>
<event>
 6    1  0.1828142E-002  0.6073738E+02  0.7546771E-02  0.1509071E+00
         -1   -1    0    0    0  501 -0.00000000000E+00  0.00000000000E+00  0.60036526337E+02  0.60036526337E+02  0.00000000000E+00 0.  1.
          1   -1    0    0  501    0  0.00000000000E+00 -0.00000000000E+00 -0.22144270100E+02  0.22144270100E+02  0.00000000000E+00 0. -1.
         23    2    1    2    0    0  0.14684054166E+01  0.11196877747E+02  0.36348351932E+02  0.70782992866E+02  0.59678330281E+02 0.  0.
         11    1    3    3    0    0  0.47664568344E+01  0.31710945910E+01  0.52306246191E+02  0.52618612127E+02  0.00000000000E+00 0.  1.
        -11    1    3    3    0    0 -0.32980514179E+01  0.80257831559E+01 -0.15957894259E+02  0.18164380738E+02  0.00000000000E+00 0. -1.
         22    1    1    2    0    0 -0.14684054166E+01 -0.11196877747E+02  0.15439043062E+01  0.11397803571E+02  0.00000000000E+00 0. -1.
<mgrwt>
<rscale>  0 0.39883385E+02</rscale>
<asrwt>0</asrwt>
<pdfrwt beam="1">  1        1 0.34068108E-02 0.60737381E+02</pdfrwt>
<pdfrwt beam="2">  1       -1 0.92363886E-02 0.60737381E+02</pdfrwt>
<totfact> 0.15056605E+05</totfact>
</mgrwt>
</event>
<event>
 6    1  0.1828142E-002  0.1083734E+03  0.7546771E-02  0.1295780E+00
          2   -1    0    0  501    0  0.00000000000E+00  0.00000000000E+00  0.96871136235E+02  0.96871136235E+02  0.00000000000E+00 0. -1.
         -2   -1    0    0    0  501 -0.00000000000E+00 -0.00000000000E+00 -0.75054592793E+02  0.75054592793E+02  0.00000000000E+00 0.  1.
         23    2    1    2    0    0  0.11237666889E+02  0.57648057650E+02 -0.23902356704E+01  0.10839973543E+03  0.91078019885E+02 0.  0.
         13    1    3    3    0    0 -0.77725869002E+01  0.22849235615E+02  0.42270839785E+02  0.48675708227E+02  0.00000000000E+00 0. -1.
        -13    1    3    3    0    0  0.19010253789E+02  0.34798822035E+02 -0.44661075455E+02  0.59724027200E+02  0.00000000000E+00 0.  1.
         22    1    1    2    0    0 -0.11237666889E+02 -0.57648057650E+02  0.24206779112E+02  0.63525993600E+02  0.00000000000E+00 0. -1.
<mgrwt>
<rscale>  0 0.92984979E+02</rscale>
<asrwt>0</asrwt>
<pdfrwt beam="1">  1        2 0.14903252E-01 0.10837338E+03</pdfrwt>
<pdfrwt beam="2">  1       -2 0.11546860E-01 0.10837338E+03</pdfrwt>
<totfact> 0.18735863E+04</totfact>
</mgrwt>
</event>
<event>
 6    1  0.1828142E-002  0.1145659E+03  0.7546771E-02  0.1373277E+00
         -2   -1    0    0    0  501 -0.00000000000E+00  0.00000000000E+00  0.18749602566E+03  0.18749602566E+03  0.00000000000E+00 0.  1.
          2   -1    0    0  501    0  0.00000000000E+00 -0.00000000000E+00 -0.21647837368E+02  0.21647837368E+02  0.00000000000E+00 0. -1.
         23    2    1    2    0    0  0.19795740396E+01 -0.12668274941E+02  0.15050802274E+03  0.18915074965E+03  0.11384611228E+03 0.  0.
         11    1    3    3    0    0 -0.61155935661E+01  0.25260350359E+02 -0.70178606836E+01  0.26920924083E+02  0.00000000000E+00 0. -1.
        -11    1    3    3    0    0  0.80951676058E+01 -0.37928625300E+02  0.15752588342E+03  0.16222982556E+03  0.00000000000E+00 0.  1.
         22    1    1    2    0    0 -0.19795740396E+01  0.12668274941E+02  0.15340165561E+02  0.19993113384E+02  0.00000000000E+00 0. -1.
<mgrwt>
<rscale>  0 0.66264434E+02</rscale>
<asrwt>0</asrwt>
<pdfrwt beam="1">  1        2 0.33304366E-02 0.11456588E+03</pdfrwt>
<pdfrwt beam="2">  1       -2 0.28845541E-01 0.11456588E+03</pdfrwt>
<totfact> 0.26896492E+04</totfact>
</mgrwt>
</event>
<event>
 6    1  0.1828142E-002  0.1063516E+03  0.7546771E-02  0.1334192E+00
         -1   -1    0    0    0  501 -0.00000000000E+00  0.00000000000E+00  0.22407097349E+02  0.22407097349E+02  0.00000000000E+00 0.  1.
          1   -1    0    0  501    0  0.00000000000E+00 -0.00000000000E+00 -0.22478123121E+03  0.22478123121E+03  0.00000000000E+00 0. -1.
         23    2    1    2    0    0  0.57170690990E+01 -0.30583526698E+02 -0.12702598465E+03  0.16566912484E+03  0.10169867829E+03 0.  0.
         13    1    3    3    0    0 -0.98346532495E+01 -0.33611032743E+02  0.25641559338E+01  0.35114054483E+02  0.00000000000E+00 0.  1.
        -13    1    3    3    0    0  0.15551722348E+02  0.30275060454E+01 -0.12959014058E+03  0.13055507036E+03  0.00000000000E+00 0. -1.
         22    1    1    2    0    0 -0.57170690990E+01  0.30583526698E+02 -0.75348149211E+02  0.81519203712E+02  0.00000000000E+00 0. -1.
<mgrwt>
<rscale>  0 0.78215792E+02</rscale>
<asrwt>0</asrwt>
<pdfrwt beam="1">  1        1 0.34581726E-01 0.10635158E+03</pdfrwt>
<pdfrwt beam="2">  1       -1 0.34472459E-02 0.10635158E+03</pdfrwt>
<totfact> 0.34779136E+04</totfact>
</mgrwt>
</event>
<event>
 6    1  0.1828142E-002  0.8761126E+02  0.7546771E-02  0.1416569E+00
         -1   -1    0    0    0  501 -0.00000000000E+00  0.00000000000E+00  0.10911443259E+03  0.10911443259E+03  0.00000000000E+00 0.  1.
          1   -1    0    0  501    0  0.00000000000E+00 -0.00000000000E+00 -0.34696076987E+02  0.34696076987E+02  0.00000000000E+00 0. -1.
         23    2    1    2    0    0 -0.13030490777E+02  0.60543462461E+01  0.87901623440E+02  0.12410651735E+03  0.86425016326E+02 0.  0.
         11    1    3    3    0    0 -0.18131734856E+02  0.34013793196E+02  0.80887490712E+01  0.39384334423E+02  0.00000000000E+00 0. -1.
        -11    1    3    3    0    0  0.51012440787E+01 -0.27959446949E+02  0.79812874369E+02  0.84722182927E+02  0.00000000000E+00 0.  1.
         22    1    1    2    0    0  0.13030490777E+02 -0.60543462461E+01 -0.13483267833E+02  0.19703992230E+02  0.00000000000E+00 0. -1.
<mgrwt>
<rscale>  0 0.55753415E+02</rscale>
<asrwt>0</asrwt>
<pdfrwt beam="1">  1        1 0.53378580E-02 0.87611256E+02</pdfrwt>
<pdfrwt beam="2">  1       -1 0.16786836E-01 0.87611256E+02</pdfrwt>
<totfact> 0.35215508E+04</totfact>
</mgrwt>
</event>
<event>
 6    1  0.1828142E-002  0.1279842E+03  0.7546771E-02  0.1248936E+00
          2   -1    0    0  501    0  0.00000000000E+00  0.00000000000E+00  0.97937042586E+03  0.97937042586E+03  0.00000000000E+00 0.  1.
         -2   -1    0    0    0  501 -0.00000000000E+00 -0.00000000000E+00 -0.16580627855E+02  0.16580627855E+02  0.00000000000E+00 0. -1.
         23    2    1    2    0    0 -0.41047316062E+02  0.77789665418E+02  0.80667066154E+03  0.81676037602E+03  0.92972261711E+02 0.  0.
         11    1    3    3    0    0 -0.29613193543E+02  0.80560221753E+01  0.66681127664E+02  0.73404451579E+02  0.00000000000E+00 0. -1.
        -11    1    3    3    0    0 -0.11434122520E+02  0.69733643242E+02  0.73998953388E+03  0.74335592444E+03  0.00000000000E+00 0.  1.
         22    1    1    2    0    0  0.41047316062E+02 -0.77789665418E+02  0.15611913647E+03  0.17919067770E+03  0.00000000000E+00 0. -1.
<mgrwt>
<rscale>  0 0.11652863E+03</rscale>
<asrwt>0</asrwt>
<pdfrwt beam="1">  1        2 0.15067233E+00 0.12798420E+03</pdfrwt>
<pdfrwt beam="2">  1       -2 0.25508666E-02 0.12798420E+03</pdfrwt>
<totfact> 0.13927214E+04</totfact>
</mgrwt>
</event>
<event>
 6    1  0.1828142E-002  0.9507033E+02  0.7546771E-02  0.1383241E+00
         -2   -1    0    0    0  501 -0.00000000000E+00  0.00000000000E+00  0.99514580413E+01  0.99514580413E+01  0.00000000000E+00 0.  1.
          2   -1    0    0  501    0  0.00000000000E+00 -0.00000000000E+00 -0.32732982359E+03  0.32732982359E+03  0.00000000000E+00 0. -1.
         23    2    1    2    0    0  0.10391318444E+02 -0.15983534672E+02 -0.26621552638E+03  0.28268193190E+03  0.93139225119E+02 0.  0.
         13    1    3    3    0    0  0.24491057865E+02  0.34692930482E+02 -0.11793100355E+03  0.12534405825E+03  0.00000000000E+00 0.  1.
        -13    1    3    3    0    0 -0.14099739421E+02 -0.50676465154E+02 -0.14828452284E+03  0.15733787365E+03  0.00000000000E+00 0. -1.
         22    1    1    2    0    0 -0.10391318444E+02  0.15983534672E+02 -0.51162839168E+02  0.54599349734E+02  0.00000000000E+00 0. -1.
<mgrwt>
<rscale>  0 0.63619430E+02</rscale>
<asrwt>0</asrwt>
<pdfrwt beam="1">  1        2 0.50358434E-01 0.95070333E+02</pdfrwt>
<pdfrwt beam="2">  1       -2 0.15309935E-02 0.95070333E+02</pdfrwt>
<totfact> 0.98595736E+04</totfact>
</mgrwt>
</event>
<event>
 6    1  0.1828142E-002  0.1155934E+03  0.7546771E-02  0.1295258E+00
          2   -1    0    0  501    0  0.00000000000E+00  0.00000000000E+00  0.10375608232E+03  0.10375608232E+03  0.00000000000E+00 0. -1.
         -2   -1    0    0    0  501 -0.00000000000E+00 -0.00000000000E+00 -0.72946396623E+02  0.72946396623E+02  0.00000000000E+00 0.  1.
         23    2    1    2    0    0  0.11787802763E+02 -0.47428894659E+02 -0.56464128222E+01  0.11573117863E+03  0.10475386096E+03 0.  0.
         11    1    3    3    0    0 -0.41713407606E+02  0.25102944246E+01 -0.78100975843E+01  0.42512440256E+02  0.00000000000E+00 0.  1.
        -11    1    3    3    0    0  0.53501210369E+02 -0.49939189083E+02  0.21636847621E+01  0.73218738374E+02  0.00000000000E+00 0. -1.
         22    1    1    2    0    0 -0.11787802763E+02  0.47428894659E+02  0.36456098515E+02  0.60971300310E+02  0.00000000000E+00 0.  1.
<mgrwt>
<rscale>  0 0.93210368E+02</rscale>
<asrwt>0</asrwt>
<pdfrwt beam="1">  1        2 0.15962474E-01 0.11559336E+03</pdfrwt>
<pdfrwt beam="2">  1       -2 0.11222523E-01 0.11559336E+03</pdfrwt>
<totfact> 0.18218357E+04</totfact>
</mgrwt>
</event>
<event>
 6    1  0.1828142E-002  0.9276267E+02  0.7546771E-02  0.1391215E+00
          2   -1    0    0  501    0  0.00000000000E+00  0.00000000000E+00  0.52065996210E+02  0.52065996210E+02  0.00000000000E+00 0. -1.
         -2   -1    0    0    0  501 -0.00000000000E+00 -0.00000000000E+00 -0.66874459709E+02  0.66874459709E+02  0.00000000000E+00 0.  1.
         23    2    1    2    0    0  0.35843919646E+01  0.17685564984E+02 -0.27646133279E+02  0.96794737599E+02  0.90990579001E+02 0.  0.
         13    1    3    3    0    0 -0.37416073314E+02 -0.13231912811E+02 -0.21332948215E+02  0.45057083111E+02  0.00000000000E+00 0. -1.
        -13    1    3    3    0    0  0.41000465279E+02  0.30917477795E+02 -0.63131850638E+01  0.51737654488E+02  0.00000000000E+00 0.  1.
         22    1    1    2    0    0 -0.35843919646E+01 -0.17685564984E+02  0.12837669780E+02  0.22145718321E+02  0.00000000000E+00 0.  1.
<mgrwt>
<rscale>  0 0.61605571E+02</rscale>
<asrwt>0</asrwt>
<pdfrwt beam="1">  1        2 0.80101533E-02 0.92762668E+02</pdfrwt>
<pdfrwt beam="2">  1       -2 0.10288378E-01 0.92762668E+02</pdfrwt>
<totfact> 0.46522766E+04</totfact>
</mgrwt>
</event>
<event>
 6    1  0.1828142E-002  0.8832055E+02  0.7546771E-02  0.1429723E+00
         -2   -1    0    0    0  501 -0.00000000000E+00  0.00000000000E+00  0.29480010887E+03  0.29480010887E+03  0.00000000000E+00 0. -1.
          2   -1    0    0  501    0  0.00000000000E+00 -0.00000000000E+00 -0.98633580335E+01  0.98633580335E+01  0.00000000000E+00 0.  1.
         23    2    1    2    0    0  0.10102233743E+02 -0.54247097675E+01  0.27694360147E+03  0.29068587628E+03  0.87573041948E+02 0.  0.
         11    1    3    3    0    0 -0.23825029090E+02  0.25197212221E+02  0.18249725040E+03  0.18576269248E+03  0.00000000000E+00 0. -1.
        -11    1    3    3    0    0  0.33927262834E+02 -0.30621921988E+02  0.94446351069E+02  0.10492318381E+03  0.00000000000E+00 0.  1.
         22    1    1    2    0    0 -0.10102233743E+02  0.54247097675E+01  0.79931493727E+01  0.13977590621E+02  0.00000000000E+00 0. -1.
<mgrwt>
<rscale>  0 0.53015746E+02</rscale>
<asrwt>0</asrwt>
<pdfrwt beam="1">  1        2 0.15174399E-02 0.88320554E+02</pdfrwt>
<pdfrwt beam="2">  1       -2 0.45353856E-01 0.88320554E+02</pdfrwt>
<totfact> 0.32429306E+04</totfact>
</mgrwt>
</event>
<event>
 6    1  0.1828142E-002  0.9072029E+02  0.7546771E-02  0.1398031E+00
         -2   -1    0    0    0  501 -0.00000000000E+00  0.00000000000E+00  0.17318277936E+03  0.17318277936E+03  0.00000000000E+00 0.  1.
          2   -1    0    0  501    0  0.00000000000E+00 -0.00000000000E+00 -0.20510950340E+02  0.20510950340E+02  0.00000000000E+00 0. -1.
         23    2    1    2    0    0  0.87517464355E+01 -0.14926348206E+02  0.15120032383E+03  0.17632841185E+03  0.89054937901E+02 0.  0.
         13    1    3    3    0    0 -0.10946323107E+02 -0.18695996509E+02  0.15449277759E+03  0.15600442495E+03  0.00000000000E+00 0.  1.
        -13    1    3    3    0    0  0.19698069542E+02  0.37696483029E+01 -0.32924537624E+01  0.20323986907E+02  0.00000000000E+00 0. -1.
         22    1    1    2    0    0 -0.87517464355E+01  0.14926348206E+02  0.14715051923E+01  0.17365317848E+02  0.00000000000E+00 0. -1.
<mgrwt>
<rscale>  0 0.59952568E+02</rscale>
<asrwt>0</asrwt>
<pdfrwt beam="1">  1        2 0.31555309E-02 0.90720289E+02</pdfrwt>
<pdfrwt beam="2">  1       -2 0.26643503E-01 0.90720289E+02</pdfrwt>
<totfact> 0.32242776E+04</totfact>
</mgrwt>
</event>
<event>
 6    1  0.1828142E-002  0.9201740E+02  0.7546771E-02  0.1412505E+00
          2   -1    0    0  501    0  0.00000000000E+00  0.00000000000E+00  0.52166552751E+02  0.52166552751E+02  0.00000000000E+00 0. -1.
         -2   -1    0    0    0  501 -0.00000000000E+00 -0.00000000000E+00 -0.64774963463E+02  0.64774963463E+02  0.00000000000E+00 0.  1.
         23    2    1    2    0    0  0.11461884222E+02  0.65635380453E+01 -0.28450844806E+02  0.96315378920E+02  0.91064520121E+02 0.  0.
         13    1    3    3    0    0 -0.34511207826E+02  0.41887990003E+01  0.10174845346E+02  0.36222879241E+02  0.00000000000E+00 0. -1.
        -13    1    3    3    0    0  0.45973092048E+02  0.23747390449E+01 -0.38625690153E+02  0.60092499680E+02  0.00000000000E+00 0.  1.
         22    1    1    2    0    0 -0.11461884222E+02 -0.65635380453E+01  0.15842434095E+02  0.20626137293E+02  0.00000000000E+00 0.  1.
<mgrwt>
<rscale>  0 0.56638642E+02</rscale>
<asrwt>0</asrwt>
<pdfrwt beam="1">  1        2 0.80256235E-02 0.92017399E+02</pdfrwt>
<pdfrwt beam="2">  1       -2 0.99653790E-02 0.92017399E+02</pdfrwt>
<totfact> 0.48721840E+04</totfact>
</mgrwt>
</event>
<event>
 6    1  0.1828142E-002  0.1104169E+03  0.7546771E-02  0.1292521E+00
          3   -1    0    0  501    0  0.00000000000E+00  0.00000000000E+00  0.67493789630E+02  0.67493789630E+02  0.00000000000E+00 0. -1.
         -3   -1    0    0    0  501 -0.00000000000E+00 -0.00000000000E+00 -0.12983495982E+03  0.12983495982E+03  0.00000000000E+00 0.  1.
         23    2    1    2    0    0  0.54985439875E+02  0.21401447217E+02 -0.79292819007E+02  0.13593836797E+03  0.93329889095E+02 0.  0.
         11    1    3    3    0    0  0.19896769834E+01  0.41021696240E+02 -0.32524582062E+01  0.41198505571E+02  0.00000000000E+00 0. -1.
        -11    1    3    3    0    0  0.52995762892E+02 -0.19620249023E+02 -0.76040360800E+02  0.94739862396E+02  0.00000000000E+00 0.  1.
         22    1    1    2    0    0 -0.54985439875E+02 -0.21401447217E+02  0.16951648814E+02  0.61390381484E+02  0.00000000000E+00 0. -1.
<mgrwt>
<rscale>  0 0.94405258E+02</rscale>
<asrwt>0</asrwt>
<pdfrwt beam="1">  1        3 0.10383660E-01 0.11041689E+03</pdfrwt>
<pdfrwt beam="2">  1       -3 0.19974609E-01 0.11041689E+03</pdfrwt>
<totfact> 0.34168173E+03</totfact>
</mgrwt>
</event>
<event>
 6    1  0.1828142E-002  0.9268381E+02  0.7546771E-02  0.1407995E+00
          2   -1    0    0  501    0  0.00000000000E+00  0.00000000000E+00  0.10602824272E+02  0.10602824272E+02  0.00000000000E+00 0. -1.
         -2   -1    0    0    0  501 -0.00000000000E+00 -0.00000000000E+00 -0.27891274894E+03  0.27891274894E+03  0.00000000000E+00 0.  1.
         23    2    1    2    0    0 -0.99569553212E+01  0.96520867630E+01 -0.24940564384E+03  0.26607041227E+03  0.91640522515E+02 0.  0.
         13    1    3    3    0    0 -0.18601971602E+01 -0.14432922036E+02 -0.23761214509E+03  0.23805734827E+03  0.00000000000E+00 0.  1.
        -13    1    3    3    0    0 -0.80967581610E+01  0.24085008799E+02 -0.11793498746E+02  0.28013063992E+02  0.00000000000E+00 0. -1.
         22    1    1    2    0    0  0.99569553212E+01 -0.96520867630E+01 -0.18904280834E+02  0.23445160950E+02  0.00000000000E+00 0. -1.
<mgrwt>
<rscale>  0 0.57643638E+02</rscale>
<asrwt>0</asrwt>
<pdfrwt beam="1">  1        2 0.16312040E-02 0.92683813E+02</pdfrwt>
<pdfrwt beam="2">  1       -2 0.42909647E-01 0.92683813E+02</pdfrwt>
<totfact> 0.32916987E+04</totfact>
</mgrwt>
</event>
<event>
 6    1  0.1828142E-002  0.1048299E+03  0.7546771E-02  0.1324866E+00
         -4   -1    0    0    0  501 -0.00000000000E+00  0.00000000000E+00  0.20302172157E+02  0.20302172157E+02  0.00000000000E+00 0.  1.
          4   -1    0    0  501    0  0.00000000000E+00 -0.00000000000E+00 -0.35577521050E+03  0.35577521050E+03  0.00000000000E+00 0. -1.
         23    2    1    2    0    0 -0.35351653919E+02 -0.14697455291E+02 -0.12967294274E+03  0.16674646287E+03  0.97588709262E+02 0.  0.
         11    1    3    3    0    0 -0.42982725213E+02 -0.47825174522E+02 -0.11014695448E+03  0.12754259511E+03  0.00000000000E+00 0. -1.
        -11    1    3    3    0    0  0.76310712936E+01  0.33127719231E+02 -0.19525988258E+02  0.39203867769E+02  0.00000000000E+00 0.  1.
         22    1    1    2    0    0  0.35351653919E+02  0.14697455291E+02 -0.20580009560E+03  0.20933091978E+03  0.00000000000E+00 0. -1.
<mgrwt>
<rscale>  0 0.81493239E+02</rscale>
<asrwt>0</asrwt>
<pdfrwt beam="1">  1        4 0.54734646E-01 0.10482991E+03</pdfrwt>
<pdfrwt beam="2">  1       -4 0.31234112E-02 0.10482991E+03</pdfrwt>
<totfact> 0.25142882E+03</totfact>
</mgrwt>
</event>
<event>
 6    1  0.1828142E-002  0.9490740E+02  0.7546771E-02  0.1397086E+00
         -2   -1    0    0    0  501 -0.00000000000E+00  0.00000000000E+00  0.26527897452E+02  0.26527897452E+02  0.00000000000E+00 0. -1.
          2   -1    0    0  501    0  0.00000000000E+00 -0.00000000000E+00 -0.16443316662E+03  0.16443316662E+03  0.00000000000E+00 0.  1.
         23    2    1    2    0    0  0.14764212016E+02 -0.41668082233E+01 -0.61638693570E+02  0.11316688177E+03  0.93659331283E+02 0.  0.
         13    1    3    3    0    0  0.51257863123E+02 -0.18938692128E+02 -0.28091132994E+02  0.61442284661E+02  0.00000000000E+00 0. -1.
        -13    1    3    3    0    0 -0.36493651106E+02  0.14771883904E+02 -0.33547560576E+02  0.51724597106E+02  0.00000000000E+00 0.  1.
         22    1    1    2    0    0 -0.14764212016E+02  0.41668082233E+01 -0.76266575595E+02  0.77794182303E+02  0.00000000000E+00 0.  1.
<mgrwt>
<rscale>  0 0.60178035E+02</rscale>
<asrwt>0</asrwt>
<pdfrwt beam="1">  1        2 0.25297411E-01 0.94907400E+02</pdfrwt>
<pdfrwt beam="2">  1       -2 0.40812149E-02 0.94907400E+02</pdfrwt>
<totfact> 0.49438040E+04</totfact>
</mgrwt>
</event>
<event>
 6    1  0.1828142E-002  0.9842318E+02  0.7546771E-02  0.1353085E+00
          3   -1    0    0  501    0  0.00000000000E+00  0.00000000000E+00  0.96166261179E+01  0.96166261179E+01  0.00000000000E+00 0. -1.
         -3   -1    0    0    0  501 -0.00000000000E+00 -0.00000000000E+00 -0.62904176896E+03  0.62904176896E+03  0.00000000000E+00 0.  1.
         23    2    1    2    0    0  0.26354578127E+02  0.10440900107E+02 -0.58863270688E+03  0.59680447894E+03  0.94252566528E+02 0.  0.
         13    1    3    3    0    0  0.33123708787E+02 -0.22071766607E+02 -0.10928977647E+03  0.11631250237E+03  0.00000000000E+00 0. -1.
        -13    1    3    3    0    0 -0.67691306602E+01  0.32512666714E+02 -0.47934293040E+03  0.48049197658E+03  0.00000000000E+00 0.  1.
         22    1    1    2    0    0 -0.26354578127E+02 -0.10440900107E+02 -0.30792435968E+02  0.41853916138E+02  0.00000000000E+00 0.  1.
<mgrwt>
<rscale>  0 0.72102684E+02</rscale>
<asrwt>0</asrwt>
<pdfrwt beam="1">  1        3 0.14794804E-02 0.98423181E+02</pdfrwt>
<pdfrwt beam="2">  1       -3 0.96775695E-01 0.98423181E+02</pdfrwt>
<totfact> 0.31654114E+03</totfact>
</mgrwt>
</event>
<event>
 6    1  0.1828142E-002  0.9309505E+02  0.7546771E-02  0.1418948E+00
          2   -1    0    0  501    0  0.00000000000E+00  0.00000000000E+00  0.21794823555E+03  0.21794823555E+03  0.00000000000E+00 0. -1.
         -2   -1    0    0    0  501 -0.00000000000E+00 -0.00000000000E+00 -0.13010254121E+02  0.13010254121E+02  0.00000000000E+00 0.  1.
         23    2    1    2    0    0  0.11544180723E+02  0.11914395572E-01  0.16573935867E+03  0.19009529992E+03  0.92376511020E+02 0.  0.
         11    1    3    3    0    0  0.72256959894E+01  0.45513097837E+02  0.67334510638E+02  0.81594050519E+02  0.00000000000E+00 0. -1.
        -11    1    3    3    0    0  0.43184847336E+01 -0.45501183442E+02  0.98404848031E+02  0.10850124940E+03  0.00000000000E+00 0.  1.
         22    1    1    2    0    0 -0.11544180723E+02 -0.11914395572E-01  0.39198622762E+02  0.40863189755E+02  0.00000000000E+00 0.  1.
<mgrwt>
<rscale>  0 0.55244084E+02</rscale>
<asrwt>0</asrwt>
<pdfrwt beam="1">  1        2 0.33530495E-01 0.93095048E+02</pdfrwt>
<pdfrwt beam="2">  1       -2 0.20015777E-02 0.93095048E+02</pdfrwt>
<totfact> 0.10263253E+05</totfact>
</mgrwt>
</event>
<event>
 6    1  0.1828142E-002  0.9246148E+02  0.7546771E-02  0.1382247E+00
          2   -1    0    0  501    0  0.00000000000E+00  0.00000000000E+00  0.21303097569E+03  0.21303097569E+03  0.00000000000E+00 0. -1.
         -2   -1    0    0    0  501 -0.00000000000E+00 -0.00000000000E+00 -0.19618169422E+02  0.19618169422E+02  0.00000000000E+00 0.  1.
         23    2    1    2    0    0 -0.13359762403E+01 -0.21019092052E+02  0.97178976500E+02  0.13413753638E+03  0.90030762128E+02 0.  0.
         11    1    3    3    0    0  0.28311273603E+02 -0.31728864979E+02  0.13337597125E+02  0.44566137178E+02  0.00000000000E+00 0.  1.
        -11    1    3    3    0    0 -0.29647249843E+02  0.10709772928E+02  0.83841379375E+02  0.89571399202E+02  0.00000000000E+00 0. -1.
         22    1    1    2    0    0  0.13359762403E+01  0.21019092052E+02  0.96233829771E+02  0.98511608735E+02  0.00000000000E+00 0. -1.
<mgrwt>
<rscale>  0 0.63876776E+02</rscale>
<asrwt>0</asrwt>
<pdfrwt beam="1">  1        2 0.32773995E-01 0.92461480E+02</pdfrwt>
<pdfrwt beam="2">  1       -2 0.30181801E-02 0.92461480E+02</pdfrwt>
<totfact> 0.58010364E+04</totfact>
</mgrwt>
</event>
<event>
 6    1  0.1828142E-002  0.9709590E+02  0.7546771E-02  0.1348722E+00
         -2   -1    0    0    0  501 -0.00000000000E+00  0.00000000000E+00  0.31787461451E+02  0.31787461451E+02  0.00000000000E+00 0. -1.
          2   -1    0    0  501    0  0.00000000000E+00 -0.00000000000E+00 -0.14751649879E+03  0.14751649879E+03  0.00000000000E+00 0.  1.
         23    2    1    2    0    0 -0.31759472652E+02  0.16960748013E+01 -0.57200333707E+02  0.11269202496E+03  0.91739160344E+02 0.  0.
         13    1    3    3    0    0  0.22330265075E+01 -0.20857447644E+02  0.17671467808E+02  0.27428093337E+02  0.00000000000E+00 0. -1.
        -13    1    3    3    0    0 -0.33992499160E+02  0.22553522446E+02 -0.74871801515E+02  0.85263931624E+02  0.00000000000E+00 0.  1.
         22    1    1    2    0    0  0.31759472652E+02 -0.16960748013E+01 -0.58528703635E+02  0.66611935283E+02  0.00000000000E+00 0.  1.
<mgrwt>
<rscale>  0 0.73455379E+02</rscale>
<asrwt>0</asrwt>
<pdfrwt beam="1">  1        2 0.22694846E-01 0.97095903E+02</pdfrwt>
<pdfrwt beam="2">  1       -2 0.48903787E-02 0.97095903E+02</pdfrwt>
<totfact> 0.42734505E+04</totfact>
</mgrwt>
</event>
<event>
 6    1  0.1828142E-002  0.9188874E+02  0.7546771E-02  0.1417907E+00
          2   -1    0    0  501    0  0.00000000000E+00  0.00000000000E+00  0.38739393522E+02  0.38739393522E+02  0.00000000000E+00 0. -1.
         -2   -1    0    0    0  501 -0.00000000000E+00 -0.00000000000E+00 -0.10540366626E+03  0.10540366626E+03  0.00000000000E+00 0.  1.
         23    2    1    2    0    0  0.73082234660E+01 -0.97675805971E+01 -0.82952681031E+02  0.12379292451E+03  0.91075381455E+02 0.  0.
         11    1    3    3    0    0 -0.30875278821E+02 -0.42110919938E+01 -0.79098510734E+02  0.85015237095E+02  0.00000000000E+00 0.  1.
        -11    1    3    3    0    0  0.38183502287E+02 -0.55564886033E+01 -0.38541702977E+01  0.38777687414E+02  0.00000000000E+00 0. -1.
         22    1    1    2    0    0 -0.73082234660E+01  0.97675805971E+01  0.16288408293E+02  0.20350135274E+02  0.00000000000E+00 0. -1.
<mgrwt>
<rscale>  0 0.55466127E+02</rscale>
<asrwt>0</asrwt>
<pdfrwt beam="1">  1        2 0.59599067E-02 0.91888742E+02</pdfrwt>
<pdfrwt beam="2">  1       -2 0.16215949E-01 0.91888742E+02</pdfrwt>
<totfact> 0.32628337E+04</totfact>
</mgrwt>
</event>
<event>
 6    1  0.1828142E-002  0.9297959E+02  0.7546771E-02  0.1397560E+00
          1   -1    0    0  501    0  0.00000000000E+00  0.00000000000E+00  0.12244347581E+03  0.12244347581E+03  0.00000000000E+00 0.  1.
         -1   -1    0    0    0  501 -0.00000000000E+00 -0.00000000000E+00 -0.27952713478E+02  0.27952713478E+02  0.00000000000E+00 0. -1.
         23    2    1    2    0    0  0.12453943644E+02  0.10348841716E+02  0.55762091775E+02  0.10841870532E+03  0.91558754617E+02 0.  0.
         11    1    3    3    0    0 -0.23986872447E+02  0.10001759369E+02 -0.14140946406E+02  0.29586679529E+02  0.00000000000E+00 0. -1.
        -11    1    3    3    0    0  0.36440816092E+02  0.34708234699E+00  0.69903038180E+02  0.78832025792E+02  0.00000000000E+00 0.  1.
         22    1    1    2    0    0 -0.12453943644E+02 -0.10348841716E+02  0.38728670555E+02  0.41977483966E+02  0.00000000000E+00 0. -1.
<mgrwt>
<rscale>  0 0.60064748E+02</rscale>
<asrwt>0</asrwt>
<pdfrwt beam="1">  1        1 0.18837457E-01 0.92979593E+02</pdfrwt>
<pdfrwt beam="2">  1       -1 0.43004175E-02 0.92979593E+02</pdfrwt>
<totfact> 0.52721489E+04</totfact>
</mgrwt>
</event>
<event>
 6    1  0.1828142E-002  0.8952663E+02  0.7546771E-02  0.1432263E+00
         -2   -1    0    0    0  501 -0.00000000000E+00  0.00000000000E+00  0.75416427828E+01  0.75416427828E+01  0.00000000000E+00 0.  1.
          2   -1    0    0  501    0  0.00000000000E+00 -0.00000000000E+00 -0.33239458030E+03  0.33239458030E+03  0.00000000000E+00 0. -1.
         23    2    1    2    0    0 -0.95009680675E+01  0.46865930175E+01 -0.28861095283E+03  0.30217759489E+03  0.88897605235E+02 0.  0.
         13    1    3    3    0    0  0.75661584873E+01 -0.39683628667E+02 -0.10475283322E+03  0.11227285160E+03  0.00000000000E+00 0. -1.
        -13    1    3    3    0    0 -0.17067126555E+02  0.44370221684E+02 -0.18385811960E+03  0.18990474329E+03  0.00000000000E+00 0.  1.
         22    1    1    2    0    0  0.95009680675E+01 -0.46865930175E+01 -0.36241984692E+02  0.37758628189E+02  0.00000000000E+00 0.  1.
<mgrwt>
<rscale>  0 0.52508428E+02</rscale>
<asrwt>0</asrwt>
<pdfrwt beam="1">  1        2 0.51137636E-01 0.89526626E+02</pdfrwt>
<pdfrwt beam="2">  1       -2 0.11602525E-02 0.89526626E+02</pdfrwt>
<totfact> 0.14267103E+05</totfact>
</mgrwt>
</event>
<event>
 6    1  0.1828142E-002  0.9470724E+02  0.7546771E-02  0.1373195E+00
         -1   -1    0    0    0  501 -0.00000000000E+00  0.00000000000E+00  0.75190322668E+02  0.75190322668E+02  0.00000000000E+00 0.  1.
          1   -1    0    0  501    0  0.00000000000E+00 -0.00000000000E+00 -0.12874150959E+03  0.12874150959E+03  0.00000000000E+00 0. -1.
         23    2    1    2    0    0 -0.21458523314E+02 -0.74892253636E+01  0.43525425669E+02  0.10423015007E+03  0.91939680140E+02 0.  0.
         11    1    3    3    0    0 -0.36888070675E+02 -0.29082256843E+02 -0.66758478683E+01  0.47445488362E+02  0.00000000000E+00 0.  1.
        -11    1    3    3    0    0  0.15429547361E+02  0.21593031479E+02  0.50201273538E+02  0.56784661706E+02  0.00000000000E+00 0. -1.
         22    1    1    2    0    0  0.21458523314E+02  0.74892253636E+01 -0.97076612588E+02  0.99701682187E+02  0.00000000000E+00 0. -1.
<mgrwt>
<rscale>  0 0.66286813E+02</rscale>
<asrwt>0</asrwt>
<pdfrwt beam="1">  1        1 0.19806386E-01 0.94707241E+02</pdfrwt>
<pdfrwt beam="2">  1       -1 0.11567742E-01 0.94707241E+02</pdfrwt>
<totfact> 0.11390061E+04</totfact>
</mgrwt>
</event>
<event>
 6    1  0.1828142E-002  0.1167133E+03  0.7546771E-02  0.1275043E+00
         -2   -1    0    0    0  501 -0.00000000000E+00  0.00000000000E+00  0.18779614477E+03  0.18779614477E+03  0.00000000000E+00 0.  1.
          2   -1    0    0  501    0  0.00000000000E+00 -0.00000000000E+00 -0.46191637446E+02  0.46191637446E+02  0.00000000000E+00 0. -1.
         23    2    1    2    0    0  0.70785188520E+01  0.69176360991E+02  0.90560061174E+02  0.14772649407E+03  0.93736428470E+02 0.  0.
         11    1    3    3    0    0  0.24699128986E+02 -0.97030778073E+01  0.25941904002E+00  0.26537972602E+02  0.00000000000E+00 0. -1.
        -11    1    3    3    0    0 -0.17620610134E+02  0.78879438799E+02  0.90300642134E+02  0.12118852147E+03  0.00000000000E+00 0.  1.
         22    1    1    2    0    0 -0.70785188520E+01 -0.69176360991E+02  0.51044446149E+02  0.86261288141E+02  0.00000000000E+00 0.  1.
<mgrwt>
<rscale>  0 0.10254043E+03</rscale>
<asrwt>0</asrwt>
<pdfrwt beam="1">  1        2 0.71064059E-02 0.11671329E+03</pdfrwt>
<pdfrwt beam="2">  1       -2 0.28891714E-01 0.11671329E+03</pdfrwt>
<totfact> 0.10031681E+04</totfact>
</mgrwt>
</event>
<event>
 6    1  0.1828142E-002  0.9618994E+02  0.7546771E-02  0.1357674E+00
          2   -1    0    0  501    0  0.00000000000E+00  0.00000000000E+00  0.35868410041E+03  0.35868410041E+03  0.00000000000E+00 0. -1.
         -2   -1    0    0    0  501 -0.00000000000E+00 -0.00000000000E+00 -0.12869939424E+02  0.12869939424E+02  0.00000000000E+00 0.  1.
         23    2    1    2    0    0 -0.26850335909E+02  0.82824551903E+01  0.18716570155E+03  0.21043646387E+03  0.91994379655E+02 0.  0.
         13    1    3    3    0    0 -0.55167687992E+02 -0.92358533166E+01  0.75831508517E+02  0.94229467094E+02  0.00000000000E+00 0.  1.
        -13    1    3    3    0    0  0.28317352083E+02  0.17518308507E+02  0.11133419303E+03  0.11620699678E+03  0.00000000000E+00 0. -1.
         22    1    1    2    0    0  0.26850335909E+02 -0.82824551903E+01  0.15864845943E+03  0.16111757596E+03  0.00000000000E+00 0. -1.
<mgrwt>
<rscale>  0 0.70716213E+02</rscale>
<asrwt>0</asrwt>
<pdfrwt beam="1">  1        2 0.55182162E-01 0.96189945E+02</pdfrwt>
<pdfrwt beam="2">  1       -2 0.19799910E-02 0.96189945E+02</pdfrwt>
<totfact> 0.62059395E+04</totfact>
</mgrwt>
</event>
<event>
 6    1  0.1828142E-002  0.9873813E+02  0.7546771E-02  0.1339013E+00
         -2   -1    0    0    0  501 -0.00000000000E+00  0.00000000000E+00  0.56761911563E+03  0.56761911563E+03  0.00000000000E+00 0. -1.
          2   -1    0    0  501    0  0.00000000000E+00 -0.00000000000E+00 -0.11198716279E+02  0.11198716279E+02  0.00000000000E+00 0.  1.
         23    2    1    2    0    0  0.35451403479E+02 -0.46017677022E+01  0.51374647013E+03  0.52314878746E+03  0.92039339290E+02 0.  0.
         11    1    3    3    0    0  0.42318442728E+02  0.28316907080E+02  0.42841712612E+03  0.43143241855E+03  0.00000000000E+00 0. -1.
        -11    1    3    3    0    0 -0.68670392487E+01 -0.32918674782E+02  0.85329344008E+02  0.91716368912E+02  0.00000000000E+00 0.  1.
         22    1    1    2    0    0 -0.35451403479E+02  0.46017677022E+01  0.42673929224E+02  0.55669044450E+02  0.00000000000E+00 0.  1.
<mgrwt>
<rscale>  0 0.76591241E+02</rscale>
<asrwt>0</asrwt>
<pdfrwt beam="1">  1        2 0.17228799E-02 0.98738130E+02</pdfrwt>
<pdfrwt beam="2">  1       -2 0.87325996E-01 0.98738130E+02</pdfrwt>
<totfact> 0.71640524E+03</totfact>
</mgrwt>
</event>
<event>
 6    1  0.1828142E-002  0.9514306E+02  0.7546771E-02  0.1356909E+00
         -2   -1    0    0    0  501 -0.00000000000E+00  0.00000000000E+00  0.47285974019E+02  0.47285974019E+02  0.00000000000E+00 0. -1.
          2   -1    0    0  501    0  0.00000000000E+00 -0.00000000000E+00 -0.82199916909E+02  0.82199916909E+02  0.00000000000E+00 0.  1.
         23    2    1    2    0    0 -0.28852817481E+02 -0.57174939942E+01 -0.24107539774E+02  0.98149759028E+02  0.90482191116E+02 0.  0.
         11    1    3    3    0    0  0.10016464122E+02  0.29967009004E+02  0.12446092135E+02  0.33959628850E+02  0.00000000000E+00 0. -1.
        -11    1    3    3    0    0 -0.38869281603E+02 -0.35684502998E+02 -0.36553631909E+02  0.64190130179E+02  0.00000000000E+00 0.  1.
         22    1    1    2    0    0  0.28852817481E+02  0.57174939942E+01 -0.10806403116E+02  0.31336131900E+02  0.00000000000E+00 0. -1.
<mgrwt>
<rscale>  0 0.70944841E+02</rscale>
<asrwt>0</asrwt>
<pdfrwt beam="1">  1        2 0.12646141E-01 0.95143059E+02</pdfrwt>
<pdfrwt beam="2">  1       -2 0.72747652E-02 0.95143059E+02</pdfrwt>
<totfact> 0.45756242E+04</totfact>
</mgrwt>
</event>
<event>
 6    1  0.1828142E-002  0.1041978E+03  0.7546771E-02  0.1310643E+00
          2   -1    0    0  501    0  0.00000000000E+00  0.00000000000E+00  0.66568134077E+02  0.66568134077E+02  0.00000000000E+00 0.  1.
         -2   -1    0    0    0  501 -0.00000000000E+00 -0.00000000000E+00 -0.17521867980E+03  0.17521867980E+03  0.00000000000E+00 0. -1.
         23    2    1    2    0    0  0.17243009015E+02  0.47264950555E+02 -0.14582819999E+03  0.17922904148E+03  0.91246306695E+02 0.  0.
         11    1    3    3    0    0 -0.25927193495E+02 -0.13167933601E+02 -0.31257633491E+02  0.42692546063E+02  0.00000000000E+00 0.  1.
        -11    1    3    3    0    0  0.43170202510E+02  0.60432884156E+02 -0.11457056650E+03  0.13653649541E+03  0.00000000000E+00 0. -1.
         22    1    1    2    0    0 -0.17243009015E+02 -0.47264950555E+02  0.37177654267E+02  0.62557772400E+02  0.00000000000E+00 0.  1.
<mgrwt>
<rscale>  0 0.86858406E+02</rscale>
<asrwt>0</asrwt>
<pdfrwt beam="1">  1        2 0.10241251E-01 0.10419782E+03</pdfrwt>
<pdfrwt beam="2">  1       -2 0.26956720E-01 0.10419782E+03</pdfrwt>
<totfact> 0.71376594E+03</totfact>
</mgrwt>
</event>
<event>
 6    1  0.1828142E-002  0.9782540E+02  0.7546771E-02  0.1360100E+00
         -1   -1    0    0    0  501 -0.00000000000E+00  0.00000000000E+00  0.40839974817E+03  0.40839974817E+03  0.00000000000E+00 0.  1.
          1   -1    0    0  501    0  0.00000000000E+00 -0.00000000000E+00 -0.12282517124E+02  0.12282517124E+02  0.00000000000E+00 0. -1.
         23    2    1    2    0    0 -0.14574500704E+02 -0.21099882322E+02  0.37473498448E+03  0.38729332142E+03  0.94404380836E+02 0.  0.
         13    1    3    3    0    0 -0.32931386020E+02 -0.35852331010E+02  0.34911981365E+03  0.35249753206E+03  0.00000000000E+00 0.  1.
        -13    1    3    3    0    0  0.18356885316E+02  0.14752448688E+02  0.25615170824E+02  0.34795789359E+02  0.00000000000E+00 0. -1.
         22    1    1    2    0    0  0.14574500704E+02  0.21099882322E+02  0.21382246574E+02  0.33388943879E+02  0.00000000000E+00 0. -1.
<mgrwt>
<rscale>  0 0.69998008E+02</rscale>
<asrwt>0</asrwt>
<pdfrwt beam="1">  1        1 0.18896183E-02 0.97825397E+02</pdfrwt>
<pdfrwt beam="2">  1       -1 0.62830720E-01 0.97825397E+02</pdfrwt>
<totfact> 0.15702970E+04</totfact>
</mgrwt>
</event>
<event>
 6    1  0.1828142E-002  0.9666911E+02  0.7546771E-02  0.1346784E+00
          2   -1    0    0  501    0  0.00000000000E+00  0.00000000000E+00  0.74359987311E+01  0.74359987311E+01  0.00000000000E+00 0. -1.
         -2   -1    0    0    0  501 -0.00000000000E+00 -0.00000000000E+00 -0.56948968241E+03  0.56948968241E+03  0.00000000000E+00 0.  1.
         23    2    1    2    0    0  0.32129149723E+02  0.88107161881E+01 -0.43033833028E+03  0.44106234796E+03  0.90746929973E+02 0.  0.
         11    1    3    3    0    0 -0.19762598707E+02  0.67642345653E+01 -0.30047517473E+03  0.30120034164E+03  0.00000000000E+00 0.  1.
        -11    1    3    3    0    0  0.51891748429E+02  0.20464816228E+01 -0.12986315555E+03  0.13986200632E+03  0.00000000000E+00 0. -1.
         22    1    1    2    0    0 -0.32129149723E+02 -0.88107161881E+01 -0.13171535340E+03  0.13586333318E+03  0.00000000000E+00 0.  1.
<mgrwt>
<rscale>  0 0.74067349E+02</rscale>
<asrwt>0</asrwt>
<pdfrwt beam="1">  1        2 0.11439999E-02 0.96669107E+02</pdfrwt>
<pdfrwt beam="2">  1       -2 0.87613790E-01 0.96669107E+02</pdfrwt>
<totfact> 0.12398782E+04</totfact>
</mgrwt>
</event>
<event>
 6    1  0.1828142E-002  0.9160530E+02  0.7546771E-02  0.1390316E+00
          1   -1    0    0  501    0  0.00000000000E+00  0.00000000000E+00  0.59950044198E+02  0.59950044198E+02  0.00000000000E+00 0. -1.
         -1   -1    0    0    0  501 -0.00000000000E+00 -0.00000000000E+00 -0.58768105304E+02  0.58768105304E+02  0.00000000000E+00 0.  1.
         23    2    1    2    0    0  0.13591146267E+02 -0.13291364598E+02 -0.16120626475E+02  0.93012928280E+02  0.89611107568E+02 0.  0.
         13    1    3    3    0    0  0.97802612316E+01  0.34101049011E+02  0.12386779708E+02  0.37576154207E+02  0.00000000000E+00 0. -1.
        -13    1    3    3    0    0  0.38108850358E+01 -0.47392413609E+02 -0.28507406183E+02  0.55436774074E+02  0.00000000000E+00 0.  1.
         22    1    1    2    0    0 -0.13591146267E+02  0.13291364598E+02  0.17302565368E+02  0.25705221222E+02  0.00000000000E+00 0. -1.
<mgrwt>
<rscale>  0 0.61828099E+02</rscale>
<asrwt>0</asrwt>
<pdfrwt beam="1">  1        1 0.92230837E-02 0.91605296E+02</pdfrwt>
<pdfrwt beam="2">  1       -1 0.90412470E-02 0.91605296E+02</pdfrwt>
<totfact> 0.44073470E+04</totfact>
</mgrwt>
</event>
<event>
 6    1  0.1828142E-002  0.9328970E+02  0.7546771E-02  0.1408864E+00
         -2   -1    0    0    0  501 -0.00000000000E+00  0.00000000000E+00  0.14205850185E+04  0.14205850185E+04  0.00000000000E+00 0.  1.
          2   -1    0    0  501    0  0.00000000000E+00 -0.00000000000E+00 -0.25831475222E+01  0.25831475222E+01  0.00000000000E+00 0. -1.
         23    2    1    2    0    0 -0.12171191207E+02  0.56422672030E+01  0.13740797995E+04  0.13772429938E+04  0.92320071964E+02 0.  0.
         11    1    3    3    0    0  0.27631787809E+01  0.47643987477E+02  0.80985640354E+03  0.81126135065E+03  0.00000000000E+00 0.  1.
        -11    1    3    3    0    0 -0.14934369988E+02 -0.42001720274E+02  0.56422339591E+03  0.56598164317E+03  0.00000000000E+00 0. -1.
         22    1    1    2    0    0  0.12171191207E+02 -0.56422672030E+01  0.43922071486E+02  0.45925172163E+02  0.00000000000E+00 0. -1.
<mgrwt>
<rscale>  0 0.57448174E+02</rscale>
<asrwt>0</asrwt>
<pdfrwt beam="1">  1        2 0.39740845E-03 0.93289703E+02</pdfrwt>
<pdfrwt beam="2">  1       -2 0.21855092E+00 0.93289703E+02</pdfrwt>
<totfact> 0.53153107E+03</totfact>
</mgrwt>
</event>
<event>
 6    1  0.1828142E-002  0.9256695E+02  0.7546771E-02  0.1376787E+00
         -2   -1    0    0    0  501 -0.00000000000E+00  0.00000000000E+00  0.15772855483E+02  0.15772855483E+02  0.00000000000E+00 0.  1.
          2   -1    0    0  501    0  0.00000000000E+00 -0.00000000000E+00 -0.25883305552E+03  0.25883305552E+03  0.00000000000E+00 0. -1.
         23    2    1    2    0    0 -0.20432955173E+02  0.10441395200E+02 -0.13213908778E+03  0.16133622603E+03  0.89677817310E+02 0.  0.
         11    1    3    3    0    0  0.22040757556E+02  0.79984450604E+01 -0.99973072735E+00  0.23468480534E+02  0.00000000000E+00 0.  1.
        -11    1    3    3    0    0 -0.42473712729E+02  0.24429501398E+01 -0.13113935705E+03  0.13786774549E+03  0.00000000000E+00 0. -1.
         22    1    1    2    0    0  0.20432955173E+02 -0.10441395200E+02 -0.11092111225E+03  0.11326968497E+03  0.00000000000E+00 0. -1.
<mgrwt>
<rscale>  0 0.65316014E+02</rscale>
<asrwt>0</asrwt>
<pdfrwt beam="1">  1        2 0.39820469E-01 0.92566945E+02</pdfrwt>
<pdfrwt beam="2">  1       -2 0.24265932E-02 0.92566945E+02</pdfrwt>
<totfact> 0.64807608E+04</totfact>
</mgrwt>
</event>
<event>
 6    1  0.1828142E-002  0.1342103E+03  0.7546771E-02  0.1235246E+00
          1   -1    0    0  501    0  0.00000000000E+00  0.00000000000E+00  0.33866345442E+03  0.33866345442E+03  0.00000000000E+00 0. -1.
         -1   -1    0    0    0  501 -0.00000000000E+00 -0.00000000000E+00 -0.42891515659E+02  0.42891515659E+02  0.00000000000E+00 0.  1.
         23    2    1    2    0    0 -0.59743480907E+02 -0.80972463871E+02  0.12535858850E+03  0.18364960541E+03  0.88806409913E+02 0.  0.
         13    1    3    3    0    0 -0.97824577283E+01 -0.40379305981E+00 -0.12786298548E+02  0.16104314907E+02  0.00000000000E+00 0.  1.
        -13    1    3    3    0    0 -0.49961023179E+02 -0.80568670812E+02  0.13814488705E+03  0.16754529051E+03  0.00000000000E+00 0. -1.
         22    1    1    2    0    0  0.59743480907E+02  0.80972463871E+02  0.17041335025E+03  0.19790536466E+03  0.00000000000E+00 0. -1.
<mgrwt>
<rscale>  0 0.12488726E+03</rscale>
<asrwt>0</asrwt>
<pdfrwt beam="1">  1        1 0.52102068E-01 0.13421029E+03</pdfrwt>
<pdfrwt beam="2">  1       -1 0.65986949E-02 0.13421029E+03</pdfrwt>
<totfact> 0.82441748E+03</totfact>
</mgrwt>
</event>
<event>
 6    1  0.1828142E-002  0.9297100E+02  0.7546771E-02  0.1379970E+00
         -2   -1    0    0    0  501 -0.00000000000E+00  0.00000000000E+00  0.36661146314E+03  0.36661146314E+03  0.00000000000E+00 0.  1.
          2   -1    0    0  501    0  0.00000000000E+00 -0.00000000000E+00 -0.10923375886E+02  0.10923375886E+02  0.00000000000E+00 0. -1.
         23    2    1    2    0    0 -0.20812450430E+02  0.53922755004E+01  0.33513434844E+03  0.34779108494E+03  0.90450939904E+02 0.  0.
         13    1    3    3    0    0 -0.16079334505E+02  0.34470337854E+02  0.29786551229E+03  0.30028421970E+03  0.00000000000E+00 0.  1.
        -13    1    3    3    0    0 -0.47331159251E+01 -0.29078062354E+02  0.37268836154E+02  0.47506865240E+02  0.00000000000E+00 0. -1.
         22    1    1    2    0    0  0.20812450430E+02 -0.53922755004E+01  0.20553738809E+02  0.29743754084E+02  0.00000000000E+00 0.  1.
<mgrwt>
<rscale>  0 0.64471601E+02</rscale>
<asrwt>0</asrwt>
<pdfrwt beam="1">  1        2 0.16805197E-02 0.92971002E+02</pdfrwt>
<pdfrwt beam="2">  1       -2 0.56401754E-01 0.92971002E+02</pdfrwt>
<totfact> 0.18523125E+04</totfact>
</mgrwt>
</event>
<event>
 6    1  0.1828142E-002  0.9252324E+02  0.7546771E-02  0.1418474E+00
          3   -1    0    0  501    0  0.00000000000E+00  0.00000000000E+00  0.51461658192E+01  0.51461658192E+01  0.00000000000E+00 0. -1.
         -3   -1    0    0    0  501 -0.00000000000E+00 -0.00000000000E+00 -0.60401521626E+03  0.60401521626E+03  0.00000000000E+00 0.  1.
         23    2    1    2    0    0 -0.11095393921E+02  0.41491424912E+01 -0.57622664430E+03  0.58360748403E+03  0.91761793053E+02 0.  0.
         11    1    3    3    0    0 -0.77301776872E+01  0.20157981053E+02 -0.29088604260E+02  0.36224946446E+02  0.00000000000E+00 0. -1.
        -11    1    3    3    0    0 -0.33652162334E+01 -0.16008838562E+02 -0.54713804004E+03  0.54738253758E+03  0.00000000000E+00 0.  1.
         22    1    1    2    0    0  0.11095393921E+02 -0.41491424912E+01 -0.22642406136E+02  0.25553898045E+02  0.00000000000E+00 0.  1.
<mgrwt>
<rscale>  0 0.55345114E+02</rscale>
<asrwt>0</asrwt>
<pdfrwt beam="1">  1        3 0.79171840E-03 0.92523239E+02</pdfrwt>
<pdfrwt beam="2">  1       -3 0.92925349E-01 0.92523239E+02</pdfrwt>
<totfact> 0.86504569E+03</totfact>
</mgrwt>
</event>
<event>
 6    1  0.1828142E-002  0.9324346E+02  0.7546771E-02  0.1413790E+00
          2   -1    0    0  501    0  0.00000000000E+00  0.00000000000E+00  0.11520537346E+03  0.11520537346E+03  0.00000000000E+00 0. -1.
         -2   -1    0    0    0  501 -0.00000000000E+00 -0.00000000000E+00 -0.31792068870E+02  0.31792068870E+02  0.00000000000E+00 0.  1.
         23    2    1    2    0    0 -0.27932441700E+01 -0.12125416579E+02  0.39342315422E+02  0.10120355599E+03  0.92409490970E+02 0.  0.
         11    1    3    3    0    0 -0.22482015963E+02 -0.38962186055E+02  0.49028902853E+02  0.66538156714E+02  0.00000000000E+00 0. -1.
        -11    1    3    3    0    0  0.19688771793E+02  0.26836769476E+02 -0.96865874312E+01  0.34665399272E+02  0.00000000000E+00 0.  1.
         22    1    1    2    0    0  0.27932441700E+01  0.12125416579E+02  0.44070989169E+02  0.45793886344E+02  0.00000000000E+00 0. -1.
<mgrwt>
<rscale>  0 0.56356620E+02</rscale>
<asrwt>0</asrwt>
<pdfrwt beam="1">  1        2 0.17723903E-01 0.93243455E+02</pdfrwt>
<pdfrwt beam="2">  1       -2 0.48910876E-02 0.93243455E+02</pdfrwt>
<totfact> 0.56030392E+04</totfact>
</mgrwt>
</event>
<event>
 6    1  0.1828142E-002  0.9485963E+02  0.7546771E-02  0.1392456E+00
          2   -1    0    0  501    0  0.00000000000E+00  0.00000000000E+00  0.92206249714E+01  0.92206249714E+01  0.00000000000E+00 0.  1.
         -2   -1    0    0    0  501 -0.00000000000E+00 -0.00000000000E+00 -0.35948594586E+03  0.35948594586E+03  0.00000000000E+00 0. -1.
         23    2    1    2    0    0 -0.10246628463E+02 -0.12986654557E+02 -0.32456083445E+03  0.33813915003E+03  0.93406118277E+02 0.  0.
         11    1    3    3    0    0 -0.23858020056E+02  0.13963927745E+02 -0.29358230322E+03  0.29488093388E+03  0.00000000000E+00 0. -1.
        -11    1    3    3    0    0  0.13611391594E+02 -0.26950582302E+02 -0.30978531227E+02  0.43258216150E+02  0.00000000000E+00 0.  1.
         22    1    1    2    0    0  0.10246628463E+02  0.12986654557E+02 -0.25704486434E+02  0.30567420799E+02  0.00000000000E+00 0. -1.
<mgrwt>
<rscale>  0 0.61299909E+02</rscale>
<asrwt>0</asrwt>
<pdfrwt beam="1">  1        2 0.14185576E-02 0.94859631E+02</pdfrwt>
<pdfrwt beam="2">  1       -2 0.55305535E-01 0.94859631E+02</pdfrwt>
<totfact> 0.24325358E+04</totfact>
</mgrwt>
</event>
<event>
 6    1  0.1828142E-002  0.9302537E+02  0.7546771E-02  0.1416576E+00
         -2   -1    0    0    0  501 -0.00000000000E+00  0.00000000000E+00  0.66764952748E+01  0.66764952748E+01  0.00000000000E+00 0.  1.
          2   -1    0    0  501    0  0.00000000000E+00 -0.00000000000E+00 -0.41737362248E+03  0.41737362248E+03  0.00000000000E+00 0. -1.
         23    2    1    2    0    0  0.11129662205E+02  0.44909627216E+01 -0.34827188033E+03  0.36048165408E+03  0.92247938570E+02 0.  0.
         11    1    3    3    0    0 -0.23147953517E+02  0.13107516474E+02 -0.29711039153E+03  0.29829887612E+03  0.00000000000E+00 0. -1.
        -11    1    3    3    0    0  0.34277615721E+02 -0.86165537524E+01 -0.51161488804E+02  0.62182777960E+02  0.00000000000E+00 0.  1.
         22    1    1    2    0    0 -0.11129662205E+02 -0.44909627216E+01 -0.62425246876E+02  0.63568463679E+02  0.00000000000E+00 0. -1.
<mgrwt>
<rscale>  0 0.55752039E+02</rscale>
<asrwt>0</asrwt>
<pdfrwt beam="1">  1        2 0.64211325E-01 0.93025374E+02</pdfrwt>
<pdfrwt beam="2">  1       -2 0.10271531E-02 0.93025374E+02</pdfrwt>
<totfact> 0.13432670E+05</totfact>
</mgrwt>
</event>
<event>
 6    1  0.1828142E-002  0.9561935E+02  0.7546771E-02  0.1365029E+00
         -1   -1    0    0    0  501 -0.00000000000E+00  0.00000000000E+00  0.28135166530E+02  0.28135166530E+02  0.00000000000E+00 0.  1.
          1   -1    0    0  501    0  0.00000000000E+00 -0.00000000000E+00 -0.14277667181E+03  0.14277667181E+03  0.00000000000E+00 0. -1.
         23    2    1    2    0    0 -0.20419108368E+02 -0.14913432758E+02 -0.66297890966E+02  0.11635493678E+03  0.92215565404E+02 0.  0.
         13    1    3    3    0    0 -0.29722723488E+02 -0.14390160111E+02  0.13746581771E+02  0.35769896700E+02  0.00000000000E+00 0.  1.
        -13    1    3    3    0    0  0.93036151196E+01 -0.52327264731E+00 -0.80044472737E+02  0.80585040078E+02  0.00000000000E+00 0. -1.
         22    1    1    2    0    0  0.20419108368E+02  0.14913432758E+02 -0.48343614317E+02  0.54556901565E+02  0.00000000000E+00 0. -1.
<mgrwt>
<rscale>  0 0.68568828E+02</rscale>
<asrwt>0</asrwt>
<pdfrwt beam="1">  1        1 0.21965642E-01 0.95619355E+02</pdfrwt>
<pdfrwt beam="2">  1       -1 0.43284871E-02 0.95619355E+02</pdfrwt>
<totfact> 0.43222927E+04</totfact>
</mgrwt>
</event>
<event>
 6    1  0.1828142E-002  0.9708064E+02  0.7546771E-02  0.1380512E+00
         -2   -1    0    0    0  501 -0.00000000000E+00  0.00000000000E+00  0.98349993779E+02  0.98349993779E+02  0.00000000000E+00 0. -1.
          2   -1    0    0  501    0  0.00000000000E+00 -0.00000000000E+00 -0.50398746518E+02  0.50398746518E+02  0.00000000000E+00 0.  1.
         23    2    1    2    0    0 -0.37177408132E+00  0.18713508025E+02  0.70104670829E+02  0.11974688218E+03  0.95259211213E+02 0.  0.
         13    1    3    3    0    0  0.46859837386E+02  0.12089088475E+02  0.26762698846E+02  0.55301288136E+02  0.00000000000E+00 0.  1.
        -13    1    3    3    0    0 -0.47231611467E+02  0.66244195501E+01  0.43341971983E+02  0.64445594043E+02  0.00000000000E+00 0. -1.
         22    1    1    2    0    0  0.37177408132E+00 -0.18713508025E+02 -0.22153423567E+02  0.29001858118E+02  0.00000000000E+00 0.  1.
<mgrwt>
<rscale>  0 0.64329430E+02</rscale>
<asrwt>0</asrwt>
<pdfrwt beam="1">  1        2 0.77536533E-02 0.97080641E+02</pdfrwt>
<pdfrwt beam="2">  1       -2 0.15130768E-01 0.97080641E+02</pdfrwt>
<totfact> 0.26396613E+04</totfact>
</mgrwt>
</event>
<event>
 6    1  0.1828142E-002  0.9461355E+02  0.7546771E-02  0.1408572E+00
          2   -1    0    0  501    0  0.00000000000E+00  0.00000000000E+00  0.28122368144E+02  0.28122368144E+02  0.00000000000E+00 0. -1.
         -2   -1    0    0    0  501 -0.00000000000E+00 -0.00000000000E+00 -0.15530618166E+03  0.15530618166E+03  0.00000000000E+00 0.  1.
         23    2    1    2    0    0 -0.12842032536E+02 -0.14063872710E+01 -0.13749246514E+03  0.16690087534E+03  0.93727415914E+02 0.  0.
         11    1    3    3    0    0  0.15575927827E+02 -0.35396051255E+02 -0.25130612092E+02  0.46119818259E+02  0.00000000000E+00 0. -1.
        -11    1    3    3    0    0 -0.28417960363E+02  0.33989663984E+02 -0.11236185305E+03  0.12078105708E+03  0.00000000000E+00 0.  1.
         22    1    1    2    0    0  0.12842032536E+02  0.14063872710E+01  0.10308651626E+02  0.16527674463E+02  0.00000000000E+00 0.  1.
<mgrwt>
<rscale>  0 0.57513614E+02</rscale>
<asrwt>0</asrwt>
<pdfrwt beam="1">  1        2 0.43265181E-02 0.94613552E+02</pdfrwt>
<pdfrwt beam="2">  1       -2 0.23893259E-01 0.94613552E+02</pdfrwt>
<totfact> 0.25861222E+04</totfact>
</mgrwt>
</event>
<event>
 6    1  0.1828142E-002  0.9256289E+02  0.7546771E-02  0.1427381E+00
          2   -1    0    0  501    0  0.00000000000E+00  0.00000000000E+00  0.27223544084E+02  0.27223544084E+02  0.00000000000E+00 0. -1.
         -2   -1    0    0    0  501 -0.00000000000E+00 -0.00000000000E+00 -0.12460588957E+03  0.12460588957E+03  0.00000000000E+00 0.  1.
         23    2    1    2    0    0  0.80177088153E+01  0.65006296505E+01 -0.10426436983E+03  0.13942362456E+03  0.91985577283E+02 0.  0.
         11    1    3    3    0    0 -0.36460563644E+02  0.11675685389E+02 -0.18162885586E+02  0.42374340625E+02  0.00000000000E+00 0. -1.
        -11    1    3    3    0    0  0.44478272460E+02 -0.51750557386E+01 -0.86101484242E+02  0.97049283931E+02  0.00000000000E+00 0.  1.
         22    1    1    2    0    0 -0.80177088153E+01 -0.65006296505E+01  0.68820243382E+01  0.12405809103E+02  0.00000000000E+00 0. -1.
<mgrwt>
<rscale>  0 0.53489396E+02</rscale>
<asrwt>0</asrwt>
<pdfrwt beam="1">  1        2 0.41882376E-02 0.92562888E+02</pdfrwt>
<pdfrwt beam="2">  1       -2 0.19170137E-01 0.92562888E+02</pdfrwt>
<totfact> 0.39062378E+04</totfact>
</mgrwt>
</event>
<event>
 6    1  0.1828142E-002  0.1007794E+03  0.7546771E-02  0.1324468E+00
          2   -1    0    0  501    0  0.00000000000E+00  0.00000000000E+00  0.10987646063E+03  0.10987646063E+03  0.00000000000E+00 0. -1.
         -2   -1    0    0    0  501 -0.00000000000E+00 -0.00000000000E+00 -0.47960591146E+02  0.47960591146E+02  0.00000000000E+00 0.  1.
         23    2    1    2    0    0  0.92957780502E+01 -0.42387896089E+02  0.51650219045E+02  0.11324412854E+03  0.90957914972E+02 0.  0.
         11    1    3    3    0    0 -0.34093474016E+02 -0.33538108006E+00  0.53405997835E+00  0.34099306020E+02  0.00000000000E+00 0.  1.
        -11    1    3    3    0    0  0.43389252066E+02 -0.42052515009E+02  0.51116159067E+02  0.79144822516E+02  0.00000000000E+00 0. -1.
         22    1    1    2    0    0 -0.92957780502E+01  0.42387896089E+02  0.10265650442E+02  0.44592923243E+02  0.00000000000E+00 0.  1.
<mgrwt>
<rscale>  0 0.81637426E+02</rscale>
<asrwt>0</asrwt>
<pdfrwt beam="1">  1        2 0.16904071E-01 0.10077940E+03</pdfrwt>
<pdfrwt beam="2">  1       -2 0.73785525E-02 0.10077940E+03</pdfrwt>
<totfact> 0.32189578E+04</totfact>
</mgrwt>
</event>
<event>
 6    1  0.1828142E-002  0.1218615E+03  0.7546771E-02  0.1260009E+00
          3   -1    0    0  501    0  0.00000000000E+00  0.00000000000E+00  0.75315657215E+01  0.75315657215E+01  0.00000000000E+00 0. -1.
         -3   -1    0    0    0  501 -0.00000000000E+00 -0.00000000000E+00 -0.13967363442E+04  0.13967363442E+04  0.00000000000E+00 0.  1.
         23    2    1    2    0    0  0.72341329248E+02 -0.38184477834E+02 -0.91152730239E+03  0.91963702623E+03  0.90326711151E+02 0.  0.
         13    1    3    3    0    0  0.44070415037E+02  0.24572553224E+02 -0.29558984949E+03  0.29986558818E+03  0.00000000000E+00 0.  1.
        -13    1    3    3    0    0  0.28270914212E+02 -0.62757031058E+02 -0.61593745291E+03  0.61977143806E+03  0.00000000000E+00 0. -1.
         22    1    1    2    0    0 -0.72341329248E+02  0.38184477834E+02 -0.47767747610E+03  0.48463088371E+03  0.00000000000E+00 0. -1.
<mgrwt>
<rscale>  0 0.11030343E+03</rscale>
<asrwt>0</asrwt>
<pdfrwt beam="1">  1        3 0.11587028E-02 0.12186155E+03</pdfrwt>
<pdfrwt beam="2">  1       -3 0.21488244E+00 0.12186155E+03</pdfrwt>
<totfact> 0.65594328E+02</totfact>
</mgrwt>
</event>
<event>
 6    1  0.1828142E-002  0.9567564E+02  0.7546771E-02  0.1380491E+00
         -1   -1    0    0    0  501 -0.00000000000E+00  0.00000000000E+00  0.51576523264E+03  0.51576523264E+03  0.00000000000E+00 0.  1.
          1   -1    0    0  501    0  0.00000000000E+00 -0.00000000000E+00 -0.73078933449E+01  0.73078933449E+01  0.00000000000E+00 0. -1.
         23    2    1    2    0    0  0.16523656031E+02 -0.10468149027E+02  0.47298933725E+03  0.48256889754E+03  0.93654761598E+02 0.  0.
         13    1    3    3    0    0 -0.26854788854E+00  0.15686997950E+01 -0.44276830967E+01  0.47050307778E+01  0.00000000000E+00 0. -1.
        -13    1    3    3    0    0  0.16792203919E+02 -0.12036848822E+02  0.47741702035E+03  0.47786386676E+03  0.00000000000E+00 0.  1.
         22    1    1    2    0    0 -0.16523656031E+02  0.10468149027E+02  0.35468002043E+02  0.40504228441E+02  0.00000000000E+00 0. -1.
<mgrwt>
<rscale>  0 0.64334813E+02</rscale>
<asrwt>0</asrwt>
<pdfrwt beam="1">  1        1 0.11242917E-02 0.95675638E+02</pdfrwt>
<pdfrwt beam="2">  1       -1 0.79348469E-01 0.95675638E+02</pdfrwt>
<totfact> 0.20337443E+04</totfact>
</mgrwt>
</event>
<event>
 6    1  0.1828142E-002  0.9437242E+02  0.7546771E-02  0.1425354E+00
          1   -1    0    0  501    0  0.00000000000E+00  0.00000000000E+00  0.43834984515E+01  0.43834984515E+01  0.00000000000E+00 0. -1.
         -1   -1    0    0    0  501 -0.00000000000E+00 -0.00000000000E+00 -0.63069082413E+03  0.63069082413E+03  0.00000000000E+00 0.  1.
         23    2    1    2    0    0 -0.75546037698E+01  0.66203928214E+01 -0.58499868385E+03  0.59256190641E+03  0.93836299906E+02 0.  0.
         11    1    3    3    0    0 -0.40190573745E+02  0.30415242061E+02 -0.40274099823E+03  0.40588259488E+03  0.00000000000E+00 0.  1.
        -11    1    3    3    0    0  0.32635969975E+02 -0.23794849239E+02 -0.18225768561E+03  0.18667931153E+03  0.00000000000E+00 0. -1.
         22    1    1    2    0    0  0.75546037698E+01 -0.66203928214E+01 -0.41308641831E+02  0.42512416177E+02  0.00000000000E+00 0.  1.
<mgrwt>
<rscale>  0 0.53904011E+02</rscale>
<asrwt>0</asrwt>
<pdfrwt beam="1">  1        1 0.67438476E-03 0.94372416E+02</pdfrwt>
<pdfrwt beam="2">  1       -1 0.97029302E-01 0.94372416E+02</pdfrwt>
<totfact> 0.27115959E+04</totfact>
</mgrwt>
</event>
<event>
 6    1  0.1828142E-002  0.9339637E+02  0.7546771E-02  0.1380995E+00
          1   -1    0    0  501    0  0.00000000000E+00  0.00000000000E+00  0.17221444047E+03  0.17221444047E+03  0.00000000000E+00 0. -1.
         -1   -1    0    0    0  501 -0.00000000000E+00 -0.00000000000E+00 -0.19385101665E+02  0.19385101665E+02  0.00000000000E+00 0.  1.
         23    2    1    2    0    0  0.69959063920E+01 -0.19647522053E+02  0.11266409270E+03  0.14634233471E+03  0.91037977329E+02 0.  0.
         13    1    3    3    0    0 -0.11088893828E+02 -0.31846435783E+02  0.22531133173E+01  0.33796975575E+02  0.00000000000E+00 0.  1.
        -13    1    3    3    0    0  0.18084800220E+02  0.12198913730E+02  0.11041097938E+03  0.11254535914E+03  0.00000000000E+00 0. -1.
         22    1    1    2    0    0 -0.69959063920E+01  0.19647522053E+02  0.40165246109E+02  0.45257207427E+02  0.00000000000E+00 0. -1.
<mgrwt>
<rscale>  0 0.64202897E+02</rscale>
<asrwt>0</asrwt>
<pdfrwt beam="1">  1        1 0.26494528E-01 0.93396366E+02</pdfrwt>
<pdfrwt beam="2">  1       -1 0.29823235E-02 0.93396366E+02</pdfrwt>
<totfact> 0.58557159E+04</totfact>
</mgrwt>
</event>
<event>
 6    1  0.1828142E-002  0.1153292E+03  0.7546771E-02  0.1275545E+00
         -2   -1    0    0    0  501 -0.00000000000E+00  0.00000000000E+00  0.50181931128E+03  0.50181931128E+03  0.00000000000E+00 0.  1.
          2   -1    0    0  501    0  0.00000000000E+00 -0.00000000000E+00 -0.17728935261E+02  0.17728935261E+02  0.00000000000E+00 0. -1.
         23    2    1    2    0    0  0.32361789390E+02  0.63622602538E+02  0.33395212204E+03  0.35330560378E+03  0.90585367898E+02 0.  0.
         13    1    3    3    0    0  0.41863637960E+02  0.17446534056E+02  0.59397618161E+02  0.74733009956E+02  0.00000000000E+00 0. -1.
        -13    1    3    3    0    0 -0.95018485705E+01  0.46176068482E+02  0.27455450388E+03  0.27857259382E+03  0.00000000000E+00 0.  1.
         22    1    1    2    0    0 -0.32361789390E+02 -0.63622602538E+02  0.15013825397E+03  0.16624264276E+03  0.00000000000E+00 0. -1.
<mgrwt>
<rscale>  0 0.10229369E+03</rscale>
<asrwt>0</asrwt>
<pdfrwt beam="1">  1        2 0.27275289E-02 0.11532922E+03</pdfrwt>
<pdfrwt beam="2">  1       -2 0.77202960E-01 0.11532922E+03</pdfrwt>
<totfact> 0.51247575E+03</totfact>
</mgrwt>
</event>
<event>
 6    1  0.1828142E-002  0.9756926E+02  0.7546771E-02  0.1359191E+00
         -2   -1    0    0    0  501 -0.00000000000E+00  0.00000000000E+00  0.77977606221E+02  0.77977606221E+02  0.00000000000E+00 0.  1.
          2   -1    0    0  501    0  0.00000000000E+00 -0.00000000000E+00 -0.53164255866E+02  0.53164255866E+02  0.00000000000E+00 0. -1.
         23    2    1    2    0    0  0.26069512128E+02  0.30256713160E+01  0.34018767104E+02  0.10332974518E+03  0.93973323733E+02 0.  0.
         13    1    3    3    0    0  0.14684430761E+02 -0.41845094910E+02  0.35813730877E+02  0.57002349023E+02  0.00000000000E+00 0. -1.
        -13    1    3    3    0    0  0.11385081367E+02  0.44870766226E+02 -0.17949637732E+01  0.46327396154E+02  0.00000000000E+00 0.  1.
         22    1    1    2    0    0 -0.26069512128E+02 -0.30256713160E+01 -0.92054167498E+01  0.27812116910E+02  0.00000000000E+00 0.  1.
<mgrwt>
<rscale>  0 0.70265857E+02</rscale>
<asrwt>0</asrwt>
<pdfrwt beam="1">  1        2 0.81791163E-02 0.97569256E+02</pdfrwt>
<pdfrwt beam="2">  1       -2 0.11996555E-01 0.97569256E+02</pdfrwt>
<totfact> 0.35850509E+04</totfact>
</mgrwt>
</event>
<event>
 6    1  0.1828142E-002  0.1017772E+03  0.7546771E-02  0.1392704E+00
          2   -1    0    0  501    0  0.00000000000E+00  0.00000000000E+00  0.12983442965E+03  0.12983442965E+03  0.00000000000E+00 0. -1.
         -2   -1    0    0    0  501 -0.00000000000E+00 -0.00000000000E+00 -0.27696544684E+02  0.27696544684E+02  0.00000000000E+00 0.  1.
         23    2    1    2    0    0 -0.13319105393E+02  0.75151109339E+00  0.72290385702E+02  0.12483790856E+03  0.10089915863E+03 0.  0.
         13    1    3    3    0    0 -0.35500953413E+02 -0.15614279290E+02  0.85786282345E+02  0.94145683117E+02  0.00000000000E+00 0. -1.
        -13    1    3    3    0    0  0.22181848020E+02  0.16365790383E+02 -0.13495896643E+02  0.30692225443E+02  0.00000000000E+00 0.  1.
         22    1    1    2    0    0  0.13319105393E+02 -0.75151109339E+00  0.29847499265E+02  0.32693065775E+02  0.00000000000E+00 0.  1.
<mgrwt>
<rscale>  0 0.61239167E+02</rscale>
<asrwt>0</asrwt>
<pdfrwt beam="1">  1        2 0.19974527E-01 0.10177723E+03</pdfrwt>
<pdfrwt beam="2">  1       -2 0.42610069E-02 0.10177723E+03</pdfrwt>
<totfact> 0.60792425E+04</totfact>
</mgrwt>
</event>
<event>
 6    1  0.1828142E-002  0.9276931E+02  0.7546771E-02  0.1397374E+00
          2   -1    0    0  501    0  0.00000000000E+00  0.00000000000E+00  0.10141754833E+02  0.10141754833E+02  0.00000000000E+00 0. -1.
         -2   -1    0    0    0  501 -0.00000000000E+00 -0.00000000000E+00 -0.32283767566E+03  0.32283767566E+03  0.00000000000E+00 0.  1.
         23    2    1    2    0    0  0.16345007830E+02  0.45301059957E+00 -0.29324291930E+03  0.30756715456E+03  0.91316922568E+02 0.  0.
         13    1    3    3    0    0  0.22740380257E+02  0.35797045379E+02 -0.23748424353E+03  0.24124120559E+03  0.00000000000E+00 0.  1.
        -13    1    3    3    0    0 -0.63953724274E+01 -0.35344034779E+02 -0.55758675771E+02  0.66325948969E+02  0.00000000000E+00 0. -1.
         22    1    1    2    0    0 -0.16345007830E+02 -0.45301059957E+00 -0.19453001531E+02  0.25412275934E+02  0.00000000000E+00 0. -1.
<mgrwt>
<rscale>  0 0.60109237E+02</rscale>
<asrwt>0</asrwt>
<pdfrwt beam="1">  1        2 0.15602697E-02 0.92769310E+02</pdfrwt>
<pdfrwt beam="2">  1       -2 0.49667345E-01 0.92769310E+02</pdfrwt>
<totfact> 0.26365378E+04</totfact>
</mgrwt>
</event>
<event>
 6    1  0.1828142E-002  0.9468011E+02  0.7546771E-02  0.1366139E+00
         -2   -1    0    0    0  501 -0.00000000000E+00  0.00000000000E+00  0.92409013404E+01  0.92409013404E+01  0.00000000000E+00 0.  1.
          2   -1    0    0  501    0  0.00000000000E+00 -0.00000000000E+00 -0.39535724084E+03  0.39535724084E+03  0.00000000000E+00 0. -1.
         23    2    1    2    0    0 -0.40933904087E+01 -0.25238122650E+02 -0.31989829735E+03  0.33361541339E+03  0.91162518210E+02 0.  0.
         13    1    3    3    0    0 -0.16274508829E+02 -0.12671279126E+02 -0.94729374335E+01  0.22697081220E+02  0.00000000000E+00 0.  1.
        -13    1    3    3    0    0  0.12181118420E+02 -0.12566843525E+02 -0.31042535992E+03  0.31091833217E+03  0.00000000000E+00 0. -1.
         22    1    1    2    0    0  0.40933904087E+01  0.25238122650E+02 -0.66218042156E+02  0.70982728793E+02  0.00000000000E+00 0.  1.
<mgrwt>
<rscale>  0 0.68252400E+02</rscale>
<asrwt>0</asrwt>
<pdfrwt beam="1">  1        2 0.60824215E-01 0.94680111E+02</pdfrwt>
<pdfrwt beam="2">  1       -2 0.14216766E-02 0.94680111E+02</pdfrwt>
<totfact> 0.89835246E+04</totfact>
</mgrwt>
</event>
<event>
 6    1  0.1828142E-002  0.9056403E+02  0.7546771E-02  0.1382904E+00
          2   -1    0    0  501    0  0.00000000000E+00  0.00000000000E+00  0.94867021635E+02  0.94867021635E+02  0.00000000000E+00 0. -1.
         -2   -1    0    0    0  501 -0.00000000000E+00 -0.00000000000E+00 -0.47638802521E+02  0.47638802521E+02  0.00000000000E+00 0.  1.
         23    2    1    2    0    0  0.18306276887E+02 -0.12514704678E+02  0.25828867124E+00  0.90564395869E+02  0.87807206307E+02 0.  0.
         11    1    3    3    0    0  0.39193721503E+02 -0.11035516904E+02  0.32514916141E+02  0.52107103261E+02  0.00000000000E+00 0. -1.
        -11    1    3    3    0    0 -0.20887444616E+02 -0.14791877740E+01 -0.32256627469E+02  0.38457292608E+02  0.00000000000E+00 0.  1.
         22    1    1    2    0    0 -0.18306276887E+02  0.12514704678E+02  0.46969930443E+02  0.51941428287E+02  0.00000000000E+00 0. -1.
<mgrwt>
<rscale>  0 0.63706460E+02</rscale>
<asrwt>0</asrwt>
<pdfrwt beam="1">  1        2 0.14594926E-01 0.90564028E+02</pdfrwt>
<pdfrwt beam="2">  1       -2 0.73290465E-02 0.90564028E+02</pdfrwt>
<totfact> 0.38007212E+04</totfact>
</mgrwt>
</event>
<event>
 6    1  0.1828142E-002  0.9291296E+02  0.7546771E-02  0.1406447E+00
          2   -1    0    0  501    0  0.00000000000E+00  0.00000000000E+00  0.34890602260E+02  0.34890602260E+02  0.00000000000E+00 0. -1.
         -2   -1    0    0    0  501 -0.00000000000E+00 -0.00000000000E+00 -0.12522410183E+03  0.12522410183E+03  0.00000000000E+00 0.  1.
         23    2    1    2    0    0  0.11297804680E+02 -0.84411591074E+01 -0.10470073621E+03  0.13998236577E+03  0.91836403494E+02 0.  0.
         11    1    3    3    0    0  0.42162046320E+02 -0.15112130717E+02 -0.97932248174E+02  0.10768816034E+03  0.00000000000E+00 0.  1.
        -11    1    3    3    0    0 -0.30864241640E+02  0.66709716091E+01 -0.67684880342E+01  0.32294205432E+02  0.00000000000E+00 0. -1.
         22    1    1    2    0    0 -0.11297804680E+02  0.84411591074E+01  0.14367236637E+02  0.20132338320E+02  0.00000000000E+00 0. -1.
<mgrwt>
<rscale>  0 0.57994234E+02</rscale>
<asrwt>0</asrwt>
<pdfrwt beam="1">  1        2 0.53677850E-02 0.92912962E+02</pdfrwt>
<pdfrwt beam="2">  1       -2 0.19265246E-01 0.92912962E+02</pdfrwt>
<totfact> 0.28108528E+04</totfact>
</mgrwt>
</event>
<event>
 6    1  0.1828142E-002  0.9358256E+02  0.7546771E-02  0.1413915E+00
         -1   -1    0    0    0  501 -0.00000000000E+00  0.00000000000E+00  0.18080045768E+03  0.18080045768E+03  0.00000000000E+00 0.  1.
          1   -1    0    0  501    0  0.00000000000E+00 -0.00000000000E+00 -0.25162987187E+02  0.25162987187E+02  0.00000000000E+00 0. -1.
         23    2    1    2    0    0  0.80705997524E+01  0.92612959216E+01  0.16555590287E+03  0.19017479440E+03  0.92772783012E+02 0.  0.
         11    1    3    3    0    0 -0.16012318452E+02  0.51645466719E+01 -0.52547582518E+01  0.17626099081E+02  0.00000000000E+00 0. -1.
        -11    1    3    3    0    0  0.24082918205E+02  0.40967492498E+01  0.17081066112E+03  0.17254869532E+03  0.00000000000E+00 0.  1.
         22    1    1    2    0    0 -0.80705997524E+01 -0.92612959216E+01 -0.99184323810E+01  0.15788650462E+02  0.00000000000E+00 0. -1.
<mgrwt>
<rscale>  0 0.56329328E+02</rscale>
<asrwt>0</asrwt>
<pdfrwt beam="1">  1        1 0.38712289E-02 0.93582560E+02</pdfrwt>
<pdfrwt beam="2">  1       -1 0.27815454E-01 0.93582560E+02</pdfrwt>
<totfact> 0.24442244E+04</totfact>
</mgrwt>
</event>
<event>
 6    1  0.1828142E-002  0.1079291E+03  0.7546771E-02  0.1392487E+00
         -2   -1    0    0    0  501 -0.00000000000E+00  0.00000000000E+00  0.21176297648E+02  0.21176297648E+02  0.00000000000E+00 0.  1.
          2   -1    0    0  501    0  0.00000000000E+00 -0.00000000000E+00 -0.18898407292E+03  0.18898407292E+03  0.00000000000E+00 0. -1.
         23    2    1    2    0    0 -0.98497053418E+01 -0.53850118966E+01 -0.12151355223E+03  0.16252456328E+03  0.10734372477E+03 0.  0.
         13    1    3    3    0    0  0.61378225715E+01  0.36644660829E+02 -0.11000102196E+03  0.11610654101E+03  0.00000000000E+00 0. -1.
        -13    1    3    3    0    0 -0.15987527913E+02 -0.42029672726E+02 -0.11512530264E+02  0.46418022268E+02  0.00000000000E+00 0.  1.
         22    1    1    2    0    0  0.98497053418E+01  0.53850118966E+01 -0.46294223047E+02  0.47635807288E+02  0.00000000000E+00 0.  1.
<mgrwt>
<rscale>  0 0.61292412E+02</rscale>
<asrwt>0</asrwt>
<pdfrwt beam="1">  1        2 0.29074473E-01 0.10792910E+03</pdfrwt>
<pdfrwt beam="2">  1       -2 0.32578919E-02 0.10792910E+03</pdfrwt>
<totfact> 0.60217047E+04</totfact>
</mgrwt>
</event>
<event>
 6    1  0.1828142E-002  0.9870777E+02  0.7546771E-02  0.1330772E+00
          2   -1    0    0  501    0  0.00000000000E+00  0.00000000000E+00  0.25410869210E+03  0.25410869210E+03  0.00000000000E+00 0. -1.
         -2   -1    0    0    0  501 -0.00000000000E+00 -0.00000000000E+00 -0.21550483795E+02  0.21550483795E+02  0.00000000000E+00 0.  1.
         23    2    1    2    0    0 -0.35916493446E+02 -0.20428935942E+02  0.11779682388E+03  0.15368577191E+03  0.89643119342E+02 0.  0.
         11    1    3    3    0    0 -0.37418591711E+01 -0.16901107811E+02 -0.11247868955E+02  0.20643728135E+02  0.00000000000E+00 0.  1.
        -11    1    3    3    0    0 -0.32174634275E+02 -0.35278281314E+01  0.12904469284E+03  0.13304204378E+03  0.00000000000E+00 0. -1.
         22    1    1    2    0    0  0.35916493446E+02  0.20428935942E+02  0.11476138443E+03  0.12197340399E+03  0.00000000000E+00 0. -1.
<mgrwt>
<rscale>  0 0.79396872E+02</rscale>
<asrwt>0</asrwt>
<pdfrwt beam="1">  1        2 0.39093643E-01 0.98707775E+02</pdfrwt>
<pdfrwt beam="2">  1       -2 0.33154592E-02 0.98707775E+02</pdfrwt>
<totfact> 0.42330863E+04</totfact>
</mgrwt>
</event>
<event>
 6    1  0.1828142E-002  0.9424780E+02  0.7546771E-02  0.1407550E+00
         -2   -1    0    0    0  501 -0.00000000000E+00  0.00000000000E+00  0.17944279768E+02  0.17944279768E+02  0.00000000000E+00 0.  1.
          2   -1    0    0  501    0  0.00000000000E+00 -0.00000000000E+00 -0.16252852454E+03  0.16252852454E+03  0.00000000000E+00 0. -1.
         23    2    1    2    0    0  0.13020712571E+02 -0.26147582392E+01 -0.12061980607E+03  0.15307444234E+03  0.93307402511E+02 0.  0.
         13    1    3    3    0    0  0.41497381142E+02 -0.32686854284E+02 -0.66660282492E+02  0.85053255943E+02  0.00000000000E+00 0.  1.
        -13    1    3    3    0    0 -0.28476668571E+02  0.30072096045E+02 -0.53959523583E+02  0.68021186396E+02  0.00000000000E+00 0. -1.
         22    1    1    2    0    0 -0.13020712571E+02  0.26147582392E+01 -0.23964438696E+02  0.27398361968E+02  0.00000000000E+00 0.  1.
<mgrwt>
<rscale>  0 0.57744193E+02</rscale>
<asrwt>0</asrwt>
<pdfrwt beam="1">  1        2 0.25004389E-01 0.94247797E+02</pdfrwt>
<pdfrwt beam="2">  1       -2 0.27606584E-02 0.94247797E+02</pdfrwt>
<totfact> 0.88580644E+04</totfact>
</mgrwt>
</event>
<event>
 6    1  0.1828142E-002  0.9555197E+02  0.7546771E-02  0.1376591E+00
          3   -1    0    0  501    0  0.00000000000E+00  0.00000000000E+00  0.49189635082E+03  0.49189635082E+03  0.00000000000E+00 0. -1.
         -3   -1    0    0    0  501 -0.00000000000E+00 -0.00000000000E+00 -0.69556456210E+01  0.69556456210E+01  0.00000000000E+00 0.  1.
         23    2    1    2    0    0  0.20449859056E+02  0.44536024579E+01  0.37863419089E+03  0.39050484006E+03  0.93231691461E+02 0.  0.
         11    1    3    3    0    0 -0.35304733445E+02  0.14881148647E+02  0.17296160448E+03  0.17715414026E+03  0.00000000000E+00 0. -1.
        -11    1    3    3    0    0  0.55754592501E+02 -0.10427546189E+02  0.20567258641E+03  0.21335069980E+03  0.00000000000E+00 0.  1.
         22    1    1    2    0    0 -0.20449859056E+02 -0.44536024579E+01  0.10630651431E+03  0.10834715638E+03  0.00000000000E+00 0. -1.
<mgrwt>
<rscale>  0 0.65368405E+02</rscale>
<asrwt>0</asrwt>
<pdfrwt beam="1">  1        3 0.75676334E-01 0.95551973E+02</pdfrwt>
<pdfrwt beam="2">  1       -3 0.10700997E-02 0.95551973E+02</pdfrwt>
<totfact> 0.87292511E+03</totfact>
</mgrwt>
</event>
<event>
 6    1  0.1828142E-002  0.9088992E+02  0.7546771E-02  0.1426712E+00
         -4   -1    0    0    0  501 -0.00000000000E+00  0.00000000000E+00  0.23205008198E+03  0.23205008198E+03  0.00000000000E+00 0. -1.
          4   -1    0    0  501    0  0.00000000000E+00 -0.00000000000E+00 -0.17060402230E+02  0.17060402230E+02  0.00000000000E+00 0.  1.
         23    2    1    2    0    0  0.10460498481E+02  0.34478983301E+01  0.21921765066E+03  0.23731278234E+03  0.90220110130E+02 0.  0.
         13    1    3    3    0    0 -0.24637072519E+02  0.32530523573E+02  0.14096584203E+03  0.14675349715E+03  0.00000000000E+00 0. -1.
        -13    1    3    3    0    0  0.35097571001E+02 -0.29082625243E+02  0.78251808622E+02  0.90559285188E+02  0.00000000000E+00 0.  1.
         22    1    1    2    0    0 -0.10460498481E+02 -0.34478983301E+01 -0.42279709065E+01  0.11797701868E+02  0.00000000000E+00 0.  1.
<mgrwt>
<rscale>  0 0.53625814E+02</rscale>
<asrwt>0</asrwt>
<pdfrwt beam="1">  1        4 0.26246774E-02 0.90889924E+02</pdfrwt>
<pdfrwt beam="2">  1       -4 0.35700010E-01 0.90889924E+02</pdfrwt>
<totfact> 0.73994979E+03</totfact>
</mgrwt>
</event>
<event>
 6    1  0.1828142E-002  0.9577693E+02  0.7546771E-02  0.1360043E+00
         -4   -1    0    0    0  501 -0.00000000000E+00  0.00000000000E+00  0.17502950830E+03  0.17502950830E+03  0.00000000000E+00 0. -1.
          4   -1    0    0  501    0  0.00000000000E+00 -0.00000000000E+00 -0.30487829831E+02  0.30487829831E+02  0.00000000000E+00 0.  1.
         23    2    1    2    0    0  0.11309668605E+02 -0.24903109857E+02  0.14966815600E+03  0.17769011663E+03  0.91788600292E+02 0.  0.
         13    1    3    3    0    0  0.37712263489E+02 -0.54012172587E+01  0.13750486258E+03  0.14268488076E+03  0.00000000000E+00 0. -1.
        -13    1    3    3    0    0 -0.26402594884E+02 -0.19501892599E+02  0.12163293424E+02  0.35005235872E+02  0.00000000000E+00 0.  1.
         22    1    1    2    0    0 -0.11309668605E+02  0.24903109857E+02 -0.51264775306E+01  0.27827221500E+02  0.00000000000E+00 0.  1.
<mgrwt>
<rscale>  0 0.70014618E+02</rscale>
<asrwt>0</asrwt>
<pdfrwt beam="1">  1        4 0.46904355E-02 0.95776932E+02</pdfrwt>
<pdfrwt beam="2">  1       -4 0.26927616E-01 0.95776932E+02</pdfrwt>
<totfact> 0.51459965E+03</totfact>
</mgrwt>
</event>
<event>
 6    1  0.1828142E-002  0.9567084E+02  0.7546771E-02  0.1353031E+00
          1   -1    0    0  501    0  0.00000000000E+00  0.00000000000E+00  0.87641421455E+01  0.87641421455E+01  0.00000000000E+00 0. -1.
         -1   -1    0    0    0  501 -0.00000000000E+00 -0.00000000000E+00 -0.46023849616E+03  0.46023849616E+03  0.00000000000E+00 0.  1.
         23    2    1    2    0    0  0.15391387079E+02  0.26786461260E+02 -0.35753540186E+03  0.37011413526E+03  0.90545569919E+02 0.  0.
         13    1    3    3    0    0 -0.68654633548E+01  0.39577982523E+02 -0.33012511787E+03  0.33255998668E+03  0.00000000000E+00 0.  1.
        -13    1    3    3    0    0  0.22256850434E+02 -0.12791521264E+02 -0.27410283988E+02  0.37554148582E+02  0.00000000000E+00 0. -1.
         22    1    1    2    0    0 -0.15391387079E+02 -0.26786461260E+02 -0.93938952156E+02  0.98888503049E+02  0.00000000000E+00 0.  1.
<mgrwt>
<rscale>  0 0.72119303E+02</rscale>
<asrwt>0</asrwt>
<pdfrwt beam="1">  1        1 0.13483293E-02 0.95670840E+02</pdfrwt>
<pdfrwt beam="2">  1       -1 0.70805936E-01 0.95670840E+02</pdfrwt>
<totfact> 0.19835001E+04</totfact>
</mgrwt>
</event>
<event>
 6    1  0.1828142E-002  0.9256600E+02  0.7546771E-02  0.1404792E+00
          2   -1    0    0  501    0  0.00000000000E+00  0.00000000000E+00  0.22245402365E+03  0.22245402365E+03  0.00000000000E+00 0. -1.
         -2   -1    0    0    0  501 -0.00000000000E+00 -0.00000000000E+00 -0.13814815994E+02  0.13814815994E+02  0.00000000000E+00 0.  1.
         23    2    1    2    0    0 -0.95724634917E+01  0.11074024017E+02  0.15377933087E+03  0.17948968725E+03  0.91401308318E+02 0.  0.
         11    1    3    3    0    0 -0.54771395009E+01  0.49627266420E+02  0.60288901762E+02  0.78279092388E+02  0.00000000000E+00 0.  1.
        -11    1    3    3    0    0 -0.40953239909E+01 -0.38553242402E+02  0.93490429104E+02  0.10121059486E+03  0.00000000000E+00 0. -1.
         22    1    1    2    0    0  0.95724634917E+01 -0.11074024017E+02  0.54859876785E+02  0.56779152390E+02  0.00000000000E+00 0.  1.
<mgrwt>
<rscale>  0 0.58372435E+02</rscale>
<asrwt>0</asrwt>
<pdfrwt beam="1">  1        2 0.34223693E-01 0.92566005E+02</pdfrwt>
<pdfrwt beam="2">  1       -2 0.21253565E-02 0.92566005E+02</pdfrwt>
<totfact> 0.92047379E+04</totfact>
</mgrwt>
</event>
<event>
 6    1  0.1828142E-002  0.9209080E+02  0.7546771E-02  0.1413910E+00
         -1   -1    0    0    0  501 -0.00000000000E+00  0.00000000000E+00  0.13060750699E+03  0.13060750699E+03  0.00000000000E+00 0.  1.
          1   -1    0    0  501    0  0.00000000000E+00 -0.00000000000E+00 -0.22510800521E+02  0.22510800521E+02  0.00000000000E+00 0. -1.
         23    2    1    2    0    0 -0.11237755016E+02  0.63180228431E+01  0.10536969075E+03  0.13994101017E+03  0.91183935252E+02 0.  0.
         11    1    3    3    0    0  0.32359480453E+02 -0.27002125619E+01  0.84982186901E+02  0.90974717441E+02  0.00000000000E+00 0.  1.
        -11    1    3    3    0    0 -0.43597235469E+02  0.90182354050E+01  0.20387503848E+02  0.48966292728E+02  0.00000000000E+00 0. -1.
         22    1    1    2    0    0  0.11237755016E+02 -0.63180228431E+01  0.27270157168E+01  0.13177297339E+02  0.00000000000E+00 0.  1.
<mgrwt>
<rscale>  0 0.56330361E+02</rscale>
<asrwt>0</asrwt>
<pdfrwt beam="1">  1        1 0.34632002E-02 0.92090795E+02</pdfrwt>
<pdfrwt beam="2">  1       -1 0.20093462E-01 0.92090795E+02</pdfrwt>
<totfact> 0.48035183E+04</totfact>
</mgrwt>
</event>
<event>
 6    1  0.1828142E-002  0.1091290E+03  0.7546771E-02  0.1294610E+00
          2   -1    0    0  501    0  0.00000000000E+00  0.00000000000E+00  0.10369838605E+03  0.10369838605E+03  0.00000000000E+00 0. -1.
         -2   -1    0    0    0  501 -0.00000000000E+00 -0.00000000000E+00 -0.16360441140E+03  0.16360441140E+03  0.00000000000E+00 0.  1.
         23    2    1    2    0    0  0.56015279909E+02 -0.17831880400E+02 -0.13393984795E+03  0.17276870607E+03  0.91942674462E+02 0.  0.
         11    1    3    3    0    0  0.36417666920E+02  0.25009214128E+02 -0.11278010119E+03  0.12112414490E+03  0.00000000000E+00 0.  1.
        -11    1    3    3    0    0  0.19597612989E+02 -0.42841094528E+02 -0.21159746766E+02  0.51644561170E+02  0.00000000000E+00 0. -1.
         22    1    1    2    0    0 -0.56015279909E+02  0.17831880400E+02  0.74033822609E+02  0.94534091375E+02  0.00000000000E+00 0. -1.
<mgrwt>
<rscale>  0 0.93491472E+02</rscale>
<asrwt>0</asrwt>
<pdfrwt beam="1">  1        2 0.15953598E-01 0.10912902E+03</pdfrwt>
<pdfrwt beam="2">  1       -2 0.25169909E-01 0.10912902E+03</pdfrwt>
<totfact> 0.47773334E+03</totfact>
</mgrwt>
</event>
<event>
 6    1  0.1828142E-002  0.9466086E+02  0.7546771E-02  0.1354954E+00
         -4   -1    0    0    0  501 -0.00000000000E+00  0.00000000000E+00  0.14103498100E+03  0.14103498100E+03  0.00000000000E+00 0.  1.
          4   -1    0    0  501    0  0.00000000000E+00 -0.00000000000E+00 -0.27989934922E+02  0.27989934922E+02  0.00000000000E+00 0. -1.
         23    2    1    2    0    0  0.23847480437E+02 -0.19601699140E+02  0.81890932881E+02  0.12516710360E+03  0.89486032453E+02 0.  0.
         13    1    3    3    0    0  0.40205626571E+00  0.33564689116E+02  0.45731191708E+02  0.56728228421E+02  0.00000000000E+00 0.  1.
        -13    1    3    3    0    0  0.23445424171E+02 -0.53166388256E+02  0.36159741173E+02  0.68438875184E+02  0.00000000000E+00 0. -1.
         22    1    1    2    0    0 -0.23847480437E+02  0.19601699140E+02  0.31154113200E+02  0.43857812322E+02  0.00000000000E+00 0.  1.
<mgrwt>
<rscale>  0 0.71533654E+02</rscale>
<asrwt>0</asrwt>
<pdfrwt beam="1">  1        4 0.43061439E-02 0.94660863E+02</pdfrwt>
<pdfrwt beam="2">  1       -4 0.21697689E-01 0.94660863E+02</pdfrwt>
<totfact> 0.87103616E+03</totfact>
</mgrwt>
</event>
<event>
 6    1  0.1828142E-002  0.9160628E+02  0.7546771E-02  0.1396881E+00
         -2   -1    0    0    0  501 -0.00000000000E+00  0.00000000000E+00  0.73029659338E+02  0.73029659338E+02  0.00000000000E+00 0.  1.
          2   -1    0    0  501    0  0.00000000000E+00 -0.00000000000E+00 -0.45094786993E+02  0.45094786993E+02  0.00000000000E+00 0. -1.
         23    2    1    2    0    0 -0.62014560481E+01 -0.15952710737E+02  0.36952493146E+02  0.98778528884E+02  0.89993132970E+02 0.  0.
         13    1    3    3    0    0  0.78671813854E+01 -0.52087011980E+02  0.24086687911E+02  0.57923379516E+02  0.00000000000E+00 0.  1.
        -13    1    3    3    0    0 -0.14068637434E+02  0.36134301243E+02  0.12865805235E+02  0.40855149368E+02  0.00000000000E+00 0. -1.
         22    1    1    2    0    0  0.62014560481E+01  0.15952710737E+02 -0.90176208009E+01  0.19345917448E+02  0.00000000000E+00 0. -1.
<mgrwt>
<rscale>  0 0.60227188E+02</rscale>
<asrwt>0</asrwt>
<pdfrwt beam="1">  1        2 0.69376595E-02 0.91606283E+02</pdfrwt>
<pdfrwt beam="2">  1       -2 0.11235332E-01 0.91606283E+02</pdfrwt>
<totfact> 0.48419099E+04</totfact>
</mgrwt>
</event>
<event>
 6    1  0.1828142E-002  0.9254022E+02  0.7546771E-02  0.1406636E+00
          2   -1    0    0  501    0  0.00000000000E+00  0.00000000000E+00  0.19258132895E+03  0.19258132895E+03  0.00000000000E+00 0.  1.
         -2   -1    0    0    0  501 -0.00000000000E+00 -0.00000000000E+00 -0.15900064136E+02  0.15900064136E+02  0.00000000000E+00 0. -1.
         23    2    1    2    0    0 -0.11405036973E+02  0.85129006105E+01  0.12926421868E+03  0.15897461972E+03  0.91439308498E+02 0.  0.
         13    1    3    3    0    0 -0.19193946131E+02  0.36456935638E+02  0.19762395001E+02  0.45695382484E+02  0.00000000000E+00 0. -1.
        -13    1    3    3    0    0  0.77889091584E+01 -0.27944035027E+02  0.10950182368E+03  0.11327923723E+03  0.00000000000E+00 0.  1.
         22    1    1    2    0    0  0.11405036973E+02 -0.85129006105E+01  0.47417046141E+02  0.49506773374E+02  0.00000000000E+00 0.  1.
<mgrwt>
<rscale>  0 0.57951262E+02</rscale>
<asrwt>0</asrwt>
<pdfrwt beam="1">  1        2 0.29627895E-01 0.92540215E+02</pdfrwt>
<pdfrwt beam="2">  1       -2 0.24461638E-02 0.92540215E+02</pdfrwt>
<totfact> 0.87624359E+04</totfact>
</mgrwt>
</event>
<event>
 6    1  0.1828142E-002  0.8955712E+02  0.7546771E-02  0.1428835E+00
          2   -1    0    0  501    0  0.00000000000E+00  0.00000000000E+00  0.66296659798E+02  0.66296659798E+02  0.00000000000E+00 0. -1.
         -2   -1    0    0    0  501 -0.00000000000E+00 -0.00000000000E+00 -0.38300921137E+02  0.38300921137E+02  0.00000000000E+00 0.  1.
         23    2    1    2    0    0 -0.97287284408E+01 -0.54419296602E+01  0.23596320197E+02  0.92613523262E+02  0.88860652758E+02 0.  0.
         13    1    3    3    0    0 -0.12184983896E+01  0.39200984416E+01 -0.33693827436E+02  0.33942980385E+02  0.00000000000E+00 0.  1.
        -13    1    3    3    0    0 -0.85102300511E+01 -0.93620281018E+01  0.57290147633E+02  0.58670542877E+02  0.00000000000E+00 0. -1.
         22    1    1    2    0    0  0.97287284408E+01  0.54419296602E+01  0.43994184641E+01  0.11984057674E+02  0.00000000000E+00 0.  1.
<mgrwt>
<rscale>  0 0.53194622E+02</rscale>
<asrwt>0</asrwt>
<pdfrwt beam="1">  1        2 0.10199486E-01 0.89557123E+02</pdfrwt>
<pdfrwt beam="2">  1       -2 0.58924494E-02 0.89557123E+02</pdfrwt>
<totfact> 0.80620253E+04</totfact>
</mgrwt>
</event>
<event>
 6    1  0.1828142E-002  0.9405220E+02  0.7546771E-02  0.1371273E+00
          2   -1    0    0  501    0  0.00000000000E+00  0.00000000000E+00  0.64427450301E+02  0.64427450301E+02  0.00000000000E+00 0. -1.
         -2   -1    0    0    0  501 -0.00000000000E+00 -0.00000000000E+00 -0.62953298510E+03  0.62953298510E+03  0.00000000000E+00 0.  1.
         23    2    1    2    0    0  0.23709188770E+02 -0.34157551332E+01 -0.62365152611E+03  0.63070360879E+03  0.90950663060E+02 0.  0.
         11    1    3    3    0    0 -0.31599921959E+02 -0.93832876790E+01 -0.13828957201E+03  0.14216401402E+03  0.00000000000E+00 0. -1.
        -11    1    3    3    0    0  0.55309110729E+02  0.59675325458E+01 -0.48536195410E+03  0.48853959478E+03  0.00000000000E+00 0.  1.
         22    1    1    2    0    0 -0.23709188770E+02  0.34157551332E+01  0.58545991305E+02  0.63256826613E+02  0.00000000000E+00 0. -1.
<mgrwt>
<rscale>  0 0.66814562E+02</rscale>
<asrwt>0</asrwt>
<pdfrwt beam="1">  1        2 0.99119155E-02 0.94052199E+02</pdfrwt>
<pdfrwt beam="2">  1       -2 0.96851228E-01 0.94052199E+02</pdfrwt>
<totfact> 0.58146346E+02</totfact>
</mgrwt>
</event>
<event>
 6    1  0.1828142E-002  0.9319567E+02  0.7546771E-02  0.1374127E+00
          2   -1    0    0  501    0  0.00000000000E+00  0.00000000000E+00  0.10877289400E+03  0.10877289400E+03  0.00000000000E+00 0. -1.
         -2   -1    0    0    0  501 -0.00000000000E+00 -0.00000000000E+00 -0.32301135324E+02  0.32301135324E+02  0.00000000000E+00 0.  1.
         23    2    1    2    0    0  0.18191106083E+02 -0.14859359930E+02  0.50284283672E+02  0.10589590025E+03  0.90187114309E+02 0.  0.
         13    1    3    3    0    0 -0.15063032762E+02 -0.44998226966E+02  0.18641537351E+02  0.50982764743E+02  0.00000000000E+00 0.  1.
        -13    1    3    3    0    0  0.33254138845E+02  0.30138867036E+02  0.31642746321E+02  0.54913135507E+02  0.00000000000E+00 0. -1.
         22    1    1    2    0    0 -0.18191106083E+02  0.14859359930E+02  0.26187475008E+02  0.35178129077E+02  0.00000000000E+00 0. -1.
<mgrwt>
<rscale>  0 0.66033046E+02</rscale>
<asrwt>0</asrwt>
<pdfrwt beam="1">  1        2 0.16734291E-01 0.93195668E+02</pdfrwt>
<pdfrwt beam="2">  1       -2 0.49694055E-02 0.93195668E+02</pdfrwt>
<totfact> 0.58418173E+04</totfact>
</mgrwt>
</event>
<event>
 6    1  0.1828142E-002  0.8752093E+02  0.7546771E-02  0.1439421E+00
         -2   -1    0    0    0  501 -0.00000000000E+00  0.00000000000E+00  0.38082203804E+02  0.38082203804E+02  0.00000000000E+00 0.  1.
          2   -1    0    0  501    0  0.00000000000E+00 -0.00000000000E+00 -0.10306239221E+03  0.10306239221E+03  0.00000000000E+00 0. -1.
         23    2    1    2    0    0 -0.83765010833E+01 -0.57889675169E+01 -0.13366031526E+02  0.88535669910E+02  0.86926613487E+02 0.  0.
         13    1    3    3    0    0 -0.22330250774E+02  0.35328247818E+02 -0.16656593509E+02  0.44990746836E+02  0.00000000000E+00 0. -1.
        -13    1    3    3    0    0  0.13953749690E+02 -0.41117215335E+02  0.32905619835E+01  0.43544923074E+02  0.00000000000E+00 0.  1.
         22    1    1    2    0    0  0.83765010833E+01  0.57889675169E+01 -0.51614156876E+02  0.52608926099E+02  0.00000000000E+00 0.  1.
<mgrwt>
<rscale>  0 0.51114574E+02</rscale>
<asrwt>0</asrwt>
<pdfrwt beam="1">  1        2 0.15855752E-01 0.87520935E+02</pdfrwt>
<pdfrwt beam="2">  1       -2 0.58588007E-02 0.87520935E+02</pdfrwt>
<totfact> 0.48186624E+04</totfact>
</mgrwt>
</event>
<event>
 6    1  0.1828142E-002  0.9179033E+02  0.7546771E-02  0.1404863E+00
          1   -1    0    0  501    0  0.00000000000E+00  0.00000000000E+00  0.42047140257E+02  0.42047140257E+02  0.00000000000E+00 0. -1.
         -1   -1    0    0    0  501 -0.00000000000E+00 -0.00000000000E+00 -0.67821507106E+02  0.67821507106E+02  0.00000000000E+00 0.  1.
         23    2    1    2    0    0  0.13596437885E+02  0.63240459981E+01 -0.22834805080E+02  0.94588015689E+02  0.90557206825E+02 0.  0.
         13    1    3    3    0    0 -0.29251197059E+02 -0.10755525186E+02  0.15318693635E+02  0.34727168415E+02  0.00000000000E+00 0. -1.
        -13    1    3    3    0    0  0.42847634944E+02  0.17079571184E+02 -0.38153498715E+02  0.59860847274E+02  0.00000000000E+00 0.  1.
         22    1    1    2    0    0 -0.13596437885E+02 -0.63240459981E+01 -0.29395617689E+01  0.15280631673E+02  0.00000000000E+00 0. -1.
<mgrwt>
<rscale>  0 0.58356054E+02</rscale>
<asrwt>0</asrwt>
<pdfrwt beam="1">  1        1 0.64687909E-02 0.91790328E+02</pdfrwt>
<pdfrwt beam="2">  1       -1 0.10434078E-01 0.91790328E+02</pdfrwt>
<totfact> 0.56877597E+04</totfact>
</mgrwt>
</event>
<event>
 6    1  0.1828142E-002  0.8582872E+02  0.7546771E-02  0.1433710E+00
         -1   -1    0    0    0  501 -0.00000000000E+00  0.00000000000E+00  0.78178291030E+02  0.78178291030E+02  0.00000000000E+00 0.  1.
          1   -1    0    0  501    0  0.00000000000E+00 -0.00000000000E+00 -0.33432403640E+02  0.33432403640E+02  0.00000000000E+00 0. -1.
         23    2    1    2    0    0  0.25450330394E+01  0.11484693711E+02  0.49319197124E+02  0.98989658867E+02  0.85018786011E+02 0.  0.
         11    1    3    3    0    0  0.15596742924E+02  0.78412782866E+01  0.71169181097E+02  0.73278894458E+02  0.00000000000E+00 0.  1.
        -11    1    3    3    0    0 -0.13051709884E+02  0.36434154245E+01 -0.21849983973E+02  0.25710764409E+02  0.00000000000E+00 0. -1.
         22    1    1    2    0    0 -0.25450330394E+01 -0.11484693711E+02 -0.45733097342E+01  0.12621035803E+02  0.00000000000E+00 0. -1.
<mgrwt>
<rscale>  0 0.52222401E+02</rscale>
<asrwt>0</asrwt>
<pdfrwt beam="1">  1        1 0.51434467E-02 0.85828721E+02</pdfrwt>
<pdfrwt beam="2">  1       -1 0.12027429E-01 0.85828721E+02</pdfrwt>
<totfact> 0.61726034E+04</totfact>
</mgrwt>
</event>
<event>
 6    1  0.1828142E-002  0.9258180E+02  0.7546771E-02  0.1404045E+00
         -2   -1    0    0    0  501 -0.00000000000E+00  0.00000000000E+00  0.13976387341E+02  0.13976387341E+02  0.00000000000E+00 0.  1.
          2   -1    0    0  501    0  0.00000000000E+00 -0.00000000000E+00 -0.22375616775E+03  0.22375616775E+03  0.00000000000E+00 0. -1.
         23    2    1    2    0    0 -0.13562795148E+02 -0.59315563486E+01 -0.15104363565E+03  0.17715972724E+03  0.91390679565E+02 0.  0.
         11    1    3    3    0    0 -0.18054593429E+02  0.26406778759E+02 -0.11730240264E+02  0.34071760227E+02  0.00000000000E+00 0.  1.
        -11    1    3    3    0    0  0.44917982806E+01 -0.32338335107E+02 -0.13931339538E+03  0.14308796701E+03  0.00000000000E+00 0. -1.
         22    1    1    2    0    0  0.13562795148E+02  0.59315563486E+01 -0.58736144763E+02  0.60572827857E+02  0.00000000000E+00 0. -1.
<mgrwt>
<rscale>  0 0.58544031E+02</rscale>
<asrwt>0</asrwt>
<pdfrwt beam="1">  1        2 0.34424023E-01 0.92581797E+02</pdfrwt>
<pdfrwt beam="2">  1       -2 0.21502136E-02 0.92581797E+02</pdfrwt>
<totfact> 0.89963751E+04</totfact>
</mgrwt>
</event>
<event>
 6    1  0.1828142E-002  0.9472785E+02  0.7546771E-02  0.1370441E+00
         -2   -1    0    0    0  501 -0.00000000000E+00  0.00000000000E+00  0.60979689130E+01  0.60979689130E+01  0.00000000000E+00 0.  1.
          2   -1    0    0  501    0  0.00000000000E+00 -0.00000000000E+00 -0.62912194644E+03  0.62912194644E+03  0.00000000000E+00 0. -1.
         23    2    1    2    0    0  0.15690406521E+02  0.17855397684E+02 -0.55808560847E+03  0.56606793882E+03  0.91697114952E+02 0.  0.
         13    1    3    3    0    0  0.20805767493E+02 -0.33698833043E+02 -0.17073803870E+03  0.17527113045E+03  0.00000000000E+00 0.  1.
        -13    1    3    3    0    0 -0.51153609719E+01  0.51554230727E+02 -0.38734756977E+03  0.39079680836E+03  0.00000000000E+00 0. -1.
         22    1    1    2    0    0 -0.15690406521E+02 -0.17855397684E+02 -0.64938369059E+02  0.69151976539E+02  0.00000000000E+00 0.  1.
<mgrwt>
<rscale>  0 0.67044738E+02</rscale>
<asrwt>0</asrwt>
<pdfrwt beam="1">  1        2 0.96787932E-01 0.94727847E+02</pdfrwt>
<pdfrwt beam="2">  1       -2 0.93814965E-03 0.94727847E+02</pdfrwt>
<totfact> 0.97929276E+04</totfact>
</mgrwt>
</event>
<event>
 6    1  0.1828142E-002  0.9246190E+02  0.7546771E-02  0.1412465E+00
          1   -1    0    0  501    0  0.00000000000E+00  0.00000000000E+00  0.43431426884E+03  0.43431426884E+03  0.00000000000E+00 0. -1.
         -1   -1    0    0    0  501 -0.00000000000E+00 -0.00000000000E+00 -0.65321714984E+01  0.65321714984E+01  0.00000000000E+00 0.  1.
         23    2    1    2    0    0  0.50420921395E+01  0.12011226621E+02  0.39229054266E+03  0.40303979130E+03  0.91539670360E+02 0.  0.
         11    1    3    3    0    0 -0.40149296050E+02  0.21146329907E+02  0.16537420168E+03  0.17148690861E+03  0.00000000000E+00 0.  1.
        -11    1    3    3    0    0  0.45191388190E+02 -0.91351032864E+01  0.22691634098E+03  0.23155288269E+03  0.00000000000E+00 0. -1.
         22    1    1    2    0    0 -0.50420921395E+01 -0.12011226621E+02  0.35491554682E+02  0.37806649043E+02  0.00000000000E+00 0.  1.
<mgrwt>
<rscale>  0 0.56647386E+02</rscale>
<asrwt>0</asrwt>
<pdfrwt beam="1">  1        1 0.66817557E-01 0.92461903E+02</pdfrwt>
<pdfrwt beam="2">  1       -1 0.10049498E-02 0.92461903E+02</pdfrwt>
<totfact> 0.88347091E+04</totfact>
</mgrwt>
</event>
<event>
 6    1  0.1828142E-002  0.1020549E+03  0.7546771E-02  0.1320135E+00
         -2   -1    0    0    0  501 -0.00000000000E+00  0.00000000000E+00  0.14295285783E+03  0.14295285783E+03  0.00000000000E+00 0.  1.
          2   -1    0    0  501    0  0.00000000000E+00 -0.00000000000E+00 -0.80173119521E+02  0.80173119521E+02  0.00000000000E+00 0. -1.
         23    2    1    2    0    0 -0.24347107075E+02  0.38010258490E+02  0.11523035946E+03  0.15392605660E+03  0.91529414862E+02 0.  0.
         11    1    3    3    0    0 -0.13136251266E+01 -0.24505917972E+02  0.48779713057E+01  0.25021195628E+02  0.00000000000E+00 0. -1.
        -11    1    3    3    0    0 -0.23033481948E+02  0.62516176462E+02  0.11035238816E+03  0.12890486097E+03  0.00000000000E+00 0.  1.
         22    1    1    2    0    0  0.24347107075E+02 -0.38010258490E+02 -0.52450621150E+02  0.69199920755E+02  0.00000000000E+00 0. -1.
<mgrwt>
<rscale>  0 0.83226976E+02</rscale>
<asrwt>0</asrwt>
<pdfrwt beam="1">  1        2 0.12334326E-01 0.10205486E+03</pdfrwt>
<pdfrwt beam="2">  1       -2 0.21992747E-01 0.10205486E+03</pdfrwt>
<totfact> 0.81015469E+03</totfact>
</mgrwt>
</event>
<event>
 6    1  0.1828142E-002  0.9598550E+02  0.7546771E-02  0.1365608E+00
         -1   -1    0    0    0  501 -0.00000000000E+00  0.00000000000E+00  0.61978948295E+01  0.61978948295E+01  0.00000000000E+00 0.  1.
          1   -1    0    0  501    0  0.00000000000E+00 -0.00000000000E+00 -0.60802628991E+03  0.60802628991E+03  0.00000000000E+00 0. -1.
         23    2    1    2    0    0 -0.23751955357E+02  0.69819007523E+01 -0.51793784390E+03  0.52675689429E+03  0.92737873684E+02 0.  0.
         11    1    3    3    0    0 -0.52687346742E+02 -0.16255447680E+02 -0.37718765057E+03  0.38119643207E+03  0.00000000000E+00 0.  1.
        -11    1    3    3    0    0  0.28935391385E+02  0.23237348433E+02 -0.14075019333E+03  0.14556046221E+03  0.00000000000E+00 0. -1.
         22    1    1    2    0    0  0.23751955357E+02 -0.69819007523E+01 -0.83890551178E+02  0.87467290448E+02  0.00000000000E+00 0. -1.
<mgrwt>
<rscale>  0 0.68403468E+02</rscale>
<asrwt>0</asrwt>
<pdfrwt beam="1">  1        1 0.93542511E-01 0.95985496E+02</pdfrwt>
<pdfrwt beam="2">  1       -1 0.95352223E-03 0.95985496E+02</pdfrwt>
<totfact> 0.61829276E+04</totfact>
</mgrwt>
</event>
<event>
 6    1  0.1828142E-002  0.9752203E+02  0.7546771E-02  0.1374356E+00
         -2   -1    0    0    0  501 -0.00000000000E+00  0.00000000000E+00  0.34236559723E+03  0.34236559723E+03  0.00000000000E+00 0.  1.
          2   -1    0    0  501    0  0.00000000000E+00 -0.00000000000E+00 -0.10953914587E+02  0.10953914587E+02  0.00000000000E+00 0. -1.
         23    2    1    2    0    0 -0.11196142761E+02 -0.17079567273E+02  0.30315888367E+03  0.31845856116E+03  0.95359746205E+02 0.  0.
         13    1    3    3    0    0 -0.25600858966E+02 -0.11351901246E+02  0.18919322425E+02  0.33796603420E+02  0.00000000000E+00 0. -1.
        -13    1    3    3    0    0  0.14404716205E+02 -0.57276660264E+01  0.28423956125E+03  0.28466195774E+03  0.00000000000E+00 0.  1.
         22    1    1    2    0    0  0.11196142761E+02  0.17079567273E+02  0.28252798971E+02  0.34860950656E+02  0.00000000000E+00 0. -1.
<mgrwt>
<rscale>  0 0.65970921E+02</rscale>
<asrwt>0</asrwt>
<pdfrwt beam="1">  1        2 0.16852179E-02 0.97522030E+02</pdfrwt>
<pdfrwt beam="2">  1       -2 0.52671622E-01 0.97522030E+02</pdfrwt>
<totfact> 0.21292399E+04</totfact>
</mgrwt>
</event>
<event>
 6    1  0.1828142E-002  0.8935181E+02  0.7546771E-02  0.1415123E+00
          1   -1    0    0  501    0  0.00000000000E+00  0.00000000000E+00  0.16227372606E+02  0.16227372606E+02  0.00000000000E+00 0. -1.
         -1   -1    0    0    0  501 -0.00000000000E+00 -0.00000000000E+00 -0.16466001885E+03  0.16466001885E+03  0.00000000000E+00 0.  1.
         23    2    1    2    0    0  0.13329876949E+02 -0.37654282412E+01 -0.13196120475E+03  0.15936594972E+03  0.88271639292E+02 0.  0.
         11    1    3    3    0    0  0.88899168832E+01  0.16629338470E+02  0.60361560656E+01  0.19799007555E+02  0.00000000000E+00 0. -1.
        -11    1    3    3    0    0  0.44399600661E+01 -0.20394766711E+02 -0.13799736081E+03  0.13956694217E+03  0.00000000000E+00 0.  1.
         22    1    1    2    0    0 -0.13329876949E+02  0.37654282412E+01 -0.16471441495E+02  0.21521441733E+02  0.00000000000E+00 0.  1.
<mgrwt>
<rscale>  0 0.56066279E+02</rscale>
<asrwt>0</asrwt>
<pdfrwt beam="1">  1        1 0.24965188E-02 0.89351812E+02</pdfrwt>
<pdfrwt beam="2">  1       -1 0.25332311E-01 0.89351812E+02</pdfrwt>
<totfact> 0.51584875E+04</totfact>
</mgrwt>
</event>
<event>
 6    1  0.1828142E-002  0.9516216E+02  0.7546771E-02  0.1376857E+00
         -2   -1    0    0    0  501 -0.00000000000E+00  0.00000000000E+00  0.37096984440E+02  0.37096984440E+02  0.00000000000E+00 0.  1.
          2   -1    0    0  501    0  0.00000000000E+00 -0.00000000000E+00 -0.10159224851E+03  0.10159224851E+03  0.00000000000E+00 0. -1.
         23    2    1    2    0    0  0.16644256168E+02  0.12960673349E+02 -0.32880261349E+02  0.10068240838E+03  0.92794533532E+02 0.  0.
         11    1    3    3    0    0  0.54498567636E+02  0.16200122824E+02 -0.23693615873E+02  0.61594847893E+02  0.00000000000E+00 0.  1.
        -11    1    3    3    0    0 -0.37854311468E+02 -0.32394494744E+01 -0.91866454756E+01  0.39087560485E+02  0.00000000000E+00 0. -1.
         22    1    1    2    0    0 -0.16644256168E+02 -0.12960673349E+02 -0.31615002725E+02  0.38006824576E+02  0.00000000000E+00 0.  1.
<mgrwt>
<rscale>  0 0.65297185E+02</rscale>
<asrwt>0</asrwt>
<pdfrwt beam="1">  1        2 0.15629576E-01 0.95162155E+02</pdfrwt>
<pdfrwt beam="2">  1       -2 0.57072285E-02 0.95162155E+02</pdfrwt>
<totfact> 0.51537000E+04</totfact>
</mgrwt>
</event>
<event>
 6    1  0.1828142E-002  0.9075500E+02  0.7546771E-02  0.1424823E+00
         -2   -1    0    0    0  501 -0.00000000000E+00  0.00000000000E+00  0.36498363780E+03  0.36498363780E+03  0.00000000000E+00 0. -1.
          2   -1    0    0  501    0  0.00000000000E+00 -0.00000000000E+00 -0.76422128789E+01  0.76422128789E+01  0.00000000000E+00 0.  1.
         23    2    1    2    0    0 -0.58286881060E+01  0.97817600657E+01  0.33981499028E+03  0.35172531609E+03  0.90037847163E+02 0.  0.
         13    1    3    3    0    0 -0.44163057387E+02 -0.11580368991E+02  0.20184516001E+03  0.20694431426E+03  0.00000000000E+00 0.  1.
        -13    1    3    3    0    0  0.38334369281E+02  0.21362129056E+02  0.13796983027E+03  0.14478100183E+03  0.00000000000E+00 0. -1.
         22    1    1    2    0    0  0.58286881060E+01 -0.97817600657E+01  0.17526434639E+02  0.20900534591E+02  0.00000000000E+00 0.  1.
<mgrwt>
<rscale>  0 0.54013483E+02</rscale>
<asrwt>0</asrwt>
<pdfrwt beam="1">  1        2 0.11757253E-02 0.90755002E+02</pdfrwt>
<pdfrwt beam="2">  1       -2 0.56151315E-01 0.90755002E+02</pdfrwt>
<totfact> 0.30289767E+04</totfact>
</mgrwt>
</event>
<event>
 6    1  0.1828142E-002  0.9244949E+02  0.7546771E-02  0.1413883E+00
         -2   -1    0    0    0  501 -0.00000000000E+00  0.00000000000E+00  0.10434940129E+03  0.10434940129E+03  0.00000000000E+00 0.  1.
          2   -1    0    0  501    0  0.00000000000E+00 -0.00000000000E+00 -0.37835939392E+02  0.37835939392E+02  0.00000000000E+00 0. -1.
         23    2    1    2    0    0 -0.60104113437E+01  0.11242072049E+02  0.80981727612E+02  0.12290218893E+03  0.91566361773E+02 0.  0.
         11    1    3    3    0    0  0.35364812734E+02 -0.19977477794E+02  0.35560074199E+02  0.53984150227E+02  0.00000000000E+00 0.  1.
        -11    1    3    3    0    0 -0.41375224077E+02  0.31219549844E+02  0.45421653413E+02  0.68918038703E+02  0.00000000000E+00 0. -1.
         22    1    1    2    0    0  0.60104113437E+01 -0.11242072049E+02 -0.14468265717E+02  0.19283151748E+02  0.00000000000E+00 0. -1.
<mgrwt>
<rscale>  0 0.56336276E+02</rscale>
<asrwt>0</asrwt>
<pdfrwt beam="1">  1        2 0.58209138E-02 0.92449488E+02</pdfrwt>
<pdfrwt beam="2">  1       -2 0.16053754E-01 0.92449488E+02</pdfrwt>
<totfact> 0.34207548E+04</totfact>
</mgrwt>
</event>
<event>
 6    1  0.1828142E-002  0.9194194E+02  0.7546771E-02  0.1429582E+00
          3   -1    0    0  501    0  0.00000000000E+00  0.00000000000E+00  0.41040214420E+02  0.41040214420E+02  0.00000000000E+00 0. -1.
         -3   -1    0    0    0  501 -0.00000000000E+00 -0.00000000000E+00 -0.80856543467E+02  0.80856543467E+02  0.00000000000E+00 0.  1.
         23    2    1    2    0    0  0.39574915276E+01  0.93857431292E+01 -0.52306734704E+02  0.10577955755E+03  0.91375961755E+02 0.  0.
         13    1    3    3    0    0  0.36023601815E+02  0.25473610152E+02 -0.22280594076E+01  0.44176565627E+02  0.00000000000E+00 0. -1.
        -13    1    3    3    0    0 -0.32066110287E+02 -0.16087867023E+02 -0.50078675296E+02  0.61602991922E+02  0.00000000000E+00 0.  1.
         22    1    1    2    0    0 -0.39574915276E+01 -0.93857431292E+01  0.12490405656E+02  0.16117200338E+02  0.00000000000E+00 0. -1.
<mgrwt>
<rscale>  0 0.53043944E+02</rscale>
<asrwt>0</asrwt>
<pdfrwt beam="1">  1        3 0.63138791E-02 0.91941940E+02</pdfrwt>
<pdfrwt beam="2">  1       -3 0.12439468E-01 0.91941940E+02</pdfrwt>
<totfact> 0.16452889E+04</totfact>
</mgrwt>
</event>
<event>
 6    1  0.1828142E-002  0.9116411E+02  0.7546771E-02  0.1414223E+00
         -2   -1    0    0    0  501 -0.00000000000E+00  0.00000000000E+00  0.22448385096E+02  0.22448385096E+02  0.00000000000E+00 0.  1.
          2   -1    0    0  501    0  0.00000000000E+00 -0.00000000000E+00 -0.13098215219E+03  0.13098215219E+03  0.00000000000E+00 0. -1.
         23    2    1    2    0    0  0.11348997023E+02  0.67893492514E+01 -0.77345561606E+02  0.11955430435E+03  0.90199782653E+02 0.  0.
         11    1    3    3    0    0  0.31174339967E+02 -0.10320096207E+02  0.49350336235E+01  0.33206903122E+02  0.00000000000E+00 0.  1.
        -11    1    3    3    0    0 -0.19825342944E+02  0.17109445458E+02 -0.82280595230E+02  0.86347401224E+02  0.00000000000E+00 0. -1.
         22    1    1    2    0    0 -0.11348997023E+02 -0.67893492514E+01 -0.31188205486E+02  0.33876232938E+02  0.00000000000E+00 0. -1.
<mgrwt>
<rscale>  0 0.56261993E+02</rscale>
<asrwt>0</asrwt>
<pdfrwt beam="1">  1        2 0.20151101E-01 0.91164115E+02</pdfrwt>
<pdfrwt beam="2">  1       -2 0.34535977E-02 0.91164115E+02</pdfrwt>
<totfact> 0.80709655E+04</totfact>
</mgrwt>
</event>
<event>
 6    1  0.1828142E-002  0.8508728E+02  0.7546771E-02  0.1410339E+00
          4   -1    0    0  501    0  0.00000000000E+00  0.00000000000E+00  0.28081434879E+02  0.28081434879E+02  0.00000000000E+00 0. -1.
         -4   -1    0    0    0  501 -0.00000000000E+00 -0.00000000000E+00 -0.98486800740E+02  0.98486800740E+02  0.00000000000E+00 0.  1.
         23    2    1    2    0    0 -0.12552379723E+02  0.11873700455E+02 -0.46177158378E+02  0.96809992440E+02  0.83314450615E+02 0.  0.
         13    1    3    3    0    0 -0.13129780309E+02  0.34046501700E+02 -0.60324105090E+02  0.70502149356E+02  0.00000000000E+00 0. -1.
        -13    1    3    3    0    0  0.57740058595E+00 -0.22172801244E+02  0.14146946712E+02  0.26307843084E+02  0.00000000000E+00 0.  1.
         22    1    1    2    0    0  0.12552379723E+02 -0.11873700455E+02 -0.24228207483E+02  0.29758243178E+02  0.00000000000E+00 0.  1.
<mgrwt>
<rscale>  0 0.57118272E+02</rscale>
<asrwt>0</asrwt>
<pdfrwt beam="1">  1        4 0.43202208E-02 0.85087277E+02</pdfrwt>
<pdfrwt beam="2">  1       -4 0.15151815E-01 0.85087277E+02</pdfrwt>
<totfact> 0.15803714E+04</totfact>
</mgrwt>
</event>
<event>
 6    1  0.1828142E-002  0.9486422E+02  0.7546771E-02  0.1371901E+00
         -2   -1    0    0    0  501 -0.00000000000E+00  0.00000000000E+00  0.11846774913E+03  0.11846774913E+03  0.00000000000E+00 0. -1.
          2   -1    0    0  501    0  0.00000000000E+00 -0.00000000000E+00 -0.29371923452E+02  0.29371923452E+02  0.00000000000E+00 0.  1.
         23    2    1    2    0    0 -0.37544299064E+01  0.22796299989E+02  0.70914652517E+02  0.11844031724E+03  0.92007900580E+02 0.  0.
         11    1    3    3    0    0 -0.28337794406E+01  0.29738480683E+02  0.91733565038E+02  0.96475149618E+02  0.00000000000E+00 0. -1.
        -11    1    3    3    0    0 -0.92065046579E+00 -0.69421806942E+01 -0.20818912521E+02  0.21965167621E+02  0.00000000000E+00 0.  1.
         22    1    1    2    0    0  0.37544299064E+01 -0.22796299989E+02  0.18181173163E+02  0.29399355345E+02  0.00000000000E+00 0.  1.
<mgrwt>
<rscale>  0 0.66641660E+02</rscale>
<asrwt>0</asrwt>
<pdfrwt beam="1">  1        2 0.45187575E-02 0.94864223E+02</pdfrwt>
<pdfrwt beam="2">  1       -2 0.18225807E-01 0.94864223E+02</pdfrwt>
<totfact> 0.38609852E+04</totfact>
</mgrwt>
</event>
<event>
 6    1  0.1828142E-002  0.9077838E+02  0.7546771E-02  0.1422143E+00
         -2   -1    0    0    0  501 -0.00000000000E+00  0.00000000000E+00  0.16180366405E+02  0.16180366405E+02  0.00000000000E+00 0.  1.
          2   -1    0    0  501    0  0.00000000000E+00 -0.00000000000E+00 -0.16562917736E+03  0.16562917736E+03  0.00000000000E+00 0. -1.
         23    2    1    2    0    0 -0.77997172684E+01  0.89266976745E+01 -0.12343159995E+03  0.15321904203E+03  0.90001074739E+02 0.  0.
         13    1    3    3    0    0 -0.52124868689E+01 -0.28216130827E+02 -0.50682173937E+01  0.29137722728E+02  0.00000000000E+00 0.  1.
        -13    1    3    3    0    0 -0.25872303995E+01  0.37142828502E+02 -0.11836338256E+03  0.12408131930E+03  0.00000000000E+00 0. -1.
         22    1    1    2    0    0  0.77997172684E+01 -0.89266976745E+01 -0.26017211006E+02  0.28590501734E+02  0.00000000000E+00 0.  1.
<mgrwt>
<rscale>  0 0.54570093E+02</rscale>
<asrwt>0</asrwt>
<pdfrwt beam="1">  1        2 0.25481412E-01 0.90778384E+02</pdfrwt>
<pdfrwt beam="2">  1       -2 0.24892872E-02 0.90778384E+02</pdfrwt>
<totfact> 0.10023953E+05</totfact>
</mgrwt>
</event>
<event>
 6    1  0.1828142E-002  0.1048402E+03  0.7546771E-02  0.1311021E+00
         -2   -1    0    0    0  501 -0.00000000000E+00  0.00000000000E+00  0.32224617385E+03  0.32224617385E+03  0.00000000000E+00 0. -1.
          2   -1    0    0  501    0  0.00000000000E+00 -0.00000000000E+00 -0.28728855545E+02  0.28728855545E+02  0.00000000000E+00 0.  1.
         23    2    1    2    0    0 -0.14637568933E+02 -0.46820882512E+02  0.79950540421E+02  0.13184670608E+03  0.92655337282E+02 0.  0.
         13    1    3    3    0    0 -0.21520252027E+02  0.14457336467E+02  0.62649757869E+02  0.67802123758E+02  0.00000000000E+00 0. -1.
        -13    1    3    3    0    0  0.68826830937E+01 -0.61278218980E+02  0.17300782552E+02  0.64044582322E+02  0.00000000000E+00 0.  1.
         22    1    1    2    0    0  0.14637568933E+02  0.46820882512E+02  0.21356677789E+03  0.21912832332E+03  0.00000000000E+00 0. -1.
<mgrwt>
<rscale>  0 0.86709768E+02</rscale>
<asrwt>0</asrwt>
<pdfrwt beam="1">  1        2 0.44198241E-02 0.10484019E+03</pdfrwt>
<pdfrwt beam="2">  1       -2 0.49576332E-01 0.10484019E+03</pdfrwt>
<totfact> 0.66734545E+03</totfact>
</mgrwt>
</event>
<event>
 6    1  0.1828142E-002  0.8942420E+02  0.7546771E-02  0.1369422E+00
         -1   -1    0    0    0  501 -0.00000000000E+00  0.00000000000E+00  0.32300724094E+03  0.32300724094E+03  0.00000000000E+00 0. -1.
          1   -1    0    0  501    0  0.00000000000E+00 -0.00000000000E+00 -0.13338079014E+02  0.13338079014E+02  0.00000000000E+00 0.  1.
         23    2    1    2    0    0  0.66564507583E+01 -0.27954267581E+02  0.28423527029E+03  0.29797042899E+03  0.84681392670E+02 0.  0.
         11    1    3    3    0    0 -0.32525473409E+02 -0.78360155104E+01  0.20133632160E+03  0.20409709443E+03  0.00000000000E+00 0. -1.
        -11    1    3    3    0    0  0.39181924167E+02 -0.20118252070E+02  0.82898948685E+02  0.93873334557E+02  0.00000000000E+00 0.  1.
         22    1    1    2    0    0 -0.66564507583E+01  0.27954267581E+02  0.25433891643E+02  0.38374890968E+02  0.00000000000E+00 0.  1.
<mgrwt>
<rscale>  0 0.67328251E+02</rscale>
<asrwt>0</asrwt>
<pdfrwt beam="1">  1        1 0.20520124E-02 0.89424201E+02</pdfrwt>
<pdfrwt beam="2">  1       -1 0.49693416E-01 0.89424201E+02</pdfrwt>
<totfact> 0.21407893E+04</totfact>
</mgrwt>
</event>
<event>
 6    1  0.1828142E-002  0.1495344E+03  0.7546771E-02  0.1211682E+00
          2   -1    0    0  501    0  0.00000000000E+00  0.00000000000E+00  0.48940093027E+02  0.48940093027E+02  0.00000000000E+00 0. -1.
         -2   -1    0    0    0  501 -0.00000000000E+00 -0.00000000000E+00 -0.39833280384E+03  0.39833280384E+03  0.00000000000E+00 0.  1.
         23    2    1    2    0    0  0.22657305000E+02  0.11680958105E+03 -0.13206078370E+03  0.19950082774E+03  0.90568747272E+02 0.  0.
         13    1    3    3    0    0 -0.20083628703E+02 -0.46438503810E+01 -0.15082717297E+02  0.25542236576E+02  0.00000000000E+00 0.  1.
        -13    1    3    3    0    0  0.42740933703E+02  0.12145343143E+03 -0.11697806640E+03  0.17395859116E+03  0.00000000000E+00 0. -1.
         22    1    1    2    0    0 -0.22657305000E+02 -0.11680958105E+03 -0.21733192712E+03  0.24777206913E+03  0.00000000000E+00 0.  1.
<mgrwt>
<rscale>  0 0.14123111E+03</rscale>
<asrwt>0</asrwt>
<pdfrwt beam="1">  1        2 0.75292449E-02 0.14953438E+03</pdfrwt>
<pdfrwt beam="2">  1       -2 0.61281971E-01 0.14953438E+03</pdfrwt>
<totfact> 0.22510093E+03</totfact>
</mgrwt>
</event>
<event>
 6    1  0.1828142E-002  0.9228943E+02  0.7546771E-02  0.1427868E+00
          2   -1    0    0  501    0  0.00000000000E+00  0.00000000000E+00  0.25973235259E+03  0.25973235259E+03  0.00000000000E+00 0. -1.
         -2   -1    0    0    0  501 -0.00000000000E+00 -0.00000000000E+00 -0.10348161657E+02  0.10348161657E+02  0.00000000000E+00 0.  1.
         23    2    1    2    0    0  0.10311663881E+02 -0.72273856375E+00  0.23404109284E+03  0.25158015149E+03  0.91708705824E+02 0.  0.
         13    1    3    3    0    0  0.51295670731E+01  0.77579114418E+01  0.23987539767E+03  0.24005562700E+03  0.00000000000E+00 0. -1.
        -13    1    3    3    0    0  0.51820968083E+01 -0.84806500056E+01 -0.58343048305E+01  0.11524524489E+02  0.00000000000E+00 0.  1.
         22    1    1    2    0    0 -0.10311663881E+02  0.72273856375E+00  0.15343098102E+02  0.18500362764E+02  0.00000000000E+00 0.  1.
<mgrwt>
<rscale>  0 0.53390281E+02</rscale>
<asrwt>0</asrwt>
<pdfrwt beam="1">  1        2 0.39958819E-01 0.92289433E+02</pdfrwt>
<pdfrwt beam="2">  1       -2 0.15920251E-02 0.92289433E+02</pdfrwt>
<totfact> 0.11825300E+05</totfact>
</mgrwt>
</event>
<event>
 6    1  0.1828142E-002  0.1101046E+03  0.7546771E-02  0.1375115E+00
          2   -1    0    0  501    0  0.00000000000E+00  0.00000000000E+00  0.19965571474E+02  0.19965571474E+02  0.00000000000E+00 0. -1.
         -2   -1    0    0    0  501 -0.00000000000E+00 -0.00000000000E+00 -0.20281831424E+03  0.20281831424E+03  0.00000000000E+00 0.  1.
         23    2    1    2    0    0 -0.13012489378E+02 -0.52036737731E+01 -0.17489695587E+03  0.20666874856E+03  0.10920908092E+03 0.  0.
         11    1    3    3    0    0  0.11414807162E+02  0.26578580738E+02 -0.17901141392E+01  0.28981430006E+02  0.00000000000E+00 0. -1.
        -11    1    3    3    0    0 -0.24427296539E+02 -0.31782254511E+02 -0.17310684173E+03  0.17768731855E+03  0.00000000000E+00 0.  1.
         22    1    1    2    0    0  0.13012489378E+02  0.52036737731E+01 -0.79557868921E+01  0.16115137158E+02  0.00000000000E+00 0. -1.
<mgrwt>
<rscale>  0 0.65765434E+02</rscale>
<asrwt>0</asrwt>
<pdfrwt beam="1">  1        2 0.30716265E-02 0.11010462E+03</pdfrwt>
<pdfrwt beam="2">  1       -2 0.31202817E-01 0.11010462E+03</pdfrwt>
<totfact> 0.25900507E+04</totfact>
</mgrwt>
</event>
<event>
 6    1  0.1828142E-002  0.8484412E+02  0.7546771E-02  0.1383411E+00
          2   -1    0    0  501    0  0.00000000000E+00  0.00000000000E+00  0.59813281704E+02  0.59813281704E+02  0.00000000000E+00 0. -1.
         -2   -1    0    0    0  501 -0.00000000000E+00 -0.00000000000E+00 -0.53844891934E+02  0.53844891934E+02  0.00000000000E+00 0.  1.
         23    2    1    2    0    0 -0.14147488732E+02 -0.22700604427E+02 -0.44303107873E+01  0.84959709357E+02  0.80517424707E+02 0.  0.
         13    1    3    3    0    0 -0.46280117001E+02 -0.39360480422E+01  0.45844525161E+01  0.46672892654E+02  0.00000000000E+00 0.  1.
        -13    1    3    3    0    0  0.32132628269E+02 -0.18764556385E+02 -0.90147633034E+01  0.38286816703E+02  0.00000000000E+00 0. -1.
         22    1    1    2    0    0  0.14147488732E+02  0.22700604427E+02  0.10398700558E+02  0.28698464281E+02  0.00000000000E+00 0. -1.
<mgrwt>
<rscale>  0 0.63575554E+02</rscale>
<asrwt>0</asrwt>
<pdfrwt beam="1">  1        2 0.92020434E-02 0.84844119E+02</pdfrwt>
<pdfrwt beam="2">  1       -2 0.82838295E-02 0.84844119E+02</pdfrwt>
<totfact> 0.54118809E+04</totfact>
</mgrwt>
</event>
<event>
 6    1  0.1828142E-002  0.9344706E+02  0.7546771E-02  0.1388868E+00
         -2   -1    0    0    0  501 -0.00000000000E+00  0.00000000000E+00  0.61917019899E+03  0.61917019899E+03  0.00000000000E+00 0.  1.
          2   -1    0    0  501    0  0.00000000000E+00 -0.00000000000E+00 -0.64342236764E+01  0.64342236764E+01  0.00000000000E+00 0. -1.
         23    2    1    2    0    0 -0.92193576460E+01  0.15842832808E+02  0.58461835246E+03  0.59203967000E+03  0.91631658888E+02 0.  0.
         13    1    3    3    0    0  0.33514932610E+02 -0.98826258689E+01  0.37251372307E+03  0.37414888865E+03  0.00000000000E+00 0.  1.
        -13    1    3    3    0    0 -0.42734290256E+02  0.25725458677E+02  0.21210462939E+03  0.21789078135E+03  0.00000000000E+00 0. -1.
         22    1    1    2    0    0  0.92193576460E+01 -0.15842832808E+02  0.28117622852E+02  0.33564752668E+02  0.00000000000E+00 0.  1.
<mgrwt>
<rscale>  0 0.62189252E+02</rscale>
<asrwt>0</asrwt>
<pdfrwt beam="1">  1        2 0.98988106E-03 0.93447059E+02</pdfrwt>
<pdfrwt beam="2">  1       -2 0.95256906E-01 0.93447059E+02</pdfrwt>
<totfact> 0.12481066E+04</totfact>
</mgrwt>
</event>
<event>
 6    1  0.1828142E-002  0.1413718E+03  0.7546771E-02  0.1224942E+00
         -1   -1    0    0    0  501 -0.00000000000E+00  0.00000000000E+00  0.17240845539E+03  0.17240845539E+03  0.00000000000E+00 0.  1.
          1   -1    0    0  501    0  0.00000000000E+00 -0.00000000000E+00 -0.13124581093E+03  0.13124581093E+03  0.00000000000E+00 0. -1.
         23    2    1    2    0    0  0.70483390019E+02 -0.79846193898E+02  0.10800861982E+03  0.17790965463E+03  0.92965909375E+02 0.  0.
         13    1    3    3    0    0  0.17419295595E+02 -0.18969187420E+02 -0.15709248028E+02  0.30166909089E+02  0.00000000000E+00 0. -1.
        -13    1    3    3    0    0  0.53064094425E+02 -0.60877006478E+02  0.12371786784E+03  0.14774274554E+03  0.00000000000E+00 0.  1.
         22    1    1    2    0    0 -0.70483390019E+02  0.79846193898E+02 -0.66845975358E+02  0.12574461169E+03  0.00000000000E+00 0. -1.
<mgrwt>
<rscale>  0 0.13170874E+03</rscale>
<asrwt>0</asrwt>
<pdfrwt beam="1">  1        1 0.20191663E-01 0.14137179E+03</pdfrwt>
<pdfrwt beam="2">  1       -1 0.26524378E-01 0.14137179E+03</pdfrwt>
<totfact> 0.30744353E+03</totfact>
</mgrwt>
</event>
<event>
 6    1  0.1828142E-002  0.9266792E+02  0.7546771E-02  0.1407712E+00
          4   -1    0    0  501    0  0.00000000000E+00  0.00000000000E+00  0.61952678496E+02  0.61952678496E+02  0.00000000000E+00 0. -1.
         -4   -1    0    0    0  501 -0.00000000000E+00 -0.00000000000E+00 -0.46683723817E+02  0.46683723817E+02  0.00000000000E+00 0.  1.
         23    2    1    2    0    0 -0.11051906283E+02 -0.84893527456E+01  0.82551566632E+01  0.93034892606E+02  0.91614026700E+02 0.  0.
         11    1    3    3    0    0 -0.56288092778E+01  0.30840091003E+02  0.33583685317E+02  0.45941904907E+02  0.00000000000E+00 0. -1.
        -11    1    3    3    0    0 -0.54230970055E+01 -0.39329443749E+02 -0.25328528654E+02  0.47092987700E+02  0.00000000000E+00 0.  1.
         22    1    1    2    0    0  0.11051906283E+02  0.84893527456E+01  0.70137980158E+01  0.15601509707E+02  0.00000000000E+00 0. -1.
<mgrwt>
<rscale>  0 0.57707473E+02</rscale>
<asrwt>0</asrwt>
<pdfrwt beam="1">  1        4 0.95311813E-02 0.92667921E+02</pdfrwt>
<pdfrwt beam="2">  1       -4 0.71821114E-02 0.92667921E+02</pdfrwt>
<totfact> 0.15770501E+04</totfact>
</mgrwt>
</event>
<event>
 6    1  0.1828142E-002  0.8973611E+02  0.7546771E-02  0.1429878E+00
         -2   -1    0    0    0  501 -0.00000000000E+00  0.00000000000E+00  0.18906498212E+03  0.18906498212E+03  0.00000000000E+00 0.  1.
          2   -1    0    0  501    0  0.00000000000E+00 -0.00000000000E+00 -0.13613756679E+02  0.13613756679E+02  0.00000000000E+00 0. -1.
         23    2    1    2    0    0 -0.10764103719E+02 -0.17577271451E+01  0.16344172945E+03  0.18645580665E+03  0.89070833461E+02 0.  0.
         11    1    3    3    0    0  0.33067341879E+02 -0.33396619375E+00  0.25641394333E+02  0.41845450598E+02  0.00000000000E+00 0. -1.
        -11    1    3    3    0    0 -0.43831445598E+02 -0.14237609513E+01  0.13780033512E+03  0.14461035605E+03  0.00000000000E+00 0.  1.
         22    1    1    2    0    0  0.10764103719E+02  0.17577271451E+01  0.12009495983E+02  0.16222932144E+02  0.00000000000E+00 0. -1.
<mgrwt>
<rscale>  0 0.52984458E+02</rscale>
<asrwt>0</asrwt>
<pdfrwt beam="1">  1        2 0.20944242E-02 0.89736107E+02</pdfrwt>
<pdfrwt beam="2">  1       -2 0.29086918E-01 0.89736107E+02</pdfrwt>
<totfact> 0.47695752E+04</totfact>
</mgrwt>
</event>
<event>
 6    1  0.1828142E-002  0.9089208E+02  0.7546771E-02  0.1422632E+00
          3   -1    0    0  501    0  0.00000000000E+00  0.00000000000E+00  0.60315014091E+02  0.60315014091E+02  0.00000000000E+00 0. -1.
         -3   -1    0    0    0  501 -0.00000000000E+00 -0.00000000000E+00 -0.53023254009E+02  0.53023254009E+02  0.00000000000E+00 0.  1.
         23    2    1    2    0    0 -0.11701953265E+02 -0.67719650655E+00 -0.11060049631E+02  0.91562519547E+02  0.90133101481E+02 0.  0.
         11    1    3    3    0    0 -0.22654502664E+02  0.24087605425E+02 -0.40020762516E+02  0.51914358885E+02  0.00000000000E+00 0.  1.
        -11    1    3    3    0    0  0.10952549399E+02 -0.24764801932E+02  0.28960712885E+02  0.39648160662E+02  0.00000000000E+00 0. -1.
         22    1    1    2    0    0  0.11701953265E+02  0.67719650655E+00  0.18351809713E+02  0.21775748553E+02  0.00000000000E+00 0. -1.
<mgrwt>
<rscale>  0 0.54467899E+02</rscale>
<asrwt>0</asrwt>
<pdfrwt beam="1">  1        3 0.92792329E-02 0.90892080E+02</pdfrwt>
<pdfrwt beam="2">  1       -3 0.81574237E-02 0.90892080E+02</pdfrwt>
<totfact> 0.17641473E+04</totfact>
</mgrwt>
</event>
<event>
 6    1  0.1828142E-002  0.9007098E+02  0.7546771E-02  0.1418394E+00
          2   -1    0    0  501    0  0.00000000000E+00  0.00000000000E+00  0.21896903726E+03  0.21896903726E+03  0.00000000000E+00 0.  1.
         -2   -1    0    0    0  501 -0.00000000000E+00 -0.00000000000E+00 -0.13644560024E+02  0.13644560024E+02  0.00000000000E+00 0. -1.
         23    2    1    2    0    0  0.10735197759E+02 -0.70727895188E+01  0.14318984380E+03  0.16916297479E+03  0.89148818558E+02 0.  0.
         13    1    3    3    0    0  0.26975260392E+02  0.35453192240E+02  0.71175830556E+02  0.83967805548E+02  0.00000000000E+00 0.  1.
        -13    1    3    3    0    0 -0.16240062633E+02 -0.42525981759E+02  0.72014013240E+02  0.85195169239E+02  0.00000000000E+00 0. -1.
         22    1    1    2    0    0 -0.10735197759E+02  0.70727895188E+01  0.62134633444E+02  0.63450622501E+02  0.00000000000E+00 0.  1.
<mgrwt>
<rscale>  0 0.55362095E+02</rscale>
<asrwt>0</asrwt>
<pdfrwt beam="1">  1        2 0.33687542E-01 0.90070976E+02</pdfrwt>
<pdfrwt beam="2">  1       -2 0.20991632E-02 0.90070976E+02</pdfrwt>
<totfact> 0.94895708E+04</totfact>
</mgrwt>
</event>
<event>
 6    1  0.1828142E-002  0.8619662E+02  0.7546771E-02  0.1429432E+00
         -2   -1    0    0    0  501 -0.00000000000E+00  0.00000000000E+00  0.60367984512E+03  0.60367984512E+03  0.00000000000E+00 0.  1.
          2   -1    0    0  501    0  0.00000000000E+00 -0.00000000000E+00 -0.41558569037E+01  0.41558569037E+01  0.00000000000E+00 0. -1.
         23    2    1    2    0    0  0.11667038578E+02  0.41694918922E+01  0.55357659372E+03  0.56024717912E+03  0.85301536548E+02 0.  0.
         11    1    3    3    0    0  0.46643686860E+02 -0.10840663306E+02  0.28713873575E+03  0.29110446075E+03  0.00000000000E+00 0.  1.
        -11    1    3    3    0    0 -0.34976648282E+02  0.15010155198E+02  0.26643785798E+03  0.26914271836E+03  0.00000000000E+00 0. -1.
         22    1    1    2    0    0 -0.11667038578E+02 -0.41694918922E+01  0.45947394491E+02  0.47588522906E+02  0.00000000000E+00 0. -1.
<mgrwt>
<rscale>  0 0.53074118E+02</rscale>
<asrwt>0</asrwt>
<pdfrwt beam="1">  1        2 0.63936308E-03 0.86196616E+02</pdfrwt>
<pdfrwt beam="2">  1       -2 0.92873753E-01 0.86196616E+02</pdfrwt>
<totfact> 0.23791225E+04</totfact>
</mgrwt>
</event>
<event>
 6    1  0.1828142E-002  0.8923289E+02  0.7546771E-02  0.1434860E+00
         -4   -1    0    0    0  501 -0.00000000000E+00  0.00000000000E+00  0.48438146756E+01  0.48438146756E+01  0.00000000000E+00 0.  1.
          4   -1    0    0  501    0  0.00000000000E+00 -0.00000000000E+00 -0.51212579550E+03  0.51212579550E+03  0.00000000000E+00 0. -1.
         23    2    1    2    0    0 -0.29473801821E+01 -0.98566780703E+01 -0.46122048730E+03  0.46977318724E+03  0.88637849640E+02 0.  0.
         13    1    3    3    0    0 -0.45527026289E+02 -0.35084654938E+01 -0.21199576841E+03  0.21685761522E+03  0.00000000000E+00 0. -1.
        -13    1    3    3    0    0  0.42579646107E+02 -0.63482125766E+01 -0.24922471889E+03  0.25291557202E+03  0.00000000000E+00 0.  1.
         22    1    1    2    0    0  0.29473801821E+01  0.98566780703E+01 -0.46061493528E+02  0.47196422943E+02  0.00000000000E+00 0.  1.
<mgrwt>
<rscale>  0 0.51996673E+02</rscale>
<asrwt>0</asrwt>
<pdfrwt beam="1">  1        4 0.78788588E-01 0.89232895E+02</pdfrwt>
<pdfrwt beam="2">  1       -4 0.74520222E-03 0.89232895E+02</pdfrwt>
<totfact> 0.97723089E+03</totfact>
</mgrwt>
</event>
<event>
 6    1  0.1828142E-002  0.9512481E+02  0.7546771E-02  0.1356391E+00
         -4   -1    0    0    0  501 -0.00000000000E+00  0.00000000000E+00  0.95669531047E+02  0.95669531047E+02  0.00000000000E+00 0.  1.
          4   -1    0    0  501    0  0.00000000000E+00 -0.00000000000E+00 -0.41248806856E+02  0.41248806856E+02  0.00000000000E+00 0. -1.
         23    2    1    2    0    0 -0.22612580190E+02  0.19238857213E+02  0.34606155720E+02  0.10122408720E+03  0.90372935139E+02 0.  0.
         11    1    3    3    0    0 -0.13005148879E+02  0.24777911416E+02  0.63977003710E+02  0.69829333344E+02  0.00000000000E+00 0.  1.
        -11    1    3    3    0    0 -0.96074313110E+01 -0.55390542030E+01 -0.29370847991E+02  0.31394753854E+02  0.00000000000E+00 0. -1.
         22    1    1    2    0    0  0.22612580190E+02 -0.19238857213E+02  0.19814568472E+02  0.35694250705E+02  0.00000000000E+00 0.  1.
<mgrwt>
<rscale>  0 0.71100202E+02</rscale>
<asrwt>0</asrwt>
<pdfrwt beam="1">  1        4 0.63459703E-02 0.95124812E+02</pdfrwt>
<pdfrwt beam="2">  1       -4 0.14718389E-01 0.95124812E+02</pdfrwt>
<totfact> 0.93019882E+03</totfact>
</mgrwt>
</event>
<event>
 6    1  0.1828142E-002  0.9140329E+02  0.7546771E-02  0.1415576E+00
          2   -1    0    0  501    0  0.00000000000E+00  0.00000000000E+00  0.32606797700E+02  0.32606797700E+02  0.00000000000E+00 0. -1.
         -2   -1    0    0    0  501 -0.00000000000E+00 -0.00000000000E+00 -0.98522902383E+02  0.98522902383E+02  0.00000000000E+00 0.  1.
         23    2    1    2    0    0 -0.97281019774E+01 -0.83941984937E+01 -0.72524716834E+02  0.11668074542E+03  0.90495653279E+02 0.  0.
         11    1    3    3    0    0 -0.38727138702E+02 -0.73306264480E+01 -0.77773945288E+02  0.87191260581E+02  0.00000000000E+00 0.  1.
        -11    1    3    3    0    0  0.28999036725E+02 -0.10635720456E+01  0.52492284532E+01  0.29489484834E+02  0.00000000000E+00 0. -1.
         22    1    1    2    0    0  0.97281019774E+01  0.83941984937E+01  0.66086121512E+01  0.14448954668E+02  0.00000000000E+00 0. -1.
<mgrwt>
<rscale>  0 0.55967935E+02</rscale>
<asrwt>0</asrwt>
<pdfrwt beam="1">  1        2 0.50164305E-02 0.91403292E+02</pdfrwt>
<pdfrwt beam="2">  1       -2 0.15157369E-01 0.91403292E+02</pdfrwt>
<totfact> 0.45380869E+04</totfact>
</mgrwt>
</event>
<event>
 6    1  0.1828142E-002  0.1041256E+03  0.7546771E-02  0.1308321E+00
         -2   -1    0    0    0  501 -0.00000000000E+00  0.00000000000E+00  0.25555480798E+02  0.25555480798E+02  0.00000000000E+00 0.  1.
          2   -1    0    0  501    0  0.00000000000E+00 -0.00000000000E+00 -0.32078279099E+03  0.32078279099E+03  0.00000000000E+00 0. -1.
         23    2    1    2    0    0  0.41871851725E+02  0.31817289965E+02 -0.10079627290E+03  0.14492074482E+03  0.89869581843E+02 0.  0.
         13    1    3    3    0    0  0.44263974038E+02  0.59628155550E+02 -0.59911845686E+02  0.95416170461E+02  0.00000000000E+00 0.  1.
        -13    1    3    3    0    0 -0.23921223128E+01 -0.27810865585E+02 -0.40884427214E+02  0.49504574358E+02  0.00000000000E+00 0. -1.
         22    1    1    2    0    0 -0.41871851725E+02 -0.31817289965E+02 -0.19443103729E+03  0.20141752697E+03  0.00000000000E+00 0. -1.
<mgrwt>
<rscale>  0 0.87779185E+02</rscale>
<asrwt>0</asrwt>
<pdfrwt beam="1">  1        2 0.49351197E-01 0.10412557E+03</pdfrwt>
<pdfrwt beam="2">  1       -2 0.39316126E-02 0.10412557E+03</pdfrwt>
<totfact> 0.25965069E+04</totfact>
</mgrwt>
</event>
<event>
 6    1  0.1828142E-002  0.8813755E+02  0.7546771E-02  0.1372777E+00
         -1   -1    0    0    0  501 -0.00000000000E+00  0.00000000000E+00  0.99654328164E+02  0.99654328164E+02  0.00000000000E+00 0.  1.
          1   -1    0    0  501    0  0.00000000000E+00 -0.00000000000E+00 -0.49418507036E+02  0.49418507036E+02  0.00000000000E+00 0. -1.
         23    2    1    2    0    0  0.18065201106E+02 -0.21905220333E+02  0.71587234689E+02  0.11354716800E+03  0.83438822031E+02 0.  0.
         11    1    3    3    0    0  0.27506989057E+02 -0.87933858641E+01  0.86724738379E+02  0.91406445773E+02  0.00000000000E+00 0.  1.
        -11    1    3    3    0    0 -0.94417879502E+01 -0.13111834469E+02 -0.15137503690E+02  0.22140722229E+02  0.00000000000E+00 0. -1.
         22    1    1    2    0    0 -0.18065201106E+02  0.21905220333E+02 -0.21351413561E+02  0.35525667199E+02  0.00000000000E+00 0. -1.
<mgrwt>
<rscale>  0 0.66401120E+02</rscale>
<asrwt>0</asrwt>
<pdfrwt beam="1">  1        1 0.76028472E-02 0.88137547E+02</pdfrwt>
<pdfrwt beam="2">  1       -1 0.15331435E-01 0.88137547E+02</pdfrwt>
<totfact> 0.25296597E+04</totfact>
</mgrwt>
</event>
<event>
 6    1  0.1828142E-002  0.8636788E+02  0.7546771E-02  0.1439466E+00
          2   -1    0    0  501    0  0.00000000000E+00  0.00000000000E+00  0.12408855555E+02  0.12408855555E+02  0.00000000000E+00 0. -1.
         -2   -1    0    0    0  501 -0.00000000000E+00 -0.00000000000E+00 -0.27647013296E+03  0.27647013296E+03  0.00000000000E+00 0.  1.
         23    2    1    2    0    0  0.58918698009E+01  0.87976724765E+01 -0.26453789975E+03  0.27827991593E+03  0.85716381371E+02 0.  0.
         13    1    3    3    0    0 -0.55115512940E+01  0.36625840117E+02 -0.53261695858E+02  0.64874013346E+02  0.00000000000E+00 0. -1.
        -13    1    3    3    0    0  0.11403421095E+02 -0.27828167640E+02 -0.21127620389E+03  0.21340590259E+03  0.00000000000E+00 0.  1.
         22    1    1    2    0    0 -0.58918698009E+01 -0.87976724765E+01  0.47662234621E+00  0.10599072583E+02  0.00000000000E+00 0. -1.
<mgrwt>
<rscale>  0 0.51105929E+02</rscale>
<asrwt>0</asrwt>
<pdfrwt beam="1">  1        2 0.19090547E-02 0.86367883E+02</pdfrwt>
<pdfrwt beam="2">  1       -2 0.42533866E-01 0.86367883E+02</pdfrwt>
<totfact> 0.26783162E+04</totfact>
</mgrwt>
</event>
<event>
 6    1  0.1828142E-002  0.9645095E+02  0.7546771E-02  0.1374192E+00
         -1   -1    0    0    0  501 -0.00000000000E+00  0.00000000000E+00  0.90295499108E+01  0.90295499108E+01  0.00000000000E+00 0.  1.
          1   -1    0    0  501    0  0.00000000000E+00 -0.00000000000E+00 -0.39099028265E+03  0.39099028265E+03  0.00000000000E+00 0. -1.
         23    2    1    2    0    0 -0.19697922278E+02  0.77481313426E+01 -0.28863404228E+03  0.30432284811E+03  0.94099648437E+02 0.  0.
         13    1    3    3    0    0 -0.31616823186E+02  0.17688100931E+02 -0.28635383311E+03  0.28863646713E+03  0.00000000000E+00 0. -1.
        -13    1    3    3    0    0  0.11918900908E+02 -0.99399695884E+01 -0.22802091733E+01  0.15686380977E+02  0.00000000000E+00 0.  1.
         22    1    1    2    0    0  0.19697922278E+02 -0.77481313426E+01 -0.93326690453E+02  0.95696984447E+02  0.00000000000E+00 0. -1.
<mgrwt>
<rscale>  0 0.66015312E+02</rscale>
<asrwt>0</asrwt>
<pdfrwt beam="1">  1        1 0.60152364E-01 0.96450949E+02</pdfrwt>
<pdfrwt beam="2">  1       -1 0.13891612E-02 0.96450949E+02</pdfrwt>
<totfact> 0.64077684E+04</totfact>
</mgrwt>
</event>
<event>
 6    1  0.1828142E-002  0.8886393E+02  0.7546771E-02  0.1404204E+00
         -2   -1    0    0    0  501 -0.00000000000E+00  0.00000000000E+00  0.82908216103E+02  0.82908216103E+02  0.00000000000E+00 0.  1.
          2   -1    0    0  501    0  0.00000000000E+00 -0.00000000000E+00 -0.33691586548E+02  0.33691586548E+02  0.00000000000E+00 0. -1.
         23    2    1    2    0    0  0.41228650055E+01  0.16181304039E+02  0.43588426694E+02  0.98978529039E+02  0.87280958134E+02 0.  0.
         13    1    3    3    0    0  0.28653874411E+02  0.11512683074E+02 -0.15702768296E+02  0.34643373428E+02  0.00000000000E+00 0. -1.
        -13    1    3    3    0    0 -0.24531009405E+02  0.46686209649E+01  0.59291194989E+02  0.64335155611E+02  0.00000000000E+00 0.  1.
         22    1    1    2    0    0 -0.41228650055E+01 -0.16181304039E+02  0.56282028621E+01  0.17621273612E+02  0.00000000000E+00 0. -1.
<mgrwt>
<rscale>  0 0.58507574E+02</rscale>
<asrwt>0</asrwt>
<pdfrwt beam="1">  1        2 0.51833210E-02 0.88863931E+02</pdfrwt>
<pdfrwt beam="2">  1       -2 0.12755110E-01 0.88863931E+02</pdfrwt>
<totfact> 0.57149192E+04</totfact>
</mgrwt>
</event>
<event>
 6    1  0.1828142E-002  0.9524474E+02  0.7546771E-02  0.1365152E+00
          2   -1    0    0  501    0  0.00000000000E+00  0.00000000000E+00  0.18557779231E+03  0.18557779231E+03  0.00000000000E+00 0. -1.
         -2   -1    0    0    0  501 -0.00000000000E+00 -0.00000000000E+00 -0.19819258012E+02  0.19819258012E+02  0.00000000000E+00 0.  1.
         23    2    1    2    0    0  0.46314296892E+01  0.25108633203E+02  0.12256461174E+03  0.15522127382E+03  0.91758739045E+02 0.  0.
         11    1    3    3    0    0  0.42322812452E+02  0.36479926521E+02  0.72141141126E+02  0.91248834161E+02  0.00000000000E+00 0.  1.
        -11    1    3    3    0    0 -0.37691382763E+02 -0.11371293318E+02  0.50423470616E+02  0.63972439654E+02  0.00000000000E+00 0. -1.
         22    1    1    2    0    0 -0.46314296892E+01 -0.25108633203E+02  0.43193922554E+02  0.50175776505E+02  0.00000000000E+00 0. -1.
<mgrwt>
<rscale>  0 0.68533487E+02</rscale>
<asrwt>0</asrwt>
<pdfrwt beam="1">  1        2 0.28550428E-01 0.95244736E+02</pdfrwt>
<pdfrwt beam="2">  1       -2 0.30491167E-02 0.95244736E+02</pdfrwt>
<totfact> 0.66504605E+04</totfact>
</mgrwt>
</event>
<event>
 6    1  0.1828142E-002  0.9360958E+02  0.7546771E-02  0.1363073E+00
          1   -1    0    0  501    0  0.00000000000E+00  0.00000000000E+00  0.14727406343E+03  0.14727406343E+03  0.00000000000E+00 0. -1.
         -1   -1    0    0    0  501 -0.00000000000E+00 -0.00000000000E+00 -0.25287897957E+02  0.25287897957E+02  0.00000000000E+00 0.  1.
         23    2    1    2    0    0  0.21668410193E+02 -0.17486249374E+02  0.10089270739E+03  0.13763027246E+03  0.89372616473E+02 0.  0.
         11    1    3    3    0    0  0.21186145571E+02 -0.46191612930E+02  0.95840034208E+02  0.10847962955E+03  0.00000000000E+00 0. -1.
        -11    1    3    3    0    0  0.48226462147E+00  0.28705363557E+02  0.50526731840E+01  0.29150642916E+02  0.00000000000E+00 0.  1.
         22    1    1    2    0    0 -0.21668410193E+02  0.17486249374E+02  0.21093458082E+02  0.34931688927E+02  0.00000000000E+00 0. -1.
<mgrwt>
<rscale>  0 0.69131053E+02</rscale>
<asrwt>0</asrwt>
<pdfrwt beam="1">  1        1 0.22657548E-01 0.93609580E+02</pdfrwt>
<pdfrwt beam="2">  1       -1 0.38904459E-02 0.93609580E+02</pdfrwt>
<totfact> 0.48428676E+04</totfact>
</mgrwt>
</event>
<event>
 6    1  0.1828142E-002  0.9162583E+02  0.7546771E-02  0.1422603E+00
          2   -1    0    0  501    0  0.00000000000E+00  0.00000000000E+00  0.53096881819E+02  0.53096881819E+02  0.00000000000E+00 0. -1.
         -2   -1    0    0    0  501 -0.00000000000E+00 -0.00000000000E+00 -0.59177895358E+02  0.59177895358E+02  0.00000000000E+00 0.  1.
         23    2    1    2    0    0  0.88029928856E+01 -0.73175950822E+01 -0.20473173682E+02  0.93885265081E+02  0.90907932971E+02 0.  0.
         13    1    3    3    0    0 -0.52612834415E+01 -0.44981270730E+02 -0.27627493873E+02  0.53049733625E+02  0.00000000000E+00 0. -1.
        -13    1    3    3    0    0  0.14064276327E+02  0.37663675648E+02  0.71543201905E+01  0.40835531456E+02  0.00000000000E+00 0.  1.
         22    1    1    2    0    0 -0.88029928856E+01  0.73175950822E+01  0.14392160144E+02  0.18389512096E+02  0.00000000000E+00 0. -1.
<mgrwt>
<rscale>  0 0.54473950E+02</rscale>
<asrwt>0</asrwt>
<pdfrwt beam="1">  1        2 0.81687511E-02 0.91625827E+02</pdfrwt>
<pdfrwt beam="2">  1       -2 0.91042916E-02 0.91625827E+02</pdfrwt>
<totfact> 0.54798473E+04</totfact>
</mgrwt>
</event>
<event>
 6    1  0.1828142E-002  0.9084699E+02  0.7546771E-02  0.1398398E+00
         -2   -1    0    0    0  501 -0.00000000000E+00  0.00000000000E+00  0.38139918141E+03  0.38139918141E+03  0.00000000000E+00 0.  1.
          2   -1    0    0  501    0  0.00000000000E+00 -0.00000000000E+00 -0.85912052018E+01  0.85912052018E+01  0.00000000000E+00 0. -1.
         23    2    1    2    0    0 -0.11178906307E+02 -0.12980218905E+02  0.34918907581E+03  0.36081322971E+03  0.89217274316E+02 0.  0.
         13    1    3    3    0    0  0.20435142299E+02  0.15810642286E+02  0.33827798312E+02  0.42566317540E+02  0.00000000000E+00 0. -1.
        -13    1    3    3    0    0 -0.31614048607E+02 -0.28790861191E+02  0.31536127750E+03  0.31824691217E+03  0.00000000000E+00 0.  1.
         22    1    1    2    0    0  0.11178906307E+02  0.12980218905E+02  0.23618900392E+02  0.29177156901E+02  0.00000000000E+00 0. -1.
<mgrwt>
<rscale>  0 0.59865336E+02</rscale>
<asrwt>0</asrwt>
<pdfrwt beam="1">  1        2 0.13217242E-02 0.90846993E+02</pdfrwt>
<pdfrwt beam="2">  1       -2 0.58676784E-01 0.90846993E+02</pdfrwt>
<totfact> 0.23629032E+04</totfact>
</mgrwt>
</event>
<event>
 6    1  0.1828142E-002  0.9663982E+02  0.7546771E-02  0.1364629E+00
         -2   -1    0    0    0  501 -0.00000000000E+00  0.00000000000E+00  0.28910397277E+02  0.28910397277E+02  0.00000000000E+00 0.  1.
          2   -1    0    0  501    0  0.00000000000E+00 -0.00000000000E+00 -0.21129751299E+03  0.21129751299E+03  0.00000000000E+00 0. -1.
         23    2    1    2    0    0  0.10802846094E+02  0.22163996465E+02 -0.56532156873E+02  0.11196043510E+03  0.93441479244E+02 0.  0.
         11    1    3    3    0    0  0.79733414452E+01  0.33302884722E+02  0.16512390127E+02  0.38017303065E+02  0.00000000000E+00 0.  1.
        -11    1    3    3    0    0  0.28295046485E+01 -0.11138888258E+02 -0.73044547000E+02  0.73943132031E+02  0.00000000000E+00 0. -1.
         22    1    1    2    0    0 -0.10802846094E+02 -0.22163996465E+02 -0.12585495884E+03  0.12824747517E+03  0.00000000000E+00 0.  1.
<mgrwt>
<rscale>  0 0.68683124E+02</rscale>
<asrwt>0</asrwt>
<pdfrwt beam="1">  1        2 0.32507309E-01 0.96639817E+02</pdfrwt>
<pdfrwt beam="2">  1       -2 0.44477535E-02 0.96639817E+02</pdfrwt>
<totfact> 0.33320070E+04</totfact>
</mgrwt>
</event>
<event>
 6    1  0.1828142E-002  0.9147629E+02  0.7546771E-02  0.1406713E+00
          4   -1    0    0  501    0  0.00000000000E+00  0.00000000000E+00  0.13843740311E+03  0.13843740311E+03  0.00000000000E+00 0. -1.
         -4   -1    0    0    0  501 -0.00000000000E+00 -0.00000000000E+00 -0.20365032630E+02  0.20365032630E+02  0.00000000000E+00 0.  1.
         23    2    1    2    0    0  0.13586851914E+00  0.14715864649E+02  0.10146553398E+03  0.13661320071E+03  0.90284754471E+02 0.  0.
         13    1    3    3    0    0  0.25747529203E+02  0.42414627167E+02  0.36902047267E+02  0.61836048954E+02  0.00000000000E+00 0.  1.
        -13    1    3    3    0    0 -0.25611660684E+02 -0.27698762519E+02  0.64563486716E+02  0.74777151758E+02  0.00000000000E+00 0. -1.
         22    1    1    2    0    0 -0.13586851914E+00 -0.14715864649E+02  0.16606836493E+02  0.22189235023E+02  0.00000000000E+00 0.  1.
<mgrwt>
<rscale>  0 0.57933863E+02</rscale>
<asrwt>0</asrwt>
<pdfrwt beam="1">  1        4 0.21298061E-01 0.91476292E+02</pdfrwt>
<pdfrwt beam="2">  1       -4 0.31330820E-02 0.91476292E+02</pdfrwt>
<totfact> 0.14683469E+04</totfact>
</mgrwt>
</event>
<event>
 6    1  0.1828142E-002  0.7777954E+02  0.7546771E-02  0.1442254E+00
          2   -1    0    0  501    0  0.00000000000E+00  0.00000000000E+00  0.22668781855E+03  0.22668781855E+03  0.00000000000E+00 0. -1.
         -2   -1    0    0    0  501 -0.00000000000E+00 -0.00000000000E+00 -0.94756627776E+01  0.94756627776E+01  0.00000000000E+00 0.  1.
         23    2    1    2    0    0  0.87078510628E+01 -0.10842590594E+02  0.17004878390E+03  0.18699263542E+03  0.76526259247E+02 0.  0.
         13    1    3    3    0    0  0.40802979524E+02 -0.17174008354E+02  0.84334741039E+02  0.95247982903E+02  0.00000000000E+00 0.  1.
        -13    1    3    3    0    0 -0.32095128461E+02  0.63314177604E+01  0.85714042856E+02  0.91744652512E+02  0.00000000000E+00 0. -1.
         22    1    1    2    0    0 -0.87078510628E+01  0.10842590594E+02  0.47163371878E+02  0.49170845913E+02  0.00000000000E+00 0. -1.
<mgrwt>
<rscale>  0 0.50576974E+02</rscale>
<asrwt>0</asrwt>
<pdfrwt beam="1">  1        2 0.34875045E-01 0.77779540E+02</pdfrwt>
<pdfrwt beam="2">  1       -2 0.14577944E-02 0.77779540E+02</pdfrwt>
<totfact> 0.15040024E+05</totfact>
</mgrwt>
</event>
<event>
 6    1  0.1828142E-002  0.9282382E+02  0.7546771E-02  0.1383639E+00
          1   -1    0    0  501    0  0.00000000000E+00  0.00000000000E+00  0.30055832720E+03  0.30055832720E+03  0.00000000000E+00 0. -1.
         -1   -1    0    0    0  501 -0.00000000000E+00 -0.00000000000E+00 -0.12783776883E+02  0.12783776883E+02  0.00000000000E+00 0.  1.
         23    2    1    2    0    0  0.20323060648E+02 -0.10576585340E+01  0.16879233110E+03  0.19263206338E+03  0.90565530803E+02 0.  0.
         11    1    3    3    0    0 -0.34639921416E+02  0.10159830003E+02  0.55409778519E+02  0.66131610118E+02  0.00000000000E+00 0. -1.
        -11    1    3    3    0    0  0.54962982064E+02 -0.11217488537E+02  0.11338255258E+03  0.12650045326E+03  0.00000000000E+00 0.  1.
         22    1    1    2    0    0 -0.20323060648E+02  0.10576585340E+01  0.11898221922E+03  0.12071004070E+03  0.00000000000E+00 0. -1.
<mgrwt>
<rscale>  0 0.63516809E+02</rscale>
<asrwt>0</asrwt>
<pdfrwt beam="1">  1        1 0.46239737E-01 0.92823816E+02</pdfrwt>
<pdfrwt beam="2">  1       -1 0.19667351E-02 0.92823816E+02</pdfrwt>
<totfact> 0.53726197E+04</totfact>
</mgrwt>
</event>
<event>
 6    1  0.1828142E-002  0.1026767E+03  0.7546771E-02  0.1362658E+00
         -2   -1    0    0    0  501 -0.00000000000E+00  0.00000000000E+00  0.14804937850E+02  0.14804937850E+02  0.00000000000E+00 0.  1.
          2   -1    0    0  501    0  0.00000000000E+00 -0.00000000000E+00 -0.26051787801E+03  0.26051787801E+03  0.00000000000E+00 0. -1.
         23    2    1    2    0    0 -0.96652056488E+01  0.18921000412E+02 -0.19617286473E+03  0.22141883150E+03  0.10045439576E+03 0.  0.
         11    1    3    3    0    0 -0.23303779308E+01  0.17937672012E+02  0.60403030078E+01  0.19070291003E+02  0.00000000000E+00 0.  1.
        -11    1    3    3    0    0 -0.73348277180E+01  0.98332840008E+00 -0.20221316774E+03  0.20234854049E+03  0.00000000000E+00 0. -1.
         22    1    1    2    0    0  0.96652056488E+01 -0.18921000412E+02 -0.49540075431E+02  0.53903984366E+02  0.00000000000E+00 0. -1.
<mgrwt>
<rscale>  0 0.69251088E+02</rscale>
<asrwt>0</asrwt>
<pdfrwt beam="1">  1        2 0.40079671E-01 0.10267671E+03</pdfrwt>
<pdfrwt beam="2">  1       -2 0.22776829E-02 0.10267671E+03</pdfrwt>
<totfact> 0.71545993E+04</totfact>
</mgrwt>
</event>
<event>
 6    1  0.1828142E-002  0.9275492E+02  0.7546771E-02  0.1383567E+00
         -1   -1    0    0    0  501 -0.00000000000E+00  0.00000000000E+00  0.70760660552E+01  0.70760660552E+01  0.00000000000E+00 0.  1.
          1   -1    0    0  501    0  0.00000000000E+00 -0.00000000000E+00 -0.50277286223E+03  0.50277286223E+03  0.00000000000E+00 0. -1.
         23    2    1    2    0    0  0.10504289686E+02  0.17510688966E+02 -0.45451106351E+03  0.46387905875E+03  0.90479334460E+02 0.  0.
         13    1    3    3    0    0  0.97130645731E+01  0.14971462314E+02 -0.12333272161E+02  0.21693268758E+02  0.00000000000E+00 0.  1.
        -13    1    3    3    0    0  0.79122511326E+00  0.25392266523E+01 -0.44217779135E+03  0.44218578999E+03  0.00000000000E+00 0. -1.
         22    1    1    2    0    0 -0.10504289686E+02 -0.17510688966E+02 -0.41185732661E+02  0.45969869531E+02  0.00000000000E+00 0.  1.
<mgrwt>
<rscale>  0 0.63535297E+02</rscale>
<asrwt>0</asrwt>
<pdfrwt beam="1">  1        1 0.77349698E-01 0.92754915E+02</pdfrwt>
<pdfrwt beam="2">  1       -1 0.10886252E-02 0.92754915E+02</pdfrwt>
<totfact> 0.65548876E+04</totfact>
</mgrwt>
</event>
<event>
 6    1  0.1828142E-002  0.8884234E+02  0.7546771E-02  0.1408548E+00
          2   -1    0    0  501    0  0.00000000000E+00  0.00000000000E+00  0.31294565064E+02  0.31294565064E+02  0.00000000000E+00 0. -1.
         -2   -1    0    0    0  501 -0.00000000000E+00 -0.00000000000E+00 -0.95021035347E+02  0.95021035347E+02  0.00000000000E+00 0.  1.
         23    2    1    2    0    0  0.15288782152E+02 -0.31483886696E+01 -0.65817900924E+02  0.11056652764E+03  0.87460286658E+02 0.  0.
         11    1    3    3    0    0 -0.11421372352E+02  0.14984725202E+01 -0.79408372082E+02  0.80239533417E+02  0.00000000000E+00 0.  1.
        -11    1    3    3    0    0  0.26710154504E+02 -0.46468611898E+01  0.13590471158E+02  0.30326994227E+02  0.00000000000E+00 0. -1.
         22    1    1    2    0    0 -0.15288782152E+02  0.31483886696E+01  0.20914306420E+01  0.15749072767E+02  0.00000000000E+00 0.  1.
<mgrwt>
<rscale>  0 0.57519200E+02</rscale>
<asrwt>0</asrwt>
<pdfrwt beam="1">  1        2 0.48145485E-02 0.88842338E+02</pdfrwt>
<pdfrwt beam="2">  1       -2 0.14618621E-01 0.88842338E+02</pdfrwt>
<totfact> 0.50524686E+04</totfact>
</mgrwt>
</event>
<event>
 6    1  0.1828142E-002  0.9601686E+02  0.7546771E-02  0.1392283E+00
          1   -1    0    0  501    0  0.00000000000E+00  0.00000000000E+00  0.26925717864E+03  0.26925717864E+03  0.00000000000E+00 0. -1.
         -1   -1    0    0    0  501 -0.00000000000E+00 -0.00000000000E+00 -0.11700889878E+02  0.11700889878E+02  0.00000000000E+00 0.  1.
         23    2    1    2    0    0  0.11264732455E+02 -0.11356267170E+02  0.21383964070E+03  0.23440697487E+03  0.94675123105E+02 0.  0.
         11    1    3    3    0    0 -0.25353761372E+02  0.11951656072E+02  0.16877761260E+02  0.32718712134E+02  0.00000000000E+00 0.  1.
        -11    1    3    3    0    0  0.36618493826E+02 -0.23307923242E+02  0.19696187943E+03  0.20168826274E+03  0.00000000000E+00 0. -1.
         22    1    1    2    0    0 -0.11264732455E+02  0.11356267170E+02  0.43716648069E+02  0.46551093647E+02  0.00000000000E+00 0. -1.
<mgrwt>
<rscale>  0 0.61342394E+02</rscale>
<asrwt>0</asrwt>
<pdfrwt beam="1">  1        1 0.41424177E-01 0.96016863E+02</pdfrwt>
<pdfrwt beam="2">  1       -1 0.18001371E-02 0.96016863E+02</pdfrwt>
<totfact> 0.70042162E+04</totfact>
</mgrwt>
</event>
<event>
 6    1  0.1828142E-002  0.8921571E+02  0.7546771E-02  0.1413157E+00
          2   -1    0    0  501    0  0.00000000000E+00  0.00000000000E+00  0.21068059247E+02  0.21068059247E+02  0.00000000000E+00 0. -1.
         -2   -1    0    0    0  501 -0.00000000000E+00 -0.00000000000E+00 -0.12884514070E+03  0.12884514070E+03  0.00000000000E+00 0.  1.
         23    2    1    2    0    0 -0.11081726740E+02 -0.91101800174E+01 -0.98141807149E+02  0.13263203799E+03  0.88054773547E+02 0.  0.
         13    1    3    3    0    0  0.14367692967E+02 -0.43113765009E+02 -0.61948430380E+02  0.76829911890E+02  0.00000000000E+00 0.  1.
        -13    1    3    3    0    0 -0.25449419707E+02  0.34003584992E+02 -0.36193376769E+02  0.55802126103E+02  0.00000000000E+00 0. -1.
         22    1    1    2    0    0  0.11081726740E+02  0.91101800174E+01 -0.96352743021E+01  0.17281161951E+02  0.00000000000E+00 0.  1.
<mgrwt>
<rscale>  0 0.56495218E+02</rscale>
<asrwt>0</asrwt>
<pdfrwt beam="1">  1        2 0.32412399E-02 0.89215712E+02</pdfrwt>
<pdfrwt beam="2">  1       -2 0.19822329E-01 0.89215712E+02</pdfrwt>
<totfact> 0.51459243E+04</totfact>
</mgrwt>
</event>
<event>
 6    1  0.1828142E-002  0.9134765E+02  0.7546771E-02  0.1422895E+00
         -2   -1    0    0    0  501 -0.00000000000E+00  0.00000000000E+00  0.12107898545E+02  0.12107898545E+02  0.00000000000E+00 0. -1.
          2   -1    0    0  501    0  0.00000000000E+00 -0.00000000000E+00 -0.21922620805E+03  0.21922620805E+03  0.00000000000E+00 0.  1.
         23    2    1    2    0    0 -0.11485367869E+02  0.59202554612E+00 -0.17918628523E+03  0.20112711818E+03  0.90620796075E+02 0.  0.
         11    1    3    3    0    0  0.16612462583E+02 -0.15187505312E+02 -0.38271881375E+01  0.22831592141E+02  0.00000000000E+00 0. -1.
        -11    1    3    3    0    0 -0.28097830452E+02  0.15779530858E+02 -0.17535909710E+03  0.17829552604E+03  0.00000000000E+00 0.  1.
         22    1    1    2    0    0  0.11485367869E+02 -0.59202554612E+00 -0.27932024276E+02  0.30206988422E+02  0.00000000000E+00 0. -1.
<mgrwt>
<rscale>  0 0.54413079E+02</rscale>
<asrwt>0</asrwt>
<pdfrwt beam="1">  1        2 0.33727106E-01 0.91347648E+02</pdfrwt>
<pdfrwt beam="2">  1       -2 0.18627538E-02 0.91347648E+02</pdfrwt>
<totfact> 0.11276021E+05</totfact>
</mgrwt>
</event>
<event>
 6    1  0.1828142E-002  0.9361287E+02  0.7546771E-02  0.1376052E+00
          2   -1    0    0  501    0  0.00000000000E+00  0.00000000000E+00  0.23815722785E+02  0.23815722785E+02  0.00000000000E+00 0. -1.
         -2   -1    0    0    0  501 -0.00000000000E+00 -0.00000000000E+00 -0.19978569523E+03  0.19978569523E+03  0.00000000000E+00 0.  1.
         23    2    1    2    0    0 -0.20740973418E+02  0.86037007861E+01 -0.17793824522E+03  0.20106066064E+03  0.90879912519E+02 0.  0.
         11    1    3    3    0    0 -0.24770634353E+02  0.40449106365E+02 -0.15366002125E+03  0.16081391937E+03  0.00000000000E+00 0.  1.
        -11    1    3    3    0    0  0.40296609350E+01 -0.31845405579E+02 -0.24278223964E+02  0.40246741267E+02  0.00000000000E+00 0. -1.
         22    1    1    2    0    0  0.20740973418E+02 -0.86037007861E+01  0.19682727706E+01  0.22540757379E+02  0.00000000000E+00 0. -1.
<mgrwt>
<rscale>  0 0.65513121E+02</rscale>
<asrwt>0</asrwt>
<pdfrwt beam="1">  1        2 0.36639574E-02 0.93612874E+02</pdfrwt>
<pdfrwt beam="2">  1       -2 0.30736261E-01 0.93612874E+02</pdfrwt>
<totfact> 0.20642003E+04</totfact>
</mgrwt>
</event>
<event>
 6    1  0.1828142E-002  0.9901101E+02  0.7546771E-02  0.1346230E+00
         -3   -1    0    0    0  501 -0.00000000000E+00  0.00000000000E+00  0.91167831975E+02  0.91167831975E+02  0.00000000000E+00 0.  1.
          3   -1    0    0  501    0  0.00000000000E+00 -0.00000000000E+00 -0.53828149368E+02  0.53828149368E+02  0.00000000000E+00 0. -1.
         23    2    1    2    0    0 -0.30985332296E+02  0.44456151779E+01  0.50373114360E+02  0.11108839141E+03  0.93932559552E+02 0.  0.
         11    1    3    3    0    0 -0.35237637666E+02  0.31334734082E+02  0.64907568426E+02  0.80228106716E+02  0.00000000000E+00 0.  1.
        -11    1    3    3    0    0  0.42523053705E+01 -0.26889118904E+02 -0.14534454066E+02  0.30860284694E+02  0.00000000000E+00 0. -1.
         22    1    1    2    0    0  0.30985332296E+02 -0.44456151779E+01 -0.13033431753E+02  0.33907589933E+02  0.00000000000E+00 0.  1.
<mgrwt>
<rscale>  0 0.74243392E+02</rscale>
<asrwt>0</asrwt>
<pdfrwt beam="1">  1        3 0.82812537E-02 0.99011010E+02</pdfrwt>
<pdfrwt beam="2">  1       -3 0.14025820E-01 0.99011010E+02</pdfrwt>
<totfact> 0.88660231E+03</totfact>
</mgrwt>
</event>
<event>
 6    1  0.1828142E-002  0.9309170E+02  0.7546771E-02  0.1397239E+00
          2   -1    0    0  501    0  0.00000000000E+00  0.00000000000E+00  0.48384334156E+02  0.48384334156E+02  0.00000000000E+00 0. -1.
         -2   -1    0    0    0  501 -0.00000000000E+00 -0.00000000000E+00 -0.77665945373E+02  0.77665945373E+02  0.00000000000E+00 0.  1.
         23    2    1    2    0    0 -0.45976364199E+01 -0.15551356118E+02 -0.45060389954E+02  0.10342390562E+03  0.91668329173E+02 0.  0.
         11    1    3    3    0    0  0.37211930285E+02 -0.96260397337E+01  0.40565481598E+01  0.38650277871E+02  0.00000000000E+00 0. -1.
        -11    1    3    3    0    0 -0.41809566705E+02 -0.59253163843E+01 -0.49116938114E+02  0.64773627751E+02  0.00000000000E+00 0.  1.
         22    1    1    2    0    0  0.45976364199E+01  0.15551356118E+02  0.15778778738E+02  0.22626373908E+02  0.00000000000E+00 0. -1.
<mgrwt>
<rscale>  0 0.60141490E+02</rscale>
<asrwt>0</asrwt>
<pdfrwt beam="1">  1        2 0.74437438E-02 0.93091705E+02</pdfrwt>
<pdfrwt beam="2">  1       -2 0.11948607E-01 0.93091705E+02</pdfrwt>
<totfact> 0.40319432E+04</totfact>
</mgrwt>
</event>
<event>
 6    1  0.1828142E-002  0.9073198E+02  0.7546771E-02  0.1391932E+00
         -4   -1    0    0    0  501 -0.00000000000E+00  0.00000000000E+00  0.38683670514E+03  0.38683670514E+03  0.00000000000E+00 0.  1.
          4   -1    0    0  501    0  0.00000000000E+00 -0.00000000000E+00 -0.11754522818E+02  0.11754522818E+02  0.00000000000E+00 0. -1.
         23    2    1    2    0    0  0.50530126543E+00  0.19057009551E+02  0.36671407297E+03  0.37777176119E+03  0.88706636150E+02 0.  0.
         11    1    3    3    0    0 -0.12284047272E+01 -0.56583825407E+01 -0.34760480639E+01  0.67534569884E+01  0.00000000000E+00 0. -1.
        -11    1    3    3    0    0  0.17337059926E+01  0.24715392092E+02  0.37019012103E+03  0.37101830420E+03  0.00000000000E+00 0.  1.
         22    1    1    2    0    0 -0.50530126543E+00 -0.19057009551E+02  0.83681093565E+01  0.20819466770E+02  0.00000000000E+00 0. -1.
<mgrwt>
<rscale>  0 0.61428814E+02</rscale>
<asrwt>0</asrwt>
<pdfrwt beam="1">  1        4 0.18083884E-02 0.90731980E+02</pdfrwt>
<pdfrwt beam="2">  1       -4 0.59513330E-01 0.90731980E+02</pdfrwt>
<totfact> 0.47222290E+03</totfact>
</mgrwt>
</event>
<event>
 6    1  0.1828142E-002  0.9295668E+02  0.7546771E-02  0.1391889E+00
          2   -1    0    0  501    0  0.00000000000E+00  0.00000000000E+00  0.13869956347E+03  0.13869956347E+03  0.00000000000E+00 0.  1.
         -2   -1    0    0    0  501 -0.00000000000E+00 -0.00000000000E+00 -0.22718679938E+02  0.22718679938E+02  0.00000000000E+00 0. -1.
         23    2    1    2    0    0  0.63468033119E+01  0.16565468843E+02  0.86305240419E+02  0.12684454727E+03  0.91248276582E+02 0.  0.
         11    1    3    3    0    0  0.34363690288E+02  0.40060235710E+02  0.33146479393E+02  0.62324752639E+02  0.00000000000E+00 0. -1.
        -11    1    3    3    0    0 -0.28016886976E+02 -0.23494766867E+02  0.53158761026E+02  0.64519794635E+02  0.00000000000E+00 0.  1.
         22    1    1    2    0    0 -0.63468033119E+01 -0.16565468843E+02  0.29675643115E+02  0.34573696136E+02  0.00000000000E+00 0.  1.
<mgrwt>
<rscale>  0 0.61439402E+02</rscale>
<asrwt>0</asrwt>
<pdfrwt beam="1">  1        2 0.21338394E-01 0.92956682E+02</pdfrwt>
<pdfrwt beam="2">  1       -2 0.34951816E-02 0.92956682E+02</pdfrwt>
<totfact> 0.74626659E+04</totfact>
</mgrwt>
</event>
<event>
 6    1  0.1828142E-002  0.9161641E+02  0.7546771E-02  0.1404973E+00
         -1   -1    0    0    0  501 -0.00000000000E+00  0.00000000000E+00  0.65319403220E+03  0.65319403220E+03  0.00000000000E+00 0.  1.
          1   -1    0    0  501    0  0.00000000000E+00 -0.00000000000E+00 -0.44924958224E+01  0.44924958224E+01  0.00000000000E+00 0. -1.
         23    2    1    2    0    0 -0.13657424445E+02  0.63339486966E+01  0.59072543971E+03  0.59778768051E+03  0.90371022455E+02 0.  0.
         13    1    3    3    0    0  0.33223383127E+00  0.24624851879E+02  0.42806945244E+02  0.49385506684E+02  0.00000000000E+00 0. -1.
        -13    1    3    3    0    0 -0.13989658276E+02 -0.18290903182E+02  0.54791849447E+03  0.54840217382E+03  0.00000000000E+00 0.  1.
         22    1    1    2    0    0  0.13657424445E+02 -0.63339486966E+01  0.57976096663E+02  0.59898847508E+02  0.00000000000E+00 0.  1.
<mgrwt>
<rscale>  0 0.58330809E+02</rscale>
<asrwt>0</asrwt>
<pdfrwt beam="1">  1        1 0.69115372E-03 0.91616406E+02</pdfrwt>
<pdfrwt beam="2">  1       -1 0.10049131E+00 0.91616406E+02</pdfrwt>
<totfact> 0.24194671E+04</totfact>
</mgrwt>
</event>
<event>
 6    1  0.1828142E-002  0.9575820E+02  0.7546771E-02  0.1388952E+00
         -2   -1    0    0    0  501 -0.00000000000E+00  0.00000000000E+00  0.12015999528E+02  0.12015999528E+02  0.00000000000E+00 0.  1.
          2   -1    0    0  501    0  0.00000000000E+00 -0.00000000000E+00 -0.27752662321E+03  0.27752662321E+03  0.00000000000E+00 0. -1.
         23    2    1    2    0    0 -0.98904696304E+01 -0.13840759542E+02 -0.19826528562E+03  0.22017891821E+03  0.94235049370E+02 0.  0.
         11    1    3    3    0    0 -0.57278459785E+01 -0.15717020189E+01  0.99354406821E+01  0.11575467521E+02  0.00000000000E+00 0.  1.
        -11    1    3    3    0    0 -0.41626236518E+01 -0.12269057523E+02 -0.20820072630E+03  0.20860345069E+03  0.00000000000E+00 0. -1.
         22    1    1    2    0    0  0.98904696304E+01  0.13840759542E+02 -0.67245338065E+02  0.69363704527E+02  0.00000000000E+00 0.  1.
<mgrwt>
<rscale>  0 0.62168021E+02</rscale>
<asrwt>0</asrwt>
<pdfrwt beam="1">  1        2 0.42696404E-01 0.95758198E+02</pdfrwt>
<pdfrwt beam="2">  1       -2 0.18486153E-02 0.95758198E+02</pdfrwt>
<totfact> 0.89555183E+04</totfact>
</mgrwt>
</event>
<event>
 6    1  0.1828142E-002  0.9107294E+02  0.7546771E-02  0.1386323E+00
          1   -1    0    0  501    0  0.00000000000E+00  0.00000000000E+00  0.12727898551E+03  0.12727898551E+03  0.00000000000E+00 0. -1.
         -1   -1    0    0    0  501 -0.00000000000E+00 -0.00000000000E+00 -0.27519525406E+02  0.27519525406E+02  0.00000000000E+00 0.  1.
         23    2    1    2    0    0 -0.19503800652E+02  0.67251278075E+01  0.57318738804E+02  0.10760910100E+03  0.88705440734E+02 0.  0.
         13    1    3    3    0    0  0.28023944476E+02 -0.21392524436E+02  0.28407303856E+02  0.45276445069E+02  0.00000000000E+00 0. -1.
        -13    1    3    3    0    0 -0.47527745127E+02  0.28117652244E+02  0.28911434948E+02  0.62332655930E+02  0.00000000000E+00 0.  1.
         22    1    1    2    0    0  0.19503800652E+02 -0.67251278075E+01  0.42440721295E+02  0.47189409913E+02  0.00000000000E+00 0. -1.
<mgrwt>
<rscale>  0 0.62830496E+02</rscale>
<asrwt>0</asrwt>
<pdfrwt beam="1">  1        1 0.19581382E-01 0.91072942E+02</pdfrwt>
<pdfrwt beam="2">  1       -1 0.42337732E-02 0.91072942E+02</pdfrwt>
<totfact> 0.51222232E+04</totfact>
</mgrwt>
</event>
<event>
 6    1  0.1828142E-002  0.7238217E+02  0.7546771E-02  0.1402259E+00
         -2   -1    0    0    0  501 -0.00000000000E+00  0.00000000000E+00  0.53934663794E+01  0.53934663794E+01  0.00000000000E+00 0.  1.
          2   -1    0    0  501    0  0.00000000000E+00 -0.00000000000E+00 -0.75757897860E+03  0.75757897860E+03  0.00000000000E+00 0. -1.
         23    2    1    2    0    0  0.11327616471E+02 -0.29779461189E+02 -0.68274846807E+03  0.68657457652E+03  0.64992670962E+02 0.  0.
         13    1    3    3    0    0 -0.13202455543E+02  0.15794500144E+02 -0.20477270345E+03  0.20580483751E+03  0.00000000000E+00 0.  1.
        -13    1    3    3    0    0  0.24530072013E+02 -0.45573961332E+02 -0.47797576462E+03  0.48076973901E+03  0.00000000000E+00 0. -1.
         22    1    1    2    0    0 -0.11327616471E+02  0.29779461189E+02 -0.69437044152E+02  0.76397868453E+02  0.00000000000E+00 0.  1.
<mgrwt>
<rscale>  0 0.58957488E+02</rscale>
<asrwt>0</asrwt>
<pdfrwt beam="1">  1        2 0.11655058E+00 0.72382170E+02</pdfrwt>
<pdfrwt beam="2">  1       -2 0.82976431E-03 0.72382170E+02</pdfrwt>
<totfact> 0.90390877E+04</totfact>
</mgrwt>
</event>
<event>
 6    1  0.1828142E-002  0.9569780E+02  0.7546771E-02  0.1346682E+00
          2   -1    0    0  501    0  0.00000000000E+00  0.00000000000E+00  0.26920453871E+03  0.26920453871E+03  0.00000000000E+00 0. -1.
         -2   -1    0    0    0  501 -0.00000000000E+00 -0.00000000000E+00 -0.19811273445E+02  0.19811273445E+02  0.00000000000E+00 0.  1.
         23    2    1    2    0    0  0.84481474829E+01  0.33346240379E+02  0.11168913957E+03  0.14708001971E+03  0.89301317778E+02 0.  0.
         13    1    3    3    0    0 -0.17206896592E+02 -0.25894019598E+02  0.34074183164E+02  0.46126212717E+02  0.00000000000E+00 0. -1.
        -13    1    3    3    0    0  0.25655044075E+02  0.59240259978E+02  0.77614956403E+02  0.10095380699E+03  0.00000000000E+00 0.  1.
         22    1    1    2    0    0 -0.84481474829E+01 -0.33346240379E+02  0.13770412569E+03  0.14193579244E+03  0.00000000000E+00 0. -1.
<mgrwt>
<rscale>  0 0.74099501E+02</rscale>
<asrwt>0</asrwt>
<pdfrwt beam="1">  1        2 0.41416080E-01 0.95697797E+02</pdfrwt>
<pdfrwt beam="2">  1       -2 0.30478884E-02 0.95697797E+02</pdfrwt>
<totfact> 0.44874732E+04</totfact>
</mgrwt>
</event>
<event>
 6    1  0.1828142E-002  0.9987892E+02  0.7546771E-02  0.1336426E+00
          2   -1    0    0  501    0  0.00000000000E+00  0.00000000000E+00  0.10888126561E+03  0.10888126561E+03  0.00000000000E+00 0. -1.
         -2   -1    0    0    0  501 -0.00000000000E+00 -0.00000000000E+00 -0.42474230445E+02  0.42474230445E+02  0.00000000000E+00 0.  1.
         23    2    1    2    0    0  0.24858440199E+02  0.26214317538E+02  0.49278613116E+02  0.11137405867E+03  0.93116414994E+02 0.  0.
         13    1    3    3    0    0 -0.30392524260E+02  0.28158285469E+02  0.75633605158E+01  0.42116493132E+02  0.00000000000E+00 0. -1.
        -13    1    3    3    0    0  0.55250964459E+02 -0.19439679311E+01  0.41715252600E+02  0.69257565539E+02  0.00000000000E+00 0.  1.
         22    1    1    2    0    0 -0.24858440199E+02 -0.26214317538E+02  0.17128422046E+02  0.39981437379E+02  0.00000000000E+00 0.  1.
<mgrwt>
<rscale>  0 0.77457275E+02</rscale>
<asrwt>0</asrwt>
<pdfrwt beam="1">  1        2 0.16750964E-01 0.99878923E+02</pdfrwt>
<pdfrwt beam="2">  1       -2 0.65344970E-02 0.99878923E+02</pdfrwt>
<totfact> 0.39069497E+04</totfact>
</mgrwt>
</event>
<event>
 6    1  0.1828142E-002  0.9293118E+02  0.7546771E-02  0.1399709E+00
          1   -1    0    0  501    0  0.00000000000E+00  0.00000000000E+00  0.40971571455E+02  0.40971571455E+02  0.00000000000E+00 0. -1.
         -1   -1    0    0    0  501 -0.00000000000E+00 -0.00000000000E+00 -0.84214938247E+02  0.84214938247E+02  0.00000000000E+00 0.  1.
         23    2    1    2    0    0 -0.15591217793E+02  0.16100364422E+01 -0.52746137463E+02  0.10685672683E+03  0.91599818573E+02 0.  0.
         11    1    3    3    0    0  0.24859304986E+02 -0.26476743561E+02 -0.23488131893E+01  0.36393954407E+02  0.00000000000E+00 0. -1.
        -11    1    3    3    0    0 -0.40450522779E+02  0.28086780003E+02 -0.50397324274E+02  0.70462772426E+02  0.00000000000E+00 0.  1.
         22    1    1    2    0    0  0.15591217793E+02 -0.16100364422E+01  0.95027706708E+01  0.18329782869E+02  0.00000000000E+00 0. -1.
<mgrwt>
<rscale>  0 0.59554825E+02</rscale>
<asrwt>0</asrwt>
<pdfrwt beam="1">  1        1 0.63033187E-02 0.92931184E+02</pdfrwt>
<pdfrwt beam="2">  1       -1 0.12956144E-01 0.92931184E+02</pdfrwt>
<totfact> 0.42408906E+04</totfact>
</mgrwt>
</event>
<event>
 6    1  0.1828142E-002  0.8793214E+02  0.7546771E-02  0.1439128E+00
          2   -1    0    0  501    0  0.00000000000E+00  0.00000000000E+00  0.25999910592E+02  0.25999910592E+02  0.00000000000E+00 0. -1.
         -2   -1    0    0    0  501 -0.00000000000E+00 -0.00000000000E+00 -0.94839409956E+02  0.94839409956E+02  0.00000000000E+00 0.  1.
         23    2    1    2    0    0 -0.54104445337E+01 -0.85098333316E+01 -0.67092413035E+02  0.11060494299E+03  0.87351996848E+02 0.  0.
         11    1    3    3    0    0 -0.75551453448E+01 -0.58951079745E+01 -0.88456896298E+02  0.88974462751E+02  0.00000000000E+00 0.  1.
        -11    1    3    3    0    0  0.21447008111E+01 -0.26147253571E+01  0.21364483262E+02  0.21630480238E+02  0.00000000000E+00 0. -1.
         22    1    1    2    0    0  0.54104445337E+01  0.85098333316E+01 -0.17470863279E+01  0.10234377559E+02  0.00000000000E+00 0. -1.
<mgrwt>
<rscale>  0 0.51170612E+02</rscale>
<asrwt>0</asrwt>
<pdfrwt beam="1">  1        2 0.39999864E-02 0.87932142E+02</pdfrwt>
<pdfrwt beam="2">  1       -2 0.14590678E-01 0.87932142E+02</pdfrwt>
<totfact> 0.64383683E+04</totfact>
</mgrwt>
</event>
<event>
 6    1  0.1828142E-002  0.1006963E+03  0.7546771E-02  0.1392711E+00
         -3   -1    0    0    0  501 -0.00000000000E+00  0.00000000000E+00  0.61671933274E+02  0.61671933274E+02  0.00000000000E+00 0.  1.
          3   -1    0    0  501    0  0.00000000000E+00 -0.00000000000E+00 -0.85475871458E+02  0.85475871458E+02  0.00000000000E+00 0. -1.
         23    2    1    2    0    0 -0.85410234910E+01 -0.10804801976E+02  0.18744246776E+02  0.10242598823E+03  0.99749904507E+02 0.  0.
         13    1    3    3    0    0 -0.33031979910E+02  0.28172619076E+02  0.32668921434E+02  0.54332923629E+02  0.00000000000E+00 0. -1.
        -13    1    3    3    0    0  0.24490956419E+02 -0.38977421052E+02 -0.13924674658E+02  0.48093064599E+02  0.00000000000E+00 0.  1.
         22    1    1    2    0    0  0.85410234910E+01  0.10804801976E+02 -0.42548184960E+02  0.44721816504E+02  0.00000000000E+00 0.  1.
<mgrwt>
<rscale>  0 0.61237346E+02</rscale>
<asrwt>0</asrwt>
<pdfrwt beam="1">  1        3 0.13150134E-01 0.10069626E+03</pdfrwt>
<pdfrwt beam="2">  1       -3 0.94879897E-02 0.10069626E+03</pdfrwt>
<totfact> 0.79512556E+03</totfact>
</mgrwt>
</event>
<event>
 6    1  0.1828142E-002  0.9582336E+02  0.7546771E-02  0.1379440E+00
          2   -1    0    0  501    0  0.00000000000E+00  0.00000000000E+00  0.20066407577E+02  0.20066407577E+02  0.00000000000E+00 0. -1.
         -2   -1    0    0    0  501 -0.00000000000E+00 -0.00000000000E+00 -0.17262070971E+03  0.17262070971E+03  0.00000000000E+00 0.  1.
         23    2    1    2    0    0  0.34540415301E+01  0.19503536499E+02 -0.13843084871E+03  0.16836037736E+03  0.93753924991E+02 0.  0.
         11    1    3    3    0    0  0.14075258038E+01 -0.63056425534E+00 -0.14654745592E+03  0.14655557164E+03  0.00000000000E+00 0.  1.
        -11    1    3    3    0    0  0.20465157262E+01  0.20134100754E+02  0.81166072164E+01  0.21804805720E+02  0.00000000000E+00 0. -1.
         22    1    1    2    0    0 -0.34540415301E+01 -0.19503536499E+02 -0.14123453422E+02  0.24326739926E+02  0.00000000000E+00 0.  1.
<mgrwt>
<rscale>  0 0.64611285E+02</rscale>
<asrwt>0</asrwt>
<pdfrwt beam="1">  1        2 0.30871396E-02 0.95823362E+02</pdfrwt>
<pdfrwt beam="2">  1       -2 0.26557032E-01 0.95823362E+02</pdfrwt>
<totfact> 0.33631638E+04</totfact>
</mgrwt>
</event>
<event>
 6    1  0.1828142E-002  0.9253870E+02  0.7546771E-02  0.1374950E+00
          2   -1    0    0  501    0  0.00000000000E+00  0.00000000000E+00  0.57297312426E+02  0.57297312426E+02  0.00000000000E+00 0. -1.
         -2   -1    0    0    0  501 -0.00000000000E+00 -0.00000000000E+00 -0.81906391085E+02  0.81906391085E+02  0.00000000000E+00 0.  1.
         23    2    1    2    0    0 -0.35950864589E+01  0.23395485225E+02 -0.49423916684E+02  0.10491012449E+03  0.89460255452E+02 0.  0.
         13    1    3    3    0    0  0.41471298302E+02  0.20630011263E+02 -0.17073158058E+02  0.49365561616E+02  0.00000000000E+00 0. -1.
        -13    1    3    3    0    0 -0.45066384761E+02  0.27654739623E+01 -0.32350758626E+02  0.55544562878E+02  0.00000000000E+00 0.  1.
         22    1    1    2    0    0  0.35950864589E+01 -0.23395485225E+02  0.24814838024E+02  0.34293579016E+02  0.00000000000E+00 0. -1.
<mgrwt>
<rscale>  0 0.65810098E+02</rscale>
<asrwt>0</asrwt>
<pdfrwt beam="1">  1        2 0.88149711E-02 0.92538698E+02</pdfrwt>
<pdfrwt beam="2">  1       -2 0.12600983E-01 0.92538698E+02</pdfrwt>
<totfact> 0.30032821E+04</totfact>
</mgrwt>
</event>
<event>
 6    1  0.1828142E-002  0.9398946E+02  0.7546771E-02  0.1372105E+00
         -2   -1    0    0    0  501 -0.00000000000E+00  0.00000000000E+00  0.48313709064E+02  0.48313709064E+02  0.00000000000E+00 0. -1.
          2   -1    0    0  501    0  0.00000000000E+00 -0.00000000000E+00 -0.11298129108E+03  0.11298129108E+03  0.00000000000E+00 0.  1.
         23    2    1    2    0    0  0.17755916952E+02  0.15659001540E+02 -0.16791701991E+01  0.94004458913E+02  0.90959011467E+02 0.  0.
         13    1    3    3    0    0  0.40870438347E+02  0.13554027565E+02 -0.33543747834E+02  0.54582849071E+02  0.00000000000E+00 0.  1.
        -13    1    3    3    0    0 -0.23114521394E+02  0.21049739744E+01  0.31864577635E+02  0.39421609843E+02  0.00000000000E+00 0. -1.
         22    1    1    2    0    0 -0.17755916952E+02 -0.15659001540E+02 -0.62988411821E+02  0.67290541235E+02  0.00000000000E+00 0. -1.
<mgrwt>
<rscale>  0 0.66585411E+02</rscale>
<asrwt>0</asrwt>
<pdfrwt beam="1">  1        2 0.17381737E-01 0.93989460E+02</pdfrwt>
<pdfrwt beam="2">  1       -2 0.74328784E-02 0.93989460E+02</pdfrwt>
<totfact> 0.30578015E+04</totfact>
</mgrwt>
</event>
<event>
 6    1  0.1828142E-002  0.9334142E+02  0.7546771E-02  0.1400913E+00
         -1   -1    0    0    0  501 -0.00000000000E+00  0.00000000000E+00  0.22718204390E+02  0.22718204390E+02  0.00000000000E+00 0.  1.
          1   -1    0    0  501    0  0.00000000000E+00 -0.00000000000E+00 -0.15544438081E+03  0.15544438081E+03  0.00000000000E+00 0. -1.
         23    2    1    2    0    0 -0.60369398513E+01 -0.13924175150E+02 -0.78845267823E+02  0.12218509323E+03  0.92099367274E+02 0.  0.
         11    1    3    3    0    0 -0.56503434825E+00 -0.52650221218E+02 -0.33979888976E+02  0.62665763484E+02  0.00000000000E+00 0.  1.
        -11    1    3    3    0    0 -0.54719055031E+01  0.38726046068E+02 -0.44865378847E+02  0.59519329742E+02  0.00000000000E+00 0. -1.
         22    1    1    2    0    0  0.60369398513E+01  0.13924175150E+02 -0.53880908598E+02  0.55977491975E+02  0.00000000000E+00 0. -1.
<mgrwt>
<rscale>  0 0.59271918E+02</rscale>
<asrwt>0</asrwt>
<pdfrwt beam="1">  1        1 0.23914520E-01 0.93341420E+02</pdfrwt>
<pdfrwt beam="2">  1       -1 0.34951084E-02 0.93341420E+02</pdfrwt>
<totfact> 0.52869297E+04</totfact>
</mgrwt>
</event>
<event>
 6    1  0.1828142E-002  0.9291635E+02  0.7546771E-02  0.1407996E+00
         -3   -1    0    0    0  501 -0.00000000000E+00  0.00000000000E+00  0.64464811348E+02  0.64464811348E+02  0.00000000000E+00 0.  1.
          3   -1    0    0  501    0  0.00000000000E+00 -0.00000000000E+00 -0.76817644698E+02  0.76817644698E+02  0.00000000000E+00 0. -1.
         23    2    1    2    0    0 -0.48664250758E+01  0.12874190211E+02  0.29290450516E+02  0.97423705976E+02  0.91891355024E+02 0.  0.
         13    1    3    3    0    0  0.22351794981E+00 -0.28264097988E+02  0.44961926771E+02  0.53108229629E+02  0.00000000000E+00 0.  1.
        -13    1    3    3    0    0 -0.50899430256E+01  0.41138288199E+02 -0.15671476255E+02  0.44315476348E+02  0.00000000000E+00 0. -1.
         22    1    1    2    0    0  0.48664250758E+01 -0.12874190211E+02 -0.41643283865E+02  0.43858750069E+02  0.00000000000E+00 0. -1.
<mgrwt>
<rscale>  0 0.57643362E+02</rscale>
<asrwt>0</asrwt>
<pdfrwt beam="1">  1        3 0.11818099E-01 0.92916349E+02</pdfrwt>
<pdfrwt beam="2">  1       -3 0.99176634E-02 0.92916349E+02</pdfrwt>
<totfact> 0.86763774E+03</totfact>
</mgrwt>
</event>
<event>
 6    1  0.1828142E-002  0.1034673E+03  0.7546771E-02  0.1315642E+00
         -1   -1    0    0    0  501 -0.00000000000E+00  0.00000000000E+00  0.44294724073E+02  0.44294724073E+02  0.00000000000E+00 0.  1.
          1   -1    0    0  501    0  0.00000000000E+00 -0.00000000000E+00 -0.32672686732E+03  0.32672686732E+03  0.00000000000E+00 0. -1.
         23    2    1    2    0    0  0.39479480251E+02 -0.25409503103E+02 -0.21216377041E+02  0.10562010548E+03  0.92201951272E+02 0.  0.
         13    1    3    3    0    0  0.61933549239E+02 -0.12733388054E+02  0.11185308474E+02  0.64210706415E+02  0.00000000000E+00 0.  1.
        -13    1    3    3    0    0 -0.22454068988E+02 -0.12676115048E+02 -0.32401685515E+02  0.41409399066E+02  0.00000000000E+00 0. -1.
         22    1    1    2    0    0 -0.39479480251E+02  0.25409503103E+02 -0.26121576621E+03  0.26540148591E+03  0.00000000000E+00 0. -1.
<mgrwt>
<rscale>  0 0.84920069E+02</rscale>
<asrwt>0</asrwt>
<pdfrwt beam="1">  1        1 0.50265675E-01 0.10346725E+03</pdfrwt>
<pdfrwt beam="2">  1       -1 0.68145726E-02 0.10346725E+03</pdfrwt>
<totfact> 0.80598509E+03</totfact>
</mgrwt>
</event>
<event>
 6    1  0.1828142E-002  0.1191230E+03  0.7546771E-02  0.1267922E+00
         -2   -1    0    0    0  501 -0.00000000000E+00  0.00000000000E+00  0.14027655534E+02  0.14027655534E+02  0.00000000000E+00 0.  1.
          2   -1    0    0  501    0  0.00000000000E+00 -0.00000000000E+00 -0.94795256416E+03  0.94795256416E+03  0.00000000000E+00 0. -1.
         23    2    1    2    0    0 -0.11815251769E+02  0.74097898785E+02 -0.79691811856E+03  0.80577215555E+03  0.92521241860E+02 0.  0.
         13    1    3    3    0    0 -0.47319703528E+02  0.31775903362E+02 -0.53893430691E+03  0.54194007929E+03  0.00000000000E+00 0.  1.
        -13    1    3    3    0    0  0.35504451759E+02  0.42321995423E+02 -0.25798381165E+03  0.26383207626E+03  0.00000000000E+00 0. -1.
         22    1    1    2    0    0  0.11815251769E+02 -0.74097898785E+02 -0.13700679006E+03  0.15620806414E+03  0.00000000000E+00 0. -1.
<mgrwt>
<rscale>  0 0.10612339E+03</rscale>
<asrwt>0</asrwt>
<pdfrwt beam="1">  1        2 0.14583894E+00 0.11912296E+03</pdfrwt>
<pdfrwt beam="2">  1       -2 0.21580996E-02 0.11912296E+03</pdfrwt>
<totfact> 0.18463842E+04</totfact>
</mgrwt>
</event>
<event>
 6    1  0.1828142E-002  0.9226296E+02  0.7546771E-02  0.1427960E+00
         -1   -1    0    0    0  501 -0.00000000000E+00  0.00000000000E+00  0.56300663668E+03  0.56300663668E+03  0.00000000000E+00 0.  1.
          1   -1    0    0  501    0  0.00000000000E+00 -0.00000000000E+00 -0.48219480373E+01  0.48219480373E+01  0.00000000000E+00 0. -1.
         23    2    1    2    0    0  0.14756032752E+01  0.10225527525E+02  0.52587546840E+03  0.53390772784E+03  0.91682685231E+02 0.  0.
         13    1    3    3    0    0 -0.38614694880E+02  0.19155705190E+02  0.15896492923E+03  0.16470544747E+03  0.00000000000E+00 0. -1.
        -13    1    3    3    0    0  0.40090298155E+02 -0.89301776657E+01  0.36691053917E+03  0.36920228037E+03  0.00000000000E+00 0.  1.
         22    1    1    2    0    0 -0.14756032752E+01 -0.10225527525E+02  0.32309220250E+02  0.33920856878E+02  0.00000000000E+00 0.  1.
<mgrwt>
<rscale>  0 0.53371675E+02</rscale>
<asrwt>0</asrwt>
<pdfrwt beam="1">  1        1 0.74183860E-03 0.92262959E+02</pdfrwt>
<pdfrwt beam="2">  1       -1 0.86616354E-01 0.92262959E+02</pdfrwt>
<totfact> 0.30110186E+04</totfact>
</mgrwt>
</event>
<event>
 6    1  0.1828142E-002  0.9203951E+02  0.7546771E-02  0.1420721E+00
          2   -1    0    0  501    0  0.00000000000E+00  0.00000000000E+00  0.44765584009E+02  0.44765584009E+02  0.00000000000E+00 0. -1.
         -2   -1    0    0    0  501 -0.00000000000E+00 -0.00000000000E+00 -0.79661545094E+02  0.79661545094E+02  0.00000000000E+00 0.  1.
         23    2    1    2    0    0  0.73974351489E+01 -0.89669069645E+01 -0.50488854991E+02  0.10497807237E+03  0.91302484816E+02 0.  0.
         13    1    3    3    0    0 -0.87178142388E+01 -0.41302505250E+02 -0.54155360470E+02  0.68663675205E+02  0.00000000000E+00 0.  1.
        -13    1    3    3    0    0  0.16115249388E+02  0.32335598285E+02  0.36665054789E+01  0.36314397169E+02  0.00000000000E+00 0. -1.
         22    1    1    2    0    0 -0.73974351489E+01  0.89669069645E+01  0.15592893907E+02  0.19449056730E+02  0.00000000000E+00 0.  1.
<mgrwt>
<rscale>  0 0.54868574E+02</rscale>
<asrwt>0</asrwt>
<pdfrwt beam="1">  1        2 0.68870130E-02 0.92039509E+02</pdfrwt>
<pdfrwt beam="2">  1       -2 0.12255622E-01 0.92039509E+02</pdfrwt>
<totfact> 0.42632379E+04</totfact>
</mgrwt>
</event>
<event>
 6    1  0.1828142E-002  0.9432300E+02  0.7546771E-02  0.1399305E+00
         -2   -1    0    0    0  501 -0.00000000000E+00  0.00000000000E+00  0.42907868418E+02  0.42907868418E+02  0.00000000000E+00 0.  1.
          2   -1    0    0  501    0  0.00000000000E+00 -0.00000000000E+00 -0.10307725712E+03  0.10307725712E+03  0.00000000000E+00 0. -1.
         23    2    1    2    0    0 -0.14840445427E+02  0.27153053414E+01 -0.11488543691E+02  0.95020075018E+02  0.93108626436E+02 0.  0.
         11    1    3    3    0    0 -0.13395475619E+02 -0.38501130803E+02  0.17753837406E+02  0.44463182329E+02  0.00000000000E+00 0.  1.
        -11    1    3    3    0    0 -0.14449698080E+01  0.41216436144E+02 -0.29242381097E+02  0.50556892689E+02  0.00000000000E+00 0. -1.
         22    1    1    2    0    0  0.14840445427E+02 -0.27153053414E+01 -0.48680845008E+02  0.50965050518E+02  0.00000000000E+00 0. -1.
<mgrwt>
<rscale>  0 0.59650285E+02</rscale>
<asrwt>0</asrwt>
<pdfrwt beam="1">  1        2 0.15858039E-01 0.94322998E+02</pdfrwt>
<pdfrwt beam="2">  1       -2 0.66012106E-02 0.94322998E+02</pdfrwt>
<totfact> 0.40672722E+04</totfact>
</mgrwt>
</event>
<event>
 6    1  0.1828142E-002  0.9042716E+02  0.7546771E-02  0.1396205E+00
         -2   -1    0    0    0  501 -0.00000000000E+00  0.00000000000E+00  0.89552706140E+02  0.89552706140E+02  0.00000000000E+00 0.  1.
          2   -1    0    0  501    0  0.00000000000E+00 -0.00000000000E+00 -0.33047439897E+02  0.33047439897E+02  0.00000000000E+00 0. -1.
         23    2    1    2    0    0  0.10453635249E+02 -0.14636835252E+02  0.43133616464E+02  0.10018772863E+03  0.88620294871E+02 0.  0.
         13    1    3    3    0    0 -0.22645769549E+02  0.48227511391E+01 -0.17081509690E+02  0.28772691572E+02  0.00000000000E+00 0. -1.
        -13    1    3    3    0    0  0.33099404798E+02 -0.19459586392E+02  0.60215126154E+02  0.71415037060E+02  0.00000000000E+00 0.  1.
         22    1    1    2    0    0 -0.10453635249E+02  0.14636835252E+02  0.13371649780E+02  0.22412417405E+02  0.00000000000E+00 0. -1.
<mgrwt>
<rscale>  0 0.60389448E+02</rscale>
<asrwt>0</asrwt>
<pdfrwt beam="1">  1        2 0.50842216E-02 0.90427165E+02</pdfrwt>
<pdfrwt beam="2">  1       -2 0.13777339E-01 0.90427165E+02</pdfrwt>
<totfact> 0.51938518E+04</totfact>
</mgrwt>
</event>
<event>
 6    1  0.1828142E-002  0.8863661E+02  0.7546771E-02  0.1433306E+00
          4   -1    0    0  501    0  0.00000000000E+00  0.00000000000E+00  0.86171422816E+01  0.86171422816E+01  0.00000000000E+00 0. -1.
         -4   -1    0    0    0  501 -0.00000000000E+00 -0.00000000000E+00 -0.29060382736E+03  0.29060382736E+03  0.00000000000E+00 0.  1.
         23    2    1    2    0    0 -0.51953887354E+01 -0.94064190683E+01 -0.26105393995E+03  0.27569114596E+03  0.87982814314E+02 0.  0.
         13    1    3    3    0    0  0.69059516427E+01 -0.15703423428E+02 -0.31683539511E+01  0.17445003360E+02  0.00000000000E+00 0. -1.
        -13    1    3    3    0    0 -0.12101340378E+02  0.62970043602E+01 -0.25788558600E+03  0.25824614260E+03  0.00000000000E+00 0.  1.
         22    1    1    2    0    0  0.51953887354E+01  0.94064190683E+01 -0.20932745131E+02  0.23529823682E+02  0.00000000000E+00 0. -1.
<mgrwt>
<rscale>  0 0.52302181E+02</rscale>
<asrwt>0</asrwt>
<pdfrwt beam="1">  1        4 0.13257143E-02 0.88636609E+02</pdfrwt>
<pdfrwt beam="2">  1       -4 0.44708276E-01 0.88636609E+02</pdfrwt>
<totfact> 0.13403158E+04</totfact>
</mgrwt>
</event>
<event>
 6    1  0.1828142E-002  0.9493039E+02  0.7546771E-02  0.1384877E+00
          2   -1    0    0  501    0  0.00000000000E+00  0.00000000000E+00  0.10433981882E+03  0.10433981882E+03  0.00000000000E+00 0. -1.
         -2   -1    0    0    0  501 -0.00000000000E+00 -0.00000000000E+00 -0.38251215060E+02  0.38251215060E+02  0.00000000000E+00 0.  1.
         23    2    1    2    0    0 -0.43743679269E+01  0.18127261601E+02  0.26076211571E+02  0.98446677088E+02  0.93080861147E+02 0.  0.
         13    1    3    3    0    0  0.24307922085E+02  0.84980270120E+00 -0.26590622636E+02  0.36036904041E+02  0.00000000000E+00 0.  1.
        -13    1    3    3    0    0 -0.28682290012E+02  0.17277458899E+02  0.52666834207E+02  0.62409773047E+02  0.00000000000E+00 0. -1.
         22    1    1    2    0    0  0.43743679269E+01 -0.18127261601E+02  0.40012392187E+02  0.44144356790E+02  0.00000000000E+00 0. -1.
<mgrwt>
<rscale>  0 0.63198919E+02</rscale>
<asrwt>0</asrwt>
<pdfrwt beam="1">  1        2 0.16052280E-01 0.94930392E+02</pdfrwt>
<pdfrwt beam="2">  1       -2 0.58848024E-02 0.94930392E+02</pdfrwt>
<totfact> 0.47719553E+04</totfact>
</mgrwt>
</event>
<event>
 6    1  0.1828142E-002  0.9462842E+02  0.7546771E-02  0.1368105E+00
         -4   -1    0    0    0  501 -0.00000000000E+00  0.00000000000E+00  0.16579469363E+02  0.16579469363E+02  0.00000000000E+00 0.  1.
          4   -1    0    0  501    0  0.00000000000E+00 -0.00000000000E+00 -0.22507131798E+03  0.22507131798E+03  0.00000000000E+00 0. -1.
         23    2    1    2    0    0 -0.23283447285E+02  0.84991368615E+01 -0.14154719311E+03  0.17026492638E+03  0.91324602555E+02 0.  0.
         11    1    3    3    0    0 -0.46671712740E+02  0.15614522109E+02 -0.33615342867E+02  0.59599105252E+02  0.00000000000E+00 0.  1.
        -11    1    3    3    0    0  0.23388265455E+02 -0.71153852476E+01 -0.10793185025E+03  0.11066582113E+03  0.00000000000E+00 0. -1.
         22    1    1    2    0    0  0.23283447285E+02 -0.84991368615E+01 -0.66944655509E+02  0.71385860968E+02  0.00000000000E+00 0. -1.
<mgrwt>
<rscale>  0 0.67696862E+02</rscale>
<asrwt>0</asrwt>
<pdfrwt beam="1">  1        4 0.34626359E-01 0.94628417E+02</pdfrwt>
<pdfrwt beam="2">  1       -4 0.25506874E-02 0.94628417E+02</pdfrwt>
<totfact> 0.82948272E+03</totfact>
</mgrwt>
</event>
<event>
 6    1  0.1828142E-002  0.9004722E+02  0.7546771E-02  0.1431620E+00
         -2   -1    0    0    0  501 -0.00000000000E+00  0.00000000000E+00  0.73000537354E+02  0.73000537354E+02  0.00000000000E+00 0.  1.
          2   -1    0    0  501    0  0.00000000000E+00 -0.00000000000E+00 -0.35635600957E+02  0.35635600957E+02  0.00000000000E+00 0. -1.
         23    2    1    2    0    0  0.98986930498E+01 -0.35408736676E+01  0.38752688820E+02  0.98031999157E+02  0.89431426565E+02 0.  0.
         11    1    3    3    0    0 -0.24575811939E+02  0.10491133638E+02  0.52049019238E+02  0.58507562085E+02  0.00000000000E+00 0.  1.
        -11    1    3    3    0    0  0.34474504989E+02 -0.14032007306E+02 -0.13296330418E+02  0.39524437072E+02  0.00000000000E+00 0. -1.
         22    1    1    2    0    0 -0.98986930498E+01  0.35408736676E+01 -0.13877524228E+01  0.10604139155E+02  0.00000000000E+00 0. -1.
<mgrwt>
<rscale>  0 0.52636110E+02</rscale>
<asrwt>0</asrwt>
<pdfrwt beam="1">  1        2 0.54824002E-02 0.90047221E+02</pdfrwt>
<pdfrwt beam="2">  1       -2 0.11230852E-01 0.90047221E+02</pdfrwt>
<totfact> 0.65153055E+04</totfact>
</mgrwt>
</event>
<event>
 6    1  0.1828142E-002  0.9546854E+02  0.7546771E-02  0.1387045E+00
          2   -1    0    0  501    0  0.00000000000E+00  0.00000000000E+00  0.12605116439E+02  0.12605116439E+02  0.00000000000E+00 0. -1.
         -2   -1    0    0    0  501 -0.00000000000E+00 -0.00000000000E+00 -0.26657015494E+03  0.26657015494E+03  0.00000000000E+00 0.  1.
         23    2    1    2    0    0  0.12379234130E+02  0.12654508244E+02 -0.23259511646E+03  0.25142539598E+03  0.93812896381E+02 0.  0.
         13    1    3    3    0    0  0.36391255646E+02  0.17361452679E+02 -0.22045198863E+03  0.22410895301E+03  0.00000000000E+00 0.  1.
        -13    1    3    3    0    0 -0.24012021516E+02 -0.47069444355E+01 -0.12143127824E+02  0.27316442971E+02  0.00000000000E+00 0. -1.
         22    1    1    2    0    0 -0.12379234130E+02 -0.12654508244E+02 -0.21369922045E+02  0.27749875400E+02  0.00000000000E+00 0. -1.
<mgrwt>
<rscale>  0 0.62647603E+02</rscale>
<asrwt>0</asrwt>
<pdfrwt beam="1">  1        2 0.19392486E-02 0.95468537E+02</pdfrwt>
<pdfrwt beam="2">  1       -2 0.41010795E-01 0.95468537E+02</pdfrwt>
<totfact> 0.28492513E+04</totfact>
</mgrwt>
</event>
<event>
 6    1  0.1828142E-002  0.1022724E+03  0.7546771E-02  0.1315306E+00
          1   -1    0    0  501    0  0.00000000000E+00  0.00000000000E+00  0.14729671362E+03  0.14729671362E+03  0.00000000000E+00 0. -1.
         -1   -1    0    0    0  501 -0.00000000000E+00 -0.00000000000E+00 -0.39957448769E+02  0.39957448769E+02  0.00000000000E+00 0.  1.
         23    2    1    2    0    0  0.39331060321E+02  0.29071513190E+02  0.57069964158E+02  0.11711795364E+03  0.89819536133E+02 0.  0.
         11    1    3    3    0    0  0.73152149530E+01 -0.27932721215E+02 -0.20834688608E+01  0.28949786299E+02  0.00000000000E+00 0. -1.
        -11    1    3    3    0    0  0.32015845368E+02  0.57004234405E+02  0.59153433018E+02  0.88168167343E+02  0.00000000000E+00 0.  1.
         22    1    1    2    0    0 -0.39331060321E+02 -0.29071513190E+02  0.50269300691E+02  0.70136208745E+02  0.00000000000E+00 0. -1.
<mgrwt>
<rscale>  0 0.85048325E+02</rscale>
<asrwt>0</asrwt>
<pdfrwt beam="1">  1        1 0.22661033E-01 0.10227235E+03</pdfrwt>
<pdfrwt beam="2">  1       -1 0.61472999E-02 0.10227235E+03</pdfrwt>
<totfact> 0.25038393E+04</totfact>
</mgrwt>
</event>
<event>
 6    1  0.1828142E-002  0.9240029E+02  0.7546771E-02  0.1404583E+00
         -2   -1    0    0    0  501 -0.00000000000E+00  0.00000000000E+00  0.16908902315E+02  0.16908902315E+02  0.00000000000E+00 0.  1.
          2   -1    0    0  501    0  0.00000000000E+00 -0.00000000000E+00 -0.17551751880E+03  0.17551751880E+03  0.00000000000E+00 0. -1.
         23    2    1    2    0    0  0.12738927112E+02 -0.74650134875E+01 -0.12269804516E+03  0.15359890737E+03  0.91212978081E+02 0.  0.
         11    1    3    3    0    0 -0.31569730480E+02  0.15292339967E+02 -0.82303759744E+02  0.89467381835E+02  0.00000000000E+00 0. -1.
        -11    1    3    3    0    0  0.44308657592E+02 -0.22757353454E+02 -0.40394285414E+02  0.64131525539E+02  0.00000000000E+00 0.  1.
         22    1    1    2    0    0 -0.12738927112E+02  0.74650134875E+01 -0.35910571324E+02  0.38827513739E+02  0.00000000000E+00 0. -1.
<mgrwt>
<rscale>  0 0.58420294E+02</rscale>
<asrwt>0</asrwt>
<pdfrwt beam="1">  1        2 0.27002695E-01 0.92400293E+02</pdfrwt>
<pdfrwt beam="2">  1       -2 0.26013696E-02 0.92400293E+02</pdfrwt>
<totfact> 0.88556627E+04</totfact>
</mgrwt>
</event>
<event>
 6    1  0.1828142E-002  0.9277436E+02  0.7546771E-02  0.1383174E+00
         -2   -1    0    0    0  501 -0.00000000000E+00  0.00000000000E+00  0.53372545320E+02  0.53372545320E+02  0.00000000000E+00 0.  1.
          2   -1    0    0  501    0  0.00000000000E+00 -0.00000000000E+00 -0.87284892517E+02  0.87284892517E+02  0.00000000000E+00 0. -1.
         23    2    1    2    0    0  0.13228762192E+02  0.15709591983E+02  0.88735196470E+01  0.93197751460E+02  0.90472593071E+02 0.  0.
         13    1    3    3    0    0  0.80402586329E+01 -0.82533238778E+01 -0.38320277214E+02  0.40015081653E+02  0.00000000000E+00 0. -1.
        -13    1    3    3    0    0  0.51885035592E+01  0.23962915861E+02  0.47193796861E+02  0.53182669808E+02  0.00000000000E+00 0.  1.
         22    1    1    2    0    0 -0.13228762192E+02 -0.15709591983E+02 -0.42785866844E+02  0.47459686377E+02  0.00000000000E+00 0. -1.
<mgrwt>
<rscale>  0 0.63636779E+02</rscale>
<asrwt>0</asrwt>
<pdfrwt beam="1">  1        2 0.13428445E-01 0.92774358E+02</pdfrwt>
<pdfrwt beam="2">  1       -2 0.82111609E-02 0.92774358E+02</pdfrwt>
<totfact> 0.35326778E+04</totfact>
</mgrwt>
</event>
<event>
 6    1  0.1828142E-002  0.9520984E+02  0.7546771E-02  0.1370449E+00
         -2   -1    0    0    0  501 -0.00000000000E+00  0.00000000000E+00  0.28447369611E+03  0.28447369611E+03  0.00000000000E+00 0.  1.
          2   -1    0    0  501    0  0.00000000000E+00 -0.00000000000E+00 -0.18001387316E+02  0.18001387316E+02  0.00000000000E+00 0. -1.
         23    2    1    2    0    0 -0.20691585926E+02  0.10943939259E+02  0.26184107376E+03  0.27861382042E+03  0.92287602007E+02 0.  0.
         13    1    3    3    0    0 -0.44874368543E+02  0.79752572601E+01  0.24449159769E+03  0.24870354847E+03  0.00000000000E+00 0.  1.
        -13    1    3    3    0    0  0.24182782617E+02  0.29686819993E+01  0.17349476068E+02  0.29910271944E+02  0.00000000000E+00 0. -1.
         22    1    1    2    0    0  0.20691585926E+02 -0.10943939259E+02  0.46312350389E+01  0.23861263014E+02  0.00000000000E+00 0.  1.
<mgrwt>
<rscale>  0 0.67042495E+02</rscale>
<asrwt>0</asrwt>
<pdfrwt beam="1">  1        2 0.27694444E-02 0.95209837E+02</pdfrwt>
<pdfrwt beam="2">  1       -2 0.43765181E-01 0.95209837E+02</pdfrwt>
<totfact> 0.15596315E+04</totfact>
</mgrwt>
</event>
<event>
 6    1  0.1828142E-002  0.9693998E+02  0.7546771E-02  0.1348485E+00
          2   -1    0    0  501    0  0.00000000000E+00  0.00000000000E+00  0.26144606483E+03  0.26144606483E+03  0.00000000000E+00 0. -1.
         -2   -1    0    0    0  501 -0.00000000000E+00 -0.00000000000E+00 -0.17428755247E+02  0.17428755247E+02  0.00000000000E+00 0.  1.
         23    2    1    2    0    0 -0.22646097520E+02  0.22733628279E+02  0.14203263924E+03  0.17196113259E+03  0.91475116418E+02 0.  0.
         11    1    3    3    0    0  0.18927193935E+01  0.55405257864E+02  0.91389560547E+02  0.10688955404E+03  0.00000000000E+00 0. -1.
        -11    1    3    3    0    0 -0.24538816913E+02 -0.32671629585E+02  0.50643078691E+02  0.65071578546E+02  0.00000000000E+00 0.  1.
         22    1    1    2    0    0  0.22646097520E+02 -0.22733628279E+02  0.10198467034E+03  0.10691368749E+03  0.00000000000E+00 0.  1.
<mgrwt>
<rscale>  0 0.73529926E+02</rscale>
<asrwt>0</asrwt>
<pdfrwt beam="1">  1        2 0.40222469E-01 0.96939984E+02</pdfrwt>
<pdfrwt beam="2">  1       -2 0.26813472E-02 0.96939984E+02</pdfrwt>
<totfact> 0.55841314E+04</totfact>
</mgrwt>
</event>
<event>
 6    1  0.1828142E-002  0.9222508E+02  0.7546771E-02  0.1425510E+00
          2   -1    0    0  501    0  0.00000000000E+00  0.00000000000E+00  0.12339288876E+02  0.12339288876E+02  0.00000000000E+00 0. -1.
         -2   -1    0    0    0  501 -0.00000000000E+00 -0.00000000000E+00 -0.25403453953E+03  0.25403453953E+03  0.00000000000E+00 0.  1.
         23    2    1    2    0    0 -0.29897818543E+01 -0.10312891036E+02 -0.23761881738E+03  0.25488854106E+03  0.91597879214E+02 0.  0.
         11    1    3    3    0    0  0.14085580614E+02 -0.25247580978E+02 -0.17904223543E+02  0.34005957524E+02  0.00000000000E+00 0. -1.
        -11    1    3    3    0    0 -0.17075362468E+02  0.14934689942E+02 -0.21971459383E+03  0.22088258354E+03  0.00000000000E+00 0.  1.
         22    1    1    2    0    0  0.29897818543E+01  0.10312891036E+02 -0.40764332744E+01  0.11485287341E+02  0.00000000000E+00 0. -1.
<mgrwt>
<rscale>  0 0.53871972E+02</rscale>
<asrwt>0</asrwt>
<pdfrwt beam="1">  1        2 0.18983522E-02 0.92225083E+02</pdfrwt>
<pdfrwt beam="2">  1       -2 0.39082236E-01 0.92225083E+02</pdfrwt>
<totfact> 0.31947840E+04</totfact>
</mgrwt>
</event>
<event>
 6    1  0.1828142E-002  0.9260973E+02  0.7546771E-02  0.1407538E+00
         -2   -1    0    0    0  501 -0.00000000000E+00  0.00000000000E+00  0.19054413646E+04  0.19054413646E+04  0.00000000000E+00 0.  1.
          2   -1    0    0  501    0  0.00000000000E+00 -0.00000000000E+00 -0.19657493982E+01  0.19657493982E+01  0.00000000000E+00 0. -1.
         23    2    1    2    0    0 -0.49585771152E+00 -0.13991750227E+02  0.18432726274E+04  0.18455976108E+04  0.91545327565E+02 0.  0.
         11    1    3    3    0    0 -0.27516847917E+02 -0.43064458590E+02  0.85264286297E+03  0.85417303651E+03  0.00000000000E+00 0. -1.
        -11    1    3    3    0    0  0.27020990205E+02  0.29072708363E+02  0.99062976441E+03  0.99142457425E+03  0.00000000000E+00 0.  1.
         22    1    1    2    0    0  0.49585771152E+00  0.13991750227E+02  0.60202987771E+02  0.61809503200E+02  0.00000000000E+00 0. -1.
<mgrwt>
<rscale>  0 0.57746891E+02</rscale>
<asrwt>0</asrwt>
<pdfrwt beam="1">  1        2 0.30242451E-03 0.92609729E+02</pdfrwt>
<pdfrwt beam="2">  1       -2 0.29314335E+00 0.92609729E+02</pdfrwt>
<totfact> 0.29057214E+03</totfact>
</mgrwt>
</event>
<event>
 6    1  0.1828142E-002  0.9574961E+02  0.7546771E-02  0.1364594E+00
         -2   -1    0    0    0  501 -0.00000000000E+00  0.00000000000E+00  0.51585330909E+01  0.51585330909E+01  0.00000000000E+00 0.  1.
          2   -1    0    0  501    0  0.00000000000E+00 -0.00000000000E+00 -0.71460139639E+03  0.71460139639E+03  0.00000000000E+00 0. -1.
         23    2    1    2    0    0 -0.16558026064E+01 -0.25311388760E+02 -0.58089233033E+03  0.58873074339E+03  0.92328655807E+02 0.  0.
         11    1    3    3    0    0 -0.38300310590E+02 -0.24681257513E+02 -0.16343063206E+03  0.16966334242E+03  0.00000000000E+00 0. -1.
        -11    1    3    3    0    0  0.36644507984E+02 -0.63013124642E+00 -0.41746169827E+03  0.41906740097E+03  0.00000000000E+00 0.  1.
         22    1    1    2    0    0  0.16558026064E+01  0.25311388760E+02 -0.12855053297E+03  0.13102918610E+03  0.00000000000E+00 0.  1.
<mgrwt>
<rscale>  0 0.68693175E+02</rscale>
<asrwt>0</asrwt>
<pdfrwt beam="1">  1        2 0.10993859E+00 0.95749615E+02</pdfrwt>
<pdfrwt beam="2">  1       -2 0.79362111E-03 0.95749615E+02</pdfrwt>
<totfact> 0.10724884E+05</totfact>
</mgrwt>
</event>
<event>
 6    1  0.1828142E-002  0.9135357E+02  0.7546771E-02  0.1427763E+00
         -1   -1    0    0    0  501 -0.00000000000E+00  0.00000000000E+00  0.48167758980E+03  0.48167758980E+03  0.00000000000E+00 0.  1.
          1   -1    0    0  501    0  0.00000000000E+00 -0.00000000000E+00 -0.86374185356E+01  0.86374185356E+01  0.00000000000E+00 0. -1.
         23    2    1    2    0    0  0.10279540916E+02 -0.28789502254E+01  0.47057325347E+03  0.47935859472E+03  0.90727714293E+02 0.  0.
         13    1    3    3    0    0  0.46453793994E+02 -0.20673342829E+02  0.24687463713E+03  0.25205639952E+03  0.00000000000E+00 0.  1.
        -13    1    3    3    0    0 -0.36174253078E+02  0.17794392604E+02  0.22369861634E+03  0.22730219521E+03  0.00000000000E+00 0. -1.
         22    1    1    2    0    0 -0.10279540916E+02  0.28789502254E+01  0.24669177984E+01  0.10956413613E+02  0.00000000000E+00 0. -1.
<mgrwt>
<rscale>  0 0.53411765E+02</rscale>
<asrwt>0</asrwt>
<pdfrwt beam="1">  1        1 0.13288340E-02 0.91353574E+02</pdfrwt>
<pdfrwt beam="2">  1       -1 0.74104224E-01 0.91353574E+02</pdfrwt>
<totfact> 0.18397806E+04</totfact>
</mgrwt>
</event>
<event>
 6    1  0.1828142E-002  0.1086699E+03  0.7546771E-02  0.1296014E+00
         -1   -1    0    0    0  501 -0.00000000000E+00  0.00000000000E+00  0.23209770006E+03  0.23209770006E+03  0.00000000000E+00 0.  1.
          1   -1    0    0  501    0  0.00000000000E+00 -0.00000000000E+00 -0.46488333523E+02  0.46488333523E+02  0.00000000000E+00 0. -1.
         23    2    1    2    0    0 -0.20702305858E+02 -0.54180508213E+02  0.19160475885E+03  0.22027602015E+03  0.91896836179E+02 0.  0.
         11    1    3    3    0    0  0.67815474214E+01 -0.59969071922E+02  0.18006730273E+03  0.18991185452E+03  0.00000000000E+00 0.  1.
        -11    1    3    3    0    0 -0.27483853280E+02  0.57885637084E+01  0.11537456122E+02  0.30364165634E+02  0.00000000000E+00 0. -1.
         22    1    1    2    0    0  0.20702305858E+02  0.54180508213E+02 -0.59953923114E+01  0.58310013438E+02  0.00000000000E+00 0. -1.
<mgrwt>
<rscale>  0 0.92883954E+02</rscale>
<asrwt>0</asrwt>
<pdfrwt beam="1">  1        1 0.71520514E-02 0.10866987E+03</pdfrwt>
<pdfrwt beam="2">  1       -1 0.35707338E-01 0.10866987E+03</pdfrwt>
<totfact> 0.71193470E+03</totfact>
</mgrwt>
</event>
<event>
 6    1  0.1828142E-002  0.9018747E+02  0.7546771E-02  0.1424883E+00
         -2   -1    0    0    0  501 -0.00000000000E+00  0.00000000000E+00  0.17819336917E+02  0.17819336917E+02  0.00000000000E+00 0. -1.
          2   -1    0    0  501    0  0.00000000000E+00 -0.00000000000E+00 -0.14540449032E+03  0.14540449032E+03  0.00000000000E+00 0.  1.
         23    2    1    2    0    0  0.67006692541E+01 -0.94595837440E+01 -0.11190091853E+03  0.14372054760E+03  0.89439351191E+02 0.  0.
         13    1    3    3    0    0  0.27805783721E+02 -0.40891015303E+02 -0.80771540982E+02  0.94706275259E+02  0.00000000000E+00 0. -1.
        -13    1    3    3    0    0 -0.21105114467E+02  0.31431431559E+02 -0.31129377549E+02  0.49014272341E+02  0.00000000000E+00 0.  1.
         22    1    1    2    0    0 -0.67006692541E+01  0.94595837440E+01 -0.15684234875E+02  0.19503279639E+02  0.00000000000E+00 0.  1.
<mgrwt>
<rscale>  0 0.54001097E+02</rscale>
<asrwt>0</asrwt>
<pdfrwt beam="1">  1        2 0.22369921E-01 0.90187473E+02</pdfrwt>
<pdfrwt beam="2">  1       -2 0.27414366E-02 0.90187473E+02</pdfrwt>
<totfact> 0.10042934E+05</totfact>
</mgrwt>
</event>
<event>
 6    1  0.1828142E-002  0.9407619E+02  0.7546771E-02  0.1387180E+00
         -2   -1    0    0    0  501 -0.00000000000E+00  0.00000000000E+00  0.41842606785E+02  0.41842606785E+02  0.00000000000E+00 0.  1.
          2   -1    0    0  501    0  0.00000000000E+00 -0.00000000000E+00 -0.80661396699E+02  0.80661396699E+02  0.00000000000E+00 0. -1.
         23    2    1    2    0    0 -0.15618779080E+02 -0.98403456441E+01 -0.20071446122E+02  0.96193519611E+02  0.92247230872E+02 0.  0.
         11    1    3    3    0    0 -0.50092825299E+02 -0.25502666195E+02 -0.11940641706E+02  0.57465259539E+02  0.00000000000E+00 0. -1.
        -11    1    3    3    0    0  0.34474046219E+02  0.15662320551E+02 -0.81308044162E+01  0.38728260072E+02  0.00000000000E+00 0.  1.
         22    1    1    2    0    0  0.15618779080E+02  0.98403456441E+01 -0.18747343793E+02  0.26310483873E+02  0.00000000000E+00 0. -1.
<mgrwt>
<rscale>  0 0.62613626E+02</rscale>
<asrwt>0</asrwt>
<pdfrwt beam="1">  1        2 0.12409445E-01 0.94076194E+02</pdfrwt>
<pdfrwt beam="2">  1       -2 0.64373243E-02 0.94076194E+02</pdfrwt>
<totfact> 0.56223198E+04</totfact>
</mgrwt>
</event>
<event>
 6    1  0.1828142E-002  0.9872892E+02  0.7546771E-02  0.1386311E+00
         -2   -1    0    0    0  501 -0.00000000000E+00  0.00000000000E+00  0.33554015757E+03  0.33554015757E+03  0.00000000000E+00 0. -1.
          2   -1    0    0  501    0  0.00000000000E+00 -0.00000000000E+00 -0.20140384693E+02  0.20140384693E+02  0.00000000000E+00 0.  1.
         23    2    1    2    0    0  0.47878720714E+01  0.15473121322E+02  0.32302684624E+03  0.33777765282E+03  0.97391263208E+02 0.  0.
         13    1    3    3    0    0 -0.16653204745E+02  0.41151209235E+02  0.27886237301E+03  0.28237382019E+03  0.00000000000E+00 0. -1.
        -13    1    3    3    0    0  0.21441076816E+02 -0.25678087913E+02  0.44164473233E+02  0.55403832628E+02  0.00000000000E+00 0.  1.
         22    1    1    2    0    0 -0.47878720714E+01 -0.15473121322E+02 -0.76270733621E+01  0.17902889445E+02  0.00000000000E+00 0.  1.
<mgrwt>
<rscale>  0 0.62833550E+02</rscale>
<asrwt>0</asrwt>
<pdfrwt beam="1">  1        2 0.30985210E-02 0.98728919E+02</pdfrwt>
<pdfrwt beam="2">  1       -2 0.51621558E-01 0.98728919E+02</pdfrwt>
<totfact> 0.97825689E+03</totfact>
</mgrwt>
</event>
<event>
 6    1  0.1828142E-002  0.9510729E+02  0.7546771E-02  0.1363889E+00
          2   -1    0    0  501    0  0.00000000000E+00  0.00000000000E+00  0.72570075045E+03  0.72570075045E+03  0.00000000000E+00 0.  1.
         -2   -1    0    0    0  501 -0.00000000000E+00 -0.00000000000E+00 -0.50701356322E+01  0.50701356322E+01  0.00000000000E+00 0. -1.
         23    2    1    2    0    0  0.25084256857E+02 -0.75272931359E+01  0.57036855513E+03  0.57824362076E+03  0.91430389852E+02 0.  0.
         11    1    3    3    0    0  0.47039949574E+02  0.15164201343E+02  0.18192808674E+03  0.18852198440E+03  0.00000000000E+00 0. -1.
        -11    1    3    3    0    0 -0.21955692717E+02 -0.22691494479E+02  0.38844046839E+03  0.38972163636E+03  0.00000000000E+00 0.  1.
         22    1    1    2    0    0 -0.25084256857E+02  0.75272931359E+01  0.15026205969E+03  0.15252726532E+03  0.00000000000E+00 0.  1.
<mgrwt>
<rscale>  0 0.68895582E+02</rscale>
<asrwt>0</asrwt>
<pdfrwt beam="1">  1        2 0.11164619E+00 0.95107288E+02</pdfrwt>
<pdfrwt beam="2">  1       -2 0.78002145E-03 0.95107288E+02</pdfrwt>
<totfact> 0.10781871E+05</totfact>
</mgrwt>
</event>
<event>
 6    1  0.1828142E-002  0.9488960E+02  0.7546771E-02  0.1405016E+00
         -2   -1    0    0    0  501 -0.00000000000E+00  0.00000000000E+00  0.12639683511E+02  0.12639683511E+02  0.00000000000E+00 0.  1.
          2   -1    0    0  501    0  0.00000000000E+00 -0.00000000000E+00 -0.23460089585E+03  0.23460089585E+03  0.00000000000E+00 0. -1.
         23    2    1    2    0    0  0.11081759901E+02  0.77810108066E+01 -0.18581632682E+03  0.20864262241E+03  0.93918512772E+02 0.  0.
         11    1    3    3    0    0  0.16566074666E+02  0.65456328950E+01 -0.19610818519E+03  0.19691546521E+03  0.00000000000E+00 0. -1.
        -11    1    3    3    0    0 -0.54843147648E+01  0.12353779116E+01  0.10291858377E+02  0.11727157195E+02  0.00000000000E+00 0.  1.
         22    1    1    2    0    0 -0.11081759901E+02 -0.77810108066E+01 -0.36144885517E+02  0.38597956950E+02  0.00000000000E+00 0. -1.
<mgrwt>
<rscale>  0 0.58320863E+02</rscale>
<asrwt>0</asrwt>
<pdfrwt beam="1">  1        2 0.36092443E-01 0.94889602E+02</pdfrwt>
<pdfrwt beam="2">  1       -2 0.19445668E-02 0.94889602E+02</pdfrwt>
<totfact> 0.99243736E+04</totfact>
</mgrwt>
</event>
<event>
 6    1  0.1828142E-002  0.9272424E+02  0.7546771E-02  0.1383973E+00
          2   -1    0    0  501    0  0.00000000000E+00  0.00000000000E+00  0.35877598285E+02  0.35877598285E+02  0.00000000000E+00 0. -1.
         -2   -1    0    0    0  501 -0.00000000000E+00 -0.00000000000E+00 -0.89675724699E+02  0.89675724699E+02  0.00000000000E+00 0.  1.
         23    2    1    2    0    0 -0.20264621575E+02  0.12923683616E+01 -0.48129154294E+02  0.10447104729E+03  0.90473527207E+02 0.  0.
         13    1    3    3    0    0 -0.68178162604E+00  0.42286228267E+02 -0.63798114852E+01  0.42770222373E+02  0.00000000000E+00 0. -1.
        -13    1    3    3    0    0 -0.19582839949E+02 -0.40993859906E+02 -0.41749342808E+02  0.61700824917E+02  0.00000000000E+00 0.  1.
         22    1    1    2    0    0  0.20264621575E+02 -0.12923683616E+01 -0.56689721204E+01  0.21082275695E+02  0.00000000000E+00 0. -1.
<mgrwt>
<rscale>  0 0.63430762E+02</rscale>
<asrwt>0</asrwt>
<pdfrwt beam="1">  1        2 0.55196305E-02 0.92724238E+02</pdfrwt>
<pdfrwt beam="2">  1       -2 0.13796265E-01 0.92724238E+02</pdfrwt>
<totfact> 0.46799811E+04</totfact>
</mgrwt>
</event>
<event>
 6    1  0.1828142E-002  0.1005728E+03  0.7546771E-02  0.1372586E+00
         -4   -1    0    0    0  501 -0.00000000000E+00  0.00000000000E+00  0.26232294962E+02  0.26232294962E+02  0.00000000000E+00 0.  1.
          4   -1    0    0  501    0  0.00000000000E+00 -0.00000000000E+00 -0.15678867111E+03  0.15678867111E+03  0.00000000000E+00 0. -1.
         23    2    1    2    0    0 -0.77032384924E+00 -0.19154686900E+02 -0.78608228528E+02  0.12764854089E+03  0.98728926717E+02 0.  0.
         11    1    3    3    0    0 -0.34915006461E+02 -0.25026484030E+02 -0.82269467732E+02  0.92809740329E+02  0.00000000000E+00 0. -1.
        -11    1    3    3    0    0  0.34144682611E+02  0.58717971303E+01  0.36612392045E+01  0.34838800563E+02  0.00000000000E+00 0.  1.
         22    1    1    2    0    0  0.77032384924E+00  0.19154686900E+02 -0.51948147624E+02  0.55372425183E+02  0.00000000000E+00 0.  1.
<mgrwt>
<rscale>  0 0.66453373E+02</rscale>
<asrwt>0</asrwt>
<pdfrwt beam="1">  1        4 0.24121334E-01 0.10057284E+03</pdfrwt>
<pdfrwt beam="2">  1       -4 0.40357377E-02 0.10057284E+03</pdfrwt>
<totfact> 0.81035332E+03</totfact>
</mgrwt>
</event>
<event>
 6    1  0.1828142E-002  0.1119900E+03  0.7546771E-02  0.1289063E+00
          2   -1    0    0  501    0  0.00000000000E+00  0.00000000000E+00  0.49520289455E+03  0.49520289455E+03  0.00000000000E+00 0. -1.
         -2   -1    0    0    0  501 -0.00000000000E+00 -0.00000000000E+00 -0.15005350706E+02  0.15005350706E+02  0.00000000000E+00 0.  1.
         23    2    1    2    0    0  0.57234214537E+02  0.19080114295E+02  0.30449600056E+03  0.32443731538E+03  0.94350151974E+02 0.  0.
         11    1    3    3    0    0 -0.14079686722E+02  0.32144059682E+02  0.60965544760E+02  0.70343981967E+02  0.00000000000E+00 0.  1.
        -11    1    3    3    0    0  0.71313901259E+02 -0.13063945387E+02  0.24353045580E+03  0.25409333341E+03  0.00000000000E+00 0. -1.
         22    1    1    2    0    0 -0.57234214537E+02 -0.19080114295E+02  0.17570154329E+03  0.18577092988E+03  0.00000000000E+00 0. -1.
<mgrwt>
<rscale>  0 0.95944300E+02</rscale>
<asrwt>0</asrwt>
<pdfrwt beam="1">  1        2 0.76185048E-01 0.11198999E+03</pdfrwt>
<pdfrwt beam="2">  1       -2 0.23085159E-02 0.11198999E+03</pdfrwt>
<totfact> 0.35916606E+04</totfact>
</mgrwt>
</event>
<event>
 6    1  0.1828142E-002  0.9235460E+02  0.7546771E-02  0.1405937E+00
         -1   -1    0    0    0  501 -0.00000000000E+00  0.00000000000E+00  0.12571415697E+03  0.12571415697E+03  0.00000000000E+00 0.  1.
          1   -1    0    0  501    0  0.00000000000E+00 -0.00000000000E+00 -0.24192966863E+02  0.24192966863E+02  0.00000000000E+00 0. -1.
         23    2    1    2    0    0 -0.12042954400E+02 -0.80321424187E+01  0.98678644788E+02  0.13515489938E+03  0.91213068283E+02 0.  0.
         13    1    3    3    0    0  0.23107524509E+02  0.14725578039E+02  0.87677622675E+02  0.91859489741E+02  0.00000000000E+00 0.  1.
        -13    1    3    3    0    0 -0.35150478909E+02 -0.22757720458E+02  0.11001022112E+02  0.43295409635E+02  0.00000000000E+00 0. -1.
         22    1    1    2    0    0  0.12042954400E+02  0.80321424187E+01  0.28425453180E+01  0.14752224456E+02  0.00000000000E+00 0. -1.
<mgrwt>
<rscale>  0 0.58110465E+02</rscale>
<asrwt>0</asrwt>
<pdfrwt beam="1">  1        1 0.37219950E-02 0.92354599E+02</pdfrwt>
<pdfrwt beam="2">  1       -1 0.19340639E-01 0.92354599E+02</pdfrwt>
<totfact> 0.46276223E+04</totfact>
</mgrwt>
</event>
<event>
 6    1  0.1828142E-002  0.9252839E+02  0.7546771E-02  0.1423465E+00
          4   -1    0    0  501    0  0.00000000000E+00  0.00000000000E+00  0.70458319261E+02  0.70458319261E+02  0.00000000000E+00 0. -1.
         -4   -1    0    0    0  501 -0.00000000000E+00 -0.00000000000E+00 -0.38202666517E+02  0.38202666517E+02  0.00000000000E+00 0.  1.
         23    2    1    2    0    0 -0.84027542295E+01 -0.70520697581E+01  0.26373767744E+02  0.96213715489E+02  0.91875815407E+02 0.  0.
         11    1    3    3    0    0 -0.35996518005E+02 -0.34844262515E+02  0.27269496100E+02  0.57039436851E+02  0.00000000000E+00 0. -1.
        -11    1    3    3    0    0  0.27593763775E+02  0.27792192757E+02 -0.89572835690E+00  0.39174278638E+02  0.00000000000E+00 0.  1.
         22    1    1    2    0    0  0.84027542295E+01  0.70520697581E+01  0.58818850005E+01  0.12447270290E+02  0.00000000000E+00 0. -1.
<mgrwt>
<rscale>  0 0.54294595E+02</rscale>
<asrwt>0</asrwt>
<pdfrwt beam="1">  1        4 0.10839741E-01 0.92528393E+02</pdfrwt>
<pdfrwt beam="2">  1       -4 0.58773333E-02 0.92528393E+02</pdfrwt>
<totfact> 0.17588225E+04</totfact>
</mgrwt>
</event>
<event>
 6    1  0.1828142E-002  0.9864152E+02  0.7546771E-02  0.1339870E+00
         -4   -1    0    0    0  501 -0.00000000000E+00  0.00000000000E+00  0.20140174529E+03  0.20140174529E+03  0.00000000000E+00 0.  1.
          4   -1    0    0  501    0  0.00000000000E+00 -0.00000000000E+00 -0.25640215744E+02  0.25640215744E+02  0.00000000000E+00 0. -1.
         23    2    1    2    0    0  0.14172547511E+02 -0.32357659996E+02  0.16087394832E+03  0.18870765084E+03  0.92099245242E+02 0.  0.
         11    1    3    3    0    0  0.84945953487E+01  0.18868711143E+02  0.98399132669E+00  0.20716048109E+02  0.00000000000E+00 0. -1.
        -11    1    3    3    0    0  0.56779521621E+01 -0.51226371139E+02  0.15988995699E+03  0.16799160273E+03  0.00000000000E+00 0.  1.
         22    1    1    2    0    0 -0.14172547511E+02  0.32357659996E+02  0.14887581227E+02  0.38334310195E+02  0.00000000000E+00 0. -1.
<mgrwt>
<rscale>  0 0.76307355E+02</rscale>
<asrwt>0</asrwt>
<pdfrwt beam="1">  1        4 0.39446487E-02 0.98641524E+02</pdfrwt>
<pdfrwt beam="2">  1       -4 0.30984883E-01 0.98641524E+02</pdfrwt>
<totfact> 0.52510419E+03</totfact>
</mgrwt>
</event>
<event>
 6    1  0.1828142E-002  0.9054436E+02  0.7546771E-02  0.1411238E+00
         -2   -1    0    0    0  501 -0.00000000000E+00  0.00000000000E+00  0.11390428380E+02  0.11390428380E+02  0.00000000000E+00 0.  1.
          2   -1    0    0  501    0  0.00000000000E+00 -0.00000000000E+00 -0.24540685365E+03  0.24540685365E+03  0.00000000000E+00 0. -1.
         23    2    1    2    0    0  0.14004244535E+02  0.19502009539E+01 -0.18818873455E+03  0.20883793064E+03  0.89433546919E+02 0.  0.
         13    1    3    3    0    0  0.94508237296E+01  0.35448446596E+02 -0.30925903969E+02  0.47982517353E+02  0.00000000000E+00 0.  1.
        -13    1    3    3    0    0  0.45534208052E+01 -0.33498245642E+02 -0.15726283058E+03  0.16085541329E+03  0.00000000000E+00 0. -1.
         22    1    1    2    0    0 -0.14004244535E+02 -0.19502009539E+01 -0.45827690721E+02  0.47959351388E+02  0.00000000000E+00 0.  1.
<mgrwt>
<rscale>  0 0.56918530E+02</rscale>
<asrwt>0</asrwt>
<pdfrwt beam="1">  1        2 0.37754900E-01 0.90544362E+02</pdfrwt>
<pdfrwt beam="2">  1       -2 0.17523736E-02 0.90544362E+02</pdfrwt>
<totfact> 0.10910059E+05</totfact>
</mgrwt>
</event>
<event>
 6    1  0.1828142E-002  0.8919750E+02  0.7546771E-02  0.1418210E+00
          2   -1    0    0  501    0  0.00000000000E+00  0.00000000000E+00  0.47203791797E+02  0.47203791797E+02  0.00000000000E+00 0.  1.
         -2   -1    0    0    0  501 -0.00000000000E+00 -0.00000000000E+00 -0.24497519317E+03  0.24497519317E+03  0.00000000000E+00 0. -1.
         23    2    1    2    0    0 -0.32519634603E+01 -0.12870277812E+02 -0.23568998228E+03  0.25200389200E+03  0.88204163842E+02 0.  0.
         11    1    3    3    0    0  0.28618664325E+02 -0.31165033868E+02 -0.18258767503E+03  0.18742610906E+03  0.00000000000E+00 0. -1.
        -11    1    3    3    0    0 -0.31870627785E+02  0.18294756056E+02 -0.53102307249E+02  0.64577782942E+02  0.00000000000E+00 0.  1.
         22    1    1    2    0    0  0.32519634603E+01  0.12870277812E+02  0.37918580904E+02  0.40175092969E+02  0.00000000000E+00 0.  1.
<mgrwt>
<rscale>  0 0.55401458E+02</rscale>
<asrwt>0</asrwt>
<pdfrwt beam="1">  1        2 0.72621220E-02 0.89197499E+02</pdfrwt>
<pdfrwt beam="2">  1       -2 0.37688490E-01 0.89197499E+02</pdfrwt>
<totfact> 0.58772714E+03</totfact>
</mgrwt>
</event>
<event>
 6    1  0.1828142E-002  0.9550106E+02  0.7546771E-02  0.1357092E+00
          4   -1    0    0  501    0  0.00000000000E+00  0.00000000000E+00  0.10279970130E+02  0.10279970130E+02  0.00000000000E+00 0.  1.
         -4   -1    0    0    0  501 -0.00000000000E+00 -0.00000000000E+00 -0.55929306012E+03  0.55929306012E+03  0.00000000000E+00 0. -1.
         23    2    1    2    0    0 -0.19766047540E+02  0.21212807566E+02 -0.51948198945E+03  0.52818745621E+03  0.90993250775E+02 0.  0.
         13    1    3    3    0    0 -0.10354335654E+02 -0.68686034330E+01 -0.59048697216E+01  0.13757087860E+02  0.00000000000E+00 0.  1.
        -13    1    3    3    0    0 -0.94117118851E+01  0.28081410999E+02 -0.51357711973E+03  0.51443036835E+03  0.00000000000E+00 0. -1.
         22    1    1    2    0    0  0.19766047540E+02 -0.21212807566E+02 -0.29531100537E+02  0.41385574046E+02  0.00000000000E+00 0.  1.
<mgrwt>
<rscale>  0 0.70889997E+02</rscale>
<asrwt>0</asrwt>
<pdfrwt beam="1">  1        4 0.15815339E-02 0.95501055E+02</pdfrwt>
<pdfrwt beam="2">  1       -4 0.86045084E-01 0.95501055E+02</pdfrwt>
<totfact> 0.26581205E+03</totfact>
</mgrwt>
</event>
<event>
 6    1  0.1828142E-002  0.9287719E+02  0.7546771E-02  0.1403534E+00
          4   -1    0    0  501    0  0.00000000000E+00  0.00000000000E+00  0.19034211351E+02  0.19034211351E+02  0.00000000000E+00 0. -1.
         -4   -1    0    0    0  501 -0.00000000000E+00 -0.00000000000E+00 -0.22241056068E+03  0.22241056068E+03  0.00000000000E+00 0.  1.
         23    2    1    2    0    0  0.79458212178E+01 -0.12463628779E+02 -0.20642116524E+03  0.22635341619E+03  0.91693475490E+02 0.  0.
         13    1    3    3    0    0  0.13752654486E+02 -0.45221866673E+02 -0.17242802565E+03  0.17878919643E+03  0.00000000000E+00 0.  1.
        -13    1    3    3    0    0 -0.58068332686E+01  0.32758237894E+02 -0.33993139584E+02  0.47564219759E+02  0.00000000000E+00 0. -1.
         22    1    1    2    0    0 -0.79458212178E+01  0.12463628779E+02  0.30448159070E+01  0.15091355839E+02  0.00000000000E+00 0. -1.
<mgrwt>
<rscale>  0 0.58662123E+02</rscale>
<asrwt>0</asrwt>
<pdfrwt beam="1">  1        4 0.29283402E-02 0.92877185E+02</pdfrwt>
<pdfrwt beam="2">  1       -4 0.34217010E-01 0.92877185E+02</pdfrwt>
<totfact> 0.68164388E+03</totfact>
</mgrwt>
</event>
<event>
 6    1  0.1828142E-002  0.9021420E+02  0.7546771E-02  0.1433076E+00
          2   -1    0    0  501    0  0.00000000000E+00  0.00000000000E+00  0.13386906001E+03  0.13386906001E+03  0.00000000000E+00 0. -1.
         -2   -1    0    0    0  501 -0.00000000000E+00 -0.00000000000E+00 -0.26169661812E+02  0.26169661812E+02  0.00000000000E+00 0.  1.
         23    2    1    2    0    0 -0.98881211824E+01 -0.26119305063E+01  0.53504470508E+02  0.10488722766E+03  0.89632611474E+02 0.  0.
         11    1    3    3    0    0 -0.31075958552E+02 -0.11739218287E+02  0.69352599276E+02  0.76898032954E+02  0.00000000000E+00 0. -1.
        -11    1    3    3    0    0  0.21187837370E+02  0.91272877806E+01 -0.15848128768E+02  0.27989194702E+02  0.00000000000E+00 0.  1.
         22    1    1    2    0    0  0.98881211824E+01  0.26119305063E+01  0.54194927691E+02  0.55151494168E+02  0.00000000000E+00 0. -1.
<mgrwt>
<rscale>  0 0.52347525E+02</rscale>
<asrwt>0</asrwt>
<pdfrwt beam="1">  1        2 0.20595240E-01 0.90214202E+02</pdfrwt>
<pdfrwt beam="2">  1       -2 0.40261019E-02 0.90214202E+02</pdfrwt>
<totfact> 0.62814345E+04</totfact>
</mgrwt>
</event>
<event>
 6    1  0.1828142E-002  0.1040788E+03  0.7546771E-02  0.1309042E+00
         -2   -1    0    0    0  501 -0.00000000000E+00  0.00000000000E+00  0.51523343135E+02  0.51523343135E+02  0.00000000000E+00 0.  1.
          2   -1    0    0  501    0  0.00000000000E+00 -0.00000000000E+00 -0.22480875387E+03  0.22480875387E+03  0.00000000000E+00 0. -1.
         23    2    1    2    0    0 -0.41761865995E+02 -0.30938006919E+02 -0.95153424551E+01  0.10451286354E+03  0.90173073477E+02 0.  0.
         13    1    3    3    0    0  0.16300702440E+02  0.19328097551E+02  0.64032229699E+01  0.26082360311E+02  0.00000000000E+00 0. -1.
        -13    1    3    3    0    0 -0.58062568435E+02 -0.50266104470E+02 -0.15918565425E+02  0.78430503231E+02  0.00000000000E+00 0.  1.
         22    1    1    2    0    0  0.41761865995E+02  0.30938006919E+02 -0.16377006828E+03  0.17181923346E+03  0.00000000000E+00 0. -1.
<mgrwt>
<rscale>  0 0.87491645E+02</rscale>
<asrwt>0</asrwt>
<pdfrwt beam="1">  1        2 0.34585962E-01 0.10407880E+03</pdfrwt>
<pdfrwt beam="2">  1       -2 0.79266681E-02 0.10407880E+03</pdfrwt>
<totfact> 0.13180950E+04</totfact>
</mgrwt>
</event>
<event>
 6    1  0.1828142E-002  0.9223103E+02  0.7546771E-02  0.1377488E+00
         -2   -1    0    0    0  501 -0.00000000000E+00  0.00000000000E+00  0.11610592133E+02  0.11610592133E+02  0.00000000000E+00 0.  1.
          2   -1    0    0  501    0  0.00000000000E+00 -0.00000000000E+00 -0.29027934314E+03  0.29027934314E+03  0.00000000000E+00 0. -1.
         23    2    1    2    0    0  0.19368711844E+02  0.12278606896E+02 -0.20639673015E+03  0.22606674499E+03  0.89334493830E+02 0.  0.
         13    1    3    3    0    0 -0.24357521410E+02 -0.45067508251E+01 -0.15319800919E+03  0.15518772397E+03  0.00000000000E+00 0. -1.
        -13    1    3    3    0    0  0.43726233254E+02  0.16785357721E+02 -0.53198720957E+02  0.70879021013E+02  0.00000000000E+00 0.  1.
         22    1    1    2    0    0 -0.19368711844E+02 -0.12278606896E+02 -0.72272020857E+02  0.75823190282E+02  0.00000000000E+00 0.  1.
<mgrwt>
<rscale>  0 0.65128616E+02</rscale>
<asrwt>0</asrwt>
<pdfrwt beam="1">  1        2 0.44658358E-01 0.92231030E+02</pdfrwt>
<pdfrwt beam="2">  1       -2 0.17862450E-02 0.92231030E+02</pdfrwt>
<totfact> 0.89267226E+04</totfact>
</mgrwt>
</event>
<event>
 6    1  0.1828142E-002  0.9259734E+02  0.7546771E-02  0.1383078E+00
         -2   -1    0    0    0  501 -0.00000000000E+00  0.00000000000E+00  0.37964522660E+01  0.37964522660E+01  0.00000000000E+00 0.  1.
          2   -1    0    0  501    0  0.00000000000E+00 -0.00000000000E+00 -0.87314583644E+03  0.87314583644E+03  0.00000000000E+00 0. -1.
         23    2    1    2    0    0  0.16189189560E+02  0.12879823928E+02 -0.76310764777E+03  0.76870511266E+03  0.90256791603E+02 0.  0.
         13    1    3    3    0    0  0.43145880381E+02 -0.22031861606E+02 -0.38757041166E+03  0.39058647431E+03  0.00000000000E+00 0.  1.
        -13    1    3    3    0    0 -0.26956690821E+02  0.34911685534E+02 -0.37553723611E+03  0.37811863835E+03  0.00000000000E+00 0. -1.
         22    1    1    2    0    0 -0.16189189560E+02 -0.12879823928E+02 -0.10624173640E+03  0.10823717604E+03  0.00000000000E+00 0. -1.
<mgrwt>
<rscale>  0 0.63661490E+02</rscale>
<asrwt>0</asrwt>
<pdfrwt beam="1">  1        2 0.13433002E+00 0.92597344E+02</pdfrwt>
<pdfrwt beam="2">  1       -2 0.58407003E-03 0.92597344E+02</pdfrwt>
<totfact> 0.12877460E+05</totfact>
</mgrwt>
</event>
<event>
 6    1  0.1828142E-002  0.9865031E+02  0.7546771E-02  0.1354407E+00
         -2   -1    0    0    0  501 -0.00000000000E+00  0.00000000000E+00  0.16424617619E+03  0.16424617619E+03  0.00000000000E+00 0. -1.
          2   -1    0    0  501    0  0.00000000000E+00 -0.00000000000E+00 -0.42484345630E+02  0.42484345630E+02  0.00000000000E+00 0.  1.
         23    2    1    2    0    0 -0.91618945520E+00  0.27512716916E+02  0.14175864346E+03  0.17270609646E+03  0.94731693556E+02 0.  0.
         13    1    3    3    0    0  0.17861169013E+02 -0.28013029073E+02  0.23424157160E+02  0.40650243480E+02  0.00000000000E+00 0.  1.
        -13    1    3    3    0    0 -0.18777358469E+02  0.55525745989E+02  0.11833448630E+03  0.13205585298E+03  0.00000000000E+00 0. -1.
         22    1    1    2    0    0  0.91618945520E+00 -0.27512716916E+02 -0.19996812896E+02  0.34024425362E+02  0.00000000000E+00 0.  1.
<mgrwt>
<rscale>  0 0.71699704E+02</rscale>
<asrwt>0</asrwt>
<pdfrwt beam="1">  1        2 0.65360533E-02 0.98650305E+02</pdfrwt>
<pdfrwt beam="2">  1       -2 0.25268642E-01 0.98650305E+02</pdfrwt>
<totfact> 0.13878823E+04</totfact>
</mgrwt>
</event>
<event>
 6    1  0.1828142E-002  0.1088292E+03  0.7546771E-02  0.1295453E+00
         -2   -1    0    0    0  501 -0.00000000000E+00  0.00000000000E+00  0.14467230159E+02  0.14467230159E+02  0.00000000000E+00 0.  1.
          2   -1    0    0  501    0  0.00000000000E+00 -0.00000000000E+00 -0.48448041342E+03  0.48448041342E+03  0.00000000000E+00 0. -1.
         23    2    1    2    0    0 -0.55142600773E+02  0.19083445981E+02 -0.29249240004E+03  0.31208268484E+03  0.91863560584E+02 0.  0.
         13    1    3    3    0    0  0.23591897406E+02  0.13437376858E+01 -0.34937328114E+02  0.42178195195E+02  0.00000000000E+00 0. -1.
        -13    1    3    3    0    0 -0.78734498179E+02  0.17739708295E+02 -0.25755507193E+03  0.26990448964E+03  0.00000000000E+00 0.  1.
         22    1    1    2    0    0  0.55142600773E+02 -0.19083445981E+02 -0.17752078322E+03  0.18686495875E+03  0.00000000000E+00 0. -1.
<mgrwt>
<rscale>  0 0.93126208E+02</rscale>
<asrwt>0</asrwt>
<pdfrwt beam="1">  1        2 0.74535433E-01 0.10882922E+03</pdfrwt>
<pdfrwt beam="2">  1       -2 0.22257282E-02 0.10882922E+03</pdfrwt>
<totfact> 0.38658269E+04</totfact>
</mgrwt>
</event>
<event>
 6    1  0.1828142E-002  0.9106719E+02  0.7546771E-02  0.1427592E+00
          2   -1    0    0  501    0  0.00000000000E+00  0.00000000000E+00  0.18571289441E+02  0.18571289441E+02  0.00000000000E+00 0. -1.
         -2   -1    0    0    0  501 -0.00000000000E+00 -0.00000000000E+00 -0.22069823968E+03  0.22069823968E+03  0.00000000000E+00 0.  1.
         23    2    1    2    0    0  0.93735403978E+01  0.53727545459E+01 -0.20793539313E+03  0.22700299906E+03  0.90424024008E+02 0.  0.
         13    1    3    3    0    0 -0.11349766266E+02 -0.28056727964E+02 -0.23220251174E+02  0.38146785486E+02  0.00000000000E+00 0. -1.
        -13    1    3    3    0    0  0.20723306664E+02  0.33429482510E+02 -0.18471514195E+03  0.18885621358E+03  0.00000000000E+00 0.  1.
         22    1    1    2    0    0 -0.93735403978E+01 -0.53727545459E+01  0.58084428841E+01  0.12266530061E+02  0.00000000000E+00 0. -1.
<mgrwt>
<rscale>  0 0.53446487E+02</rscale>
<asrwt>0</asrwt>
<pdfrwt beam="1">  1        2 0.28571215E-02 0.91067194E+02</pdfrwt>
<pdfrwt beam="2">  1       -2 0.33953575E-01 0.91067194E+02</pdfrwt>
<totfact> 0.23887476E+04</totfact>
</mgrwt>
</event>
<event>
 6    1  0.1828142E-002  0.9417500E+02  0.7546771E-02  0.1391969E+00
         -1   -1    0    0    0  501 -0.00000000000E+00  0.00000000000E+00  0.26427048172E+03  0.26427048172E+03  0.00000000000E+00 0.  1.
          1   -1    0    0  501    0  0.00000000000E+00 -0.00000000000E+00 -0.44936319151E+02  0.44936319151E+02  0.00000000000E+00 0. -1.
         23    2    1    2    0    0 -0.14376895495E+02 -0.91434966075E+01  0.25382754376E+03  0.27073483705E+03  0.92620901347E+02 0.  0.
         13    1    3    3    0    0 -0.21785155526E+02 -0.48862084846E+02  0.13431281040E+03  0.14457533460E+03  0.00000000000E+00 0.  1.
        -13    1    3    3    0    0  0.74082600313E+01  0.39718588239E+02  0.11951473335E+03  0.12615950244E+03  0.00000000000E+00 0. -1.
         22    1    1    2    0    0  0.14376895495E+02  0.91434966075E+01 -0.34493381191E+02  0.38471963822E+02  0.00000000000E+00 0. -1.
<mgrwt>
<rscale>  0 0.61419650E+02</rscale>
<asrwt>0</asrwt>
<pdfrwt beam="1">  1        1 0.69132800E-02 0.94174997E+02</pdfrwt>
<pdfrwt beam="2">  1       -1 0.40656996E-01 0.94174997E+02</pdfrwt>
<totfact> 0.58848451E+03</totfact>
</mgrwt>
</event>
<event>
 6    1  0.1828142E-002  0.1103956E+03  0.7546771E-02  0.1290458E+00
         -2   -1    0    0    0  501 -0.00000000000E+00  0.00000000000E+00  0.12996498479E+03  0.12996498479E+03  0.00000000000E+00 0. -1.
          2   -1    0    0  501    0  0.00000000000E+00 -0.00000000000E+00 -0.56752419468E+02  0.56752419468E+02  0.00000000000E+00 0.  1.
         23    2    1    2    0    0  0.60909281764E+02  0.74115573921E+01  0.48075310110E+02  0.12040938523E+03  0.91773159588E+02 0.  0.
         13    1    3    3    0    0 -0.13509129228E+02 -0.21828059260E+02  0.27969107582E+02  0.37963557822E+02  0.00000000000E+00 0.  1.
        -13    1    3    3    0    0  0.74418410992E+02  0.29239616653E+02  0.20106202528E+02  0.82445827406E+02  0.00000000000E+00 0. -1.
         22    1    1    2    0    0 -0.60909281764E+02 -0.74115573921E+01  0.25137255210E+02  0.66308019028E+02  0.00000000000E+00 0.  1.
<mgrwt>
<rscale>  0 0.95319673E+02</rscale>
<asrwt>0</asrwt>
<pdfrwt beam="1">  1        2 0.87311414E-02 0.11039558E+03</pdfrwt>
<pdfrwt beam="2">  1       -2 0.19994613E-01 0.11039558E+03</pdfrwt>
<totfact> 0.14582916E+04</totfact>
</mgrwt>
</event>
<event>
 6    1  0.1828142E-002  0.9811271E+02  0.7546771E-02  0.1338864E+00
          4   -1    0    0  501    0  0.00000000000E+00  0.00000000000E+00  0.26124532653E+03  0.26124532653E+03  0.00000000000E+00 0. -1.
         -4   -1    0    0    0  501 -0.00000000000E+00 -0.00000000000E+00 -0.25994707604E+02  0.25994707604E+02  0.00000000000E+00 0.  1.
         23    2    1    2    0    0  0.34349227543E+02 -0.12435791396E+02  0.76699352383E+02  0.12453471012E+03  0.91058140920E+02 0.  0.
         13    1    3    3    0    0  0.28441748939E+02  0.37882552018E+02  0.39539511871E+02  0.61704082759E+02  0.00000000000E+00 0.  1.
        -13    1    3    3    0    0  0.59074786042E+01 -0.50318343415E+02  0.37159840512E+02  0.62830627359E+02  0.00000000000E+00 0. -1.
         22    1    1    2    0    0 -0.34349227543E+02  0.12435791396E+02  0.15855126654E+03  0.16270532401E+03  0.00000000000E+00 0. -1.
<mgrwt>
<rscale>  0 0.76640709E+02</rscale>
<asrwt>0</asrwt>
<pdfrwt beam="1">  1        4 0.40191587E-01 0.98112707E+02</pdfrwt>
<pdfrwt beam="2">  1       -4 0.39991860E-02 0.98112707E+02</pdfrwt>
<totfact> 0.31143990E+03</totfact>
</mgrwt>
</event>
<event>
 6    1  0.1828142E-002  0.1008378E+03  0.7546771E-02  0.1387528E+00
         -2   -1    0    0    0  501 -0.00000000000E+00  0.00000000000E+00  0.18989152509E+02  0.18989152509E+02  0.00000000000E+00 0. -1.
          2   -1    0    0  501    0  0.00000000000E+00 -0.00000000000E+00 -0.19633217131E+03  0.19633217131E+03  0.00000000000E+00 0.  1.
         23    2    1    2    0    0  0.13560143879E+02 -0.61897884052E+01 -0.12342092049E+03  0.15937685431E+03  0.99729970883E+02 0.  0.
         13    1    3    3    0    0  0.33737276080E+02  0.20500881423E+02 -0.94458152606E+01  0.40592035701E+02  0.00000000000E+00 0. -1.
        -13    1    3    3    0    0 -0.20177132202E+02 -0.26690669828E+02 -0.11397510523E+03  0.11878481861E+03  0.00000000000E+00 0.  1.
         22    1    1    2    0    0 -0.13560143879E+02  0.61897884052E+01 -0.53922098310E+02  0.55944469509E+02  0.00000000000E+00 0. -1.
<mgrwt>
<rscale>  0 0.62525657E+02</rscale>
<asrwt>0</asrwt>
<pdfrwt beam="1">  1        2 0.30204948E-01 0.10083778E+03</pdfrwt>
<pdfrwt beam="2">  1       -2 0.29214083E-02 0.10083778E+03</pdfrwt>
<totfact> 0.67154701E+04</totfact>
</mgrwt>
</event>
<event>
 6    1  0.1828142E-002  0.9292537E+02  0.7546771E-02  0.1370873E+00
          2   -1    0    0  501    0  0.00000000000E+00  0.00000000000E+00  0.30836657530E+02  0.30836657530E+02  0.00000000000E+00 0. -1.
         -2   -1    0    0    0  501 -0.00000000000E+00 -0.00000000000E+00 -0.11343693837E+03  0.11343693837E+03  0.00000000000E+00 0.  1.
         23    2    1    2    0    0  0.96736073339E+01  0.23053178304E+02 -0.69561072517E+02  0.11607698861E+03  0.89499143945E+02 0.  0.
         13    1    3    3    0    0 -0.22070679257E+02  0.27014263598E+02  0.47184455930E+01  0.35201548963E+02  0.00000000000E+00 0. -1.
        -13    1    3    3    0    0  0.31744286591E+02 -0.39610852938E+01 -0.74279518110E+02  0.80875439649E+02  0.00000000000E+00 0.  1.
         22    1    1    2    0    0 -0.96736073339E+01 -0.23053178304E+02 -0.13039208321E+02  0.28196607285E+02  0.00000000000E+00 0. -1.
<mgrwt>
<rscale>  0 0.66924962E+02</rscale>
<asrwt>0</asrwt>
<pdfrwt beam="1">  1        2 0.47441012E-02 0.92925370E+02</pdfrwt>
<pdfrwt beam="2">  1       -2 0.17451837E-01 0.92925370E+02</pdfrwt>
<totfact> 0.38832375E+04</totfact>
</mgrwt>
</event>
<event>
 6    1  0.1828142E-002  0.9164200E+02  0.7546771E-02  0.1412543E+00
          2   -1    0    0  501    0  0.00000000000E+00  0.00000000000E+00  0.76047569071E+02  0.76047569071E+02  0.00000000000E+00 0. -1.
         -2   -1    0    0    0  501 -0.00000000000E+00 -0.00000000000E+00 -0.36673098841E+02  0.36673098841E+02  0.00000000000E+00 0.  1.
         23    2    1    2    0    0  0.66809382348E+01  0.11573146336E+02  0.30116025329E+02  0.96463624706E+02  0.90662468850E+02 0.  0.
         11    1    3    3    0    0  0.30736888767E+01 -0.73684772435E+01  0.60201950245E+02  0.60729044398E+02  0.00000000000E+00 0. -1.
        -11    1    3    3    0    0  0.36072493581E+01  0.18941623579E+02 -0.30085924916E+02  0.35734580308E+02  0.00000000000E+00 0.  1.
         22    1    1    2    0    0 -0.66809382348E+01 -0.11573146336E+02  0.92584449009E+01  0.16257043206E+02  0.00000000000E+00 0. -1.
<mgrwt>
<rscale>  0 0.56630159E+02</rscale>
<asrwt>0</asrwt>
<pdfrwt beam="1">  1        2 0.11699626E-01 0.91641999E+02</pdfrwt>
<pdfrwt beam="2">  1       -2 0.56420152E-02 0.91641999E+02</pdfrwt>
<totfact> 0.73228055E+04</totfact>
</mgrwt>
</event>
<event>
 6    1  0.1828142E-002  0.9471643E+02  0.7546771E-02  0.1372949E+00
         -2   -1    0    0    0  501 -0.00000000000E+00  0.00000000000E+00  0.66497744176E+01  0.66497744176E+01  0.00000000000E+00 0.  1.
          2   -1    0    0  501    0  0.00000000000E+00 -0.00000000000E+00 -0.52455069845E+03  0.52455069845E+03  0.00000000000E+00 0. -1.
         23    2    1    2    0    0  0.19185824440E+02  0.12343669575E+02 -0.39473849200E+03  0.40594295132E+03  0.91927909955E+02 0.  0.
         13    1    3    3    0    0  0.22141936397E+02  0.47446267633E+02 -0.30637090965E+03  0.31081272165E+03  0.00000000000E+00 0. -1.
        -13    1    3    3    0    0 -0.29561119571E+01 -0.35102598057E+02 -0.88367582347E+02  0.95130229676E+02  0.00000000000E+00 0.  1.
         22    1    1    2    0    0 -0.19185824440E+02 -0.12343669575E+02 -0.12316243204E+03  0.12525752155E+03  0.00000000000E+00 0.  1.
<mgrwt>
<rscale>  0 0.66354080E+02</rscale>
<asrwt>0</asrwt>
<pdfrwt beam="1">  1        2 0.80700138E-01 0.94716433E+02</pdfrwt>
<pdfrwt beam="2">  1       -2 0.10230418E-02 0.94716433E+02</pdfrwt>
<totfact> 0.10600017E+05</totfact>
</mgrwt>
</event>
<event>
 6    1  0.1828142E-002  0.9303957E+02  0.7546771E-02  0.1408176E+00
          2   -1    0    0  501    0  0.00000000000E+00  0.00000000000E+00  0.62481992607E+02  0.62481992607E+02  0.00000000000E+00 0. -1.
         -2   -1    0    0    0  501 -0.00000000000E+00 -0.00000000000E+00 -0.59866744627E+02  0.59866744627E+02  0.00000000000E+00 0.  1.
         23    2    1    2    0    0  0.13254133760E+02 -0.33463388920E+01 -0.20706508444E+02  0.95315898529E+02  0.92029837415E+02 0.  0.
         13    1    3    3    0    0  0.26169440454E+02 -0.15093392299E+02 -0.51621654237E+02  0.59811748770E+02  0.00000000000E+00 0.  1.
        -13    1    3    3    0    0 -0.12915306694E+02  0.11747053407E+02  0.30915145792E+02  0.35504149759E+02  0.00000000000E+00 0. -1.
         22    1    1    2    0    0 -0.13254133760E+02  0.33463388920E+01  0.23321756425E+02  0.27032838705E+02  0.00000000000E+00 0. -1.
<mgrwt>
<rscale>  0 0.57602751E+02</rscale>
<asrwt>0</asrwt>
<pdfrwt beam="1">  1        2 0.96126142E-02 0.93039567E+02</pdfrwt>
<pdfrwt beam="2">  1       -2 0.92102684E-02 0.93039567E+02</pdfrwt>
<totfact> 0.44168767E+04</totfact>
</mgrwt>
</event>
<event>
 6    1  0.1828142E-002  0.1015053E+03  0.7546771E-02  0.1343682E+00
          1   -1    0    0  501    0  0.00000000000E+00  0.00000000000E+00  0.21978771090E+02  0.21978771090E+02  0.00000000000E+00 0. -1.
         -1   -1    0    0    0  501 -0.00000000000E+00 -0.00000000000E+00 -0.24188532578E+03  0.24188532578E+03  0.00000000000E+00 0.  1.
         23    2    1    2    0    0 -0.19517123882E+02 -0.23245352395E+02 -0.20764775122E+03  0.23112966859E+03  0.96861089102E+02 0.  0.
         11    1    3    3    0    0 -0.15949410287E+02  0.11592259576E+02  0.82661631581E+00  0.19734423353E+02  0.00000000000E+00 0. -1.
        -11    1    3    3    0    0 -0.35677135950E+01 -0.34837611971E+02 -0.20847436753E+03  0.21139524523E+03  0.00000000000E+00 0.  1.
         22    1    1    2    0    0  0.19517123882E+02  0.23245352395E+02 -0.12258803472E+02  0.32734428285E+02  0.00000000000E+00 0.  1.
<mgrwt>
<rscale>  0 0.75061066E+02</rscale>
<asrwt>0</asrwt>
<pdfrwt beam="1">  1        1 0.33813493E-02 0.10150535E+03</pdfrwt>
<pdfrwt beam="2">  1       -1 0.37213128E-01 0.10150535E+03</pdfrwt>
<totfact> 0.18198092E+04</totfact>
</mgrwt>
</event>
<event>
 6    1  0.1828142E-002  0.9521345E+02  0.7546771E-02  0.1385117E+00
          2   -1    0    0  501    0  0.00000000000E+00  0.00000000000E+00  0.87248208205E+02  0.87248208205E+02  0.00000000000E+00 0. -1.
         -2   -1    0    0    0  501 -0.00000000000E+00 -0.00000000000E+00 -0.37929815589E+02  0.37929815589E+02  0.00000000000E+00 0.  1.
         23    2    1    2    0    0 -0.53948011433E+01 -0.17602120051E+02  0.33592619106E+02  0.10096566203E+03  0.93416606347E+02 0.  0.
         13    1    3    3    0    0  0.31169266832E+02 -0.16958449100E+02  0.49649496987E+02  0.61026098858E+02  0.00000000000E+00 0. -1.
        -13    1    3    3    0    0 -0.36564067976E+02 -0.64367095116E+00 -0.16056877881E+02  0.39939563174E+02  0.00000000000E+00 0.  1.
         22    1    1    2    0    0  0.53948011433E+01  0.17602120051E+02  0.15725773509E+02  0.24212361762E+02  0.00000000000E+00 0.  1.
<mgrwt>
<rscale>  0 0.63137712E+02</rscale>
<asrwt>0</asrwt>
<pdfrwt beam="1">  1        2 0.13422801E-01 0.95213449E+02</pdfrwt>
<pdfrwt beam="2">  1       -2 0.58353563E-02 0.95213449E+02</pdfrwt>
<totfact> 0.59507698E+04</totfact>
</mgrwt>
</event>
<event>
 6    1  0.1828142E-002  0.8824833E+02  0.7546771E-02  0.1438078E+00
          1   -1    0    0  501    0  0.00000000000E+00  0.00000000000E+00  0.28461181113E+02  0.28461181113E+02  0.00000000000E+00 0. -1.
         -1   -1    0    0    0  501 -0.00000000000E+00 -0.00000000000E+00 -0.85146476202E+02  0.85146476202E+02  0.00000000000E+00 0.  1.
         23    2    1    2    0    0 -0.32486227938E+01  0.95994458423E+01 -0.49482712627E+02  0.10117463256E+03  0.87664499733E+02 0.  0.
         11    1    3    3    0    0 -0.44223488316E+02  0.14407005463E+02 -0.31473627572E+02  0.56159308737E+02  0.00000000000E+00 0. -1.
        -11    1    3    3    0    0  0.40974865522E+02 -0.48075596203E+01 -0.18009085055E+02  0.45015323820E+02  0.00000000000E+00 0.  1.
         22    1    1    2    0    0  0.32486227938E+01 -0.95994458423E+01 -0.72025824615E+01  0.12433024759E+02  0.00000000000E+00 0.  1.
<mgrwt>
<rscale>  0 0.51372146E+02</rscale>
<asrwt>0</asrwt>
<pdfrwt beam="1">  1        1 0.43786433E-02 0.88248328E+02</pdfrwt>
<pdfrwt beam="2">  1       -1 0.13099458E-01 0.88248328E+02</pdfrwt>
<totfact> 0.67624154E+04</totfact>
</mgrwt>
</event>
<event>
 6    1  0.1828142E-002  0.9340859E+02  0.7546771E-02  0.1414502E+00
         -2   -1    0    0    0  501 -0.00000000000E+00  0.00000000000E+00  0.20778781946E+02  0.20778781946E+02  0.00000000000E+00 0.  1.
          2   -1    0    0  501    0  0.00000000000E+00 -0.00000000000E+00 -0.13452563091E+03  0.13452563091E+03  0.00000000000E+00 0. -1.
         23    2    1    2    0    0  0.29654649393E+01 -0.11876539462E+02 -0.98427542854E+02  0.13569504490E+03  0.92603012081E+02 0.  0.
         13    1    3    3    0    0 -0.34108062959E+02 -0.62384483520E+01 -0.91114092505E+02  0.97488748323E+02  0.00000000000E+00 0. -1.
        -13    1    3    3    0    0  0.37073527898E+02 -0.56380911103E+01 -0.73134503496E+01  0.38206296578E+02  0.00000000000E+00 0.  1.
         22    1    1    2    0    0 -0.29654649393E+01  0.11876539462E+02 -0.15319306113E+02  0.19609367958E+02  0.00000000000E+00 0. -1.
<mgrwt>
<rscale>  0 0.56201228E+02</rscale>
<asrwt>0</asrwt>
<pdfrwt beam="1">  1        2 0.20696251E-01 0.93408586E+02</pdfrwt>
<pdfrwt beam="2">  1       -2 0.31967356E-02 0.93408586E+02</pdfrwt>
<totfact> 0.88017850E+04</totfact>
</mgrwt>
</event>
<event>
 6    1  0.1828142E-002  0.9002185E+02  0.7546771E-02  0.1425793E+00
         -2   -1    0    0    0  501 -0.00000000000E+00  0.00000000000E+00  0.10871458762E+02  0.10871458762E+02  0.00000000000E+00 0.  1.
          2   -1    0    0  501    0  0.00000000000E+00 -0.00000000000E+00 -0.25751802646E+03  0.25751802646E+03  0.00000000000E+00 0. -1.
         23    2    1    2    0    0  0.93292380667E+01  0.67168697517E+01 -0.18571678501E+03  0.20638473185E+03  0.89284837934E+02 0.  0.
         13    1    3    3    0    0  0.11637356717E+02  0.97914721269E+00 -0.19493476596E+03  0.19528427940E+03  0.00000000000E+00 0. -1.
        -13    1    3    3    0    0 -0.23081186501E+01  0.57377225390E+01  0.92179809555E+01  0.11100452447E+02  0.00000000000E+00 0.  1.
         22    1    1    2    0    0 -0.93292380667E+01 -0.67168697517E+01 -0.60929782687E+02  0.62004753370E+02  0.00000000000E+00 0. -1.
<mgrwt>
<rscale>  0 0.53813937E+02</rscale>
<asrwt>0</asrwt>
<pdfrwt beam="1">  1        2 0.39618159E-01 0.90021849E+02</pdfrwt>
<pdfrwt beam="2">  1       -2 0.16725321E-02 0.90021849E+02</pdfrwt>
<totfact> 0.11076854E+05</totfact>
</mgrwt>
</event>
<event>
 6    1  0.1828142E-002  0.9204683E+02  0.7546771E-02  0.1389647E+00
         -2   -1    0    0    0  501 -0.00000000000E+00  0.00000000000E+00  0.10640157849E+02  0.10640157849E+02  0.00000000000E+00 0.  1.
          2   -1    0    0  501    0  0.00000000000E+00 -0.00000000000E+00 -0.29056815720E+03  0.29056815720E+03  0.00000000000E+00 0. -1.
         23    2    1    2    0    0  0.18681628392E+02 -0.31203034048E+01 -0.23890882130E+03  0.25602742860E+03  0.90077076803E+02 0.  0.
         13    1    3    3    0    0 -0.27018977678E+02  0.12628359044E+02 -0.16527929285E+03  0.16794863873E+03  0.00000000000E+00 0. -1.
        -13    1    3    3    0    0  0.45700606070E+02 -0.15748662449E+02 -0.73629528454E+02  0.88078789867E+02  0.00000000000E+00 0.  1.
         22    1    1    2    0    0 -0.18681628392E+02  0.31203034048E+01 -0.41019178047E+02  0.45180886450E+02  0.00000000000E+00 0. -1.
<mgrwt>
<rscale>  0 0.61994625E+02</rscale>
<asrwt>0</asrwt>
<pdfrwt beam="1">  1        2 0.44702797E-01 0.92046832E+02</pdfrwt>
<pdfrwt beam="2">  1       -2 0.16369472E-02 0.92046832E+02</pdfrwt>
<totfact> 0.10101085E+05</totfact>
</mgrwt>
</event>
<event>
 6    1  0.1828142E-002  0.1134070E+03  0.7546771E-02  0.1281506E+00
         -2   -1    0    0    0  501 -0.00000000000E+00  0.00000000000E+00  0.68792112259E+02  0.68792112259E+02  0.00000000000E+00 0.  1.
          2   -1    0    0  501    0  0.00000000000E+00 -0.00000000000E+00 -0.11838230312E+03  0.11838230312E+03  0.00000000000E+00 0. -1.
         23    2    1    2    0    0 -0.56072943776E+01 -0.66768125955E+02 -0.33783350053E+02  0.11833198217E+03  0.91497097607E+02 0.  0.
         11    1    3    3    0    0  0.24459805331E+02 -0.74810709839E+02 -0.10377318381E+02  0.79388998735E+02  0.00000000000E+00 0. -1.
        -11    1    3    3    0    0 -0.30067099709E+02  0.80425838838E+01 -0.23406031672E+02  0.38942983438E+02  0.00000000000E+00 0.  1.
         22    1    1    2    0    0  0.56072943776E+01  0.66768125955E+02 -0.15806840813E+02  0.68842433210E+02  0.00000000000E+00 0.  1.
<mgrwt>
<rscale>  0 0.99426848E+02</rscale>
<asrwt>0</asrwt>
<pdfrwt beam="1">  1        2 0.18212662E-01 0.11340698E+03</pdfrwt>
<pdfrwt beam="2">  1       -2 0.10583402E-01 0.11340698E+03</pdfrwt>
<totfact> 0.17144612E+04</totfact>
</mgrwt>
</event>
<event>
 6    1  0.1828142E-002  0.9442918E+02  0.7546771E-02  0.1368534E+00
         -2   -1    0    0    0  501 -0.00000000000E+00  0.00000000000E+00  0.77480486591E+01  0.77480486591E+01  0.00000000000E+00 0. -1.
          2   -1    0    0  501    0  0.00000000000E+00 -0.00000000000E+00 -0.47063736524E+03  0.47063736524E+03  0.00000000000E+00 0.  1.
         23    2    1    2    0    0  0.23401439034E+01 -0.24655639765E+02 -0.39467510663E+03  0.40581437777E+03  0.91123501718E+02 0.  0.
         13    1    3    3    0    0 -0.32929757270E+02  0.16723190433E+02 -0.21298497985E+03  0.21616344661E+03  0.00000000000E+00 0.  1.
        -13    1    3    3    0    0  0.35269901173E+02 -0.41378830198E+02 -0.18169012678E+03  0.18965093116E+03  0.00000000000E+00 0. -1.
         22    1    1    2    0    0 -0.23401439034E+01  0.24655639765E+02 -0.68214209952E+02  0.72571036131E+02  0.00000000000E+00 0.  1.
<mgrwt>
<rscale>  0 0.67576481E+02</rscale>
<asrwt>0</asrwt>
<pdfrwt beam="1">  1        2 0.72405757E-01 0.94429177E+02</pdfrwt>
<pdfrwt beam="2">  1       -2 0.11920073E-02 0.94429177E+02</pdfrwt>
<totfact> 0.95903209E+04</totfact>
</mgrwt>
</event>
<event>
 6    1  0.1828142E-002  0.1049505E+03  0.7546771E-02  0.1307736E+00
          2   -1    0    0  501    0  0.00000000000E+00  0.00000000000E+00  0.25429442070E+02  0.25429442070E+02  0.00000000000E+00 0. -1.
         -2   -1    0    0    0  501 -0.00000000000E+00 -0.00000000000E+00 -0.24388987764E+03  0.24388987764E+03  0.00000000000E+00 0.  1.
         23    2    1    2    0    0 -0.50842075039E+02 -0.10466134699E+02 -0.13438572498E+03  0.17051135682E+03  0.91214818731E+02 0.  0.
         13    1    3    3    0    0 -0.66663927708E+02 -0.23205582158E+02 -0.13247654669E+03  0.15010867304E+03  0.00000000000E+00 0.  1.
        -13    1    3    3    0    0  0.15821852669E+02  0.12739447459E+02 -0.19091782907E+01  0.20402683774E+02  0.00000000000E+00 0. -1.
         22    1    1    2    0    0  0.50842075039E+02  0.10466134699E+02 -0.84074710595E+02  0.98807962895E+02  0.00000000000E+00 0. -1.
<mgrwt>
<rscale>  0 0.88013070E+02</rscale>
<asrwt>0</asrwt>
<pdfrwt beam="1">  1        2 0.39122220E-02 0.10495046E+03</pdfrwt>
<pdfrwt beam="2">  1       -2 0.37521518E-01 0.10495046E+03</pdfrwt>
<totfact> 0.13335992E+04</totfact>
</mgrwt>
</event>
<event>
 6    1  0.1828142E-002  0.9812885E+02  0.7546771E-02  0.1332607E+00
         -2   -1    0    0    0  501 -0.00000000000E+00  0.00000000000E+00  0.48186631028E+01  0.48186631028E+01  0.00000000000E+00 0.  1.
          2   -1    0    0  501    0  0.00000000000E+00 -0.00000000000E+00 -0.10363480417E+04  0.10363480417E+04  0.00000000000E+00 0. -1.
         23    2    1    2    0    0  0.40721392458E+02  0.31769923535E+00 -0.81034176213E+03  0.81626162613E+03  0.89280110305E+02 0.  0.
         11    1    3    3    0    0 -0.67501847968E+01 -0.28913181036E+02 -0.11796547565E+03  0.12164452506E+03  0.00000000000E+00 0.  1.
        -11    1    3    3    0    0  0.47471577255E+02  0.29230880272E+02 -0.69237628648E+03  0.69461710107E+03  0.00000000000E+00 0. -1.
         22    1    1    2    0    0 -0.40721392458E+02 -0.31769923535E+00 -0.22118761647E+03  0.22490507868E+03  0.00000000000E+00 0.  1.
<mgrwt>
<rscale>  0 0.78760141E+02</rscale>
<asrwt>0</asrwt>
<pdfrwt beam="1">  1        2 0.15943822E+00 0.98128848E+02</pdfrwt>
<pdfrwt beam="2">  1       -2 0.74133249E-03 0.98128848E+02</pdfrwt>
<totfact> 0.73948686E+04</totfact>
</mgrwt>
</event>
<event>
 6    1  0.1828142E-002  0.1147176E+03  0.7546771E-02  0.1276858E+00
         -2   -1    0    0    0  501 -0.00000000000E+00  0.00000000000E+00  0.18724231258E+02  0.18724231258E+02  0.00000000000E+00 0.  1.
          2   -1    0    0  501    0  0.00000000000E+00 -0.00000000000E+00 -0.50891827230E+03  0.50891827230E+03  0.00000000000E+00 0. -1.
         23    2    1    2    0    0 -0.44318244448E+02  0.55120642770E+02 -0.21718398381E+03  0.24561966158E+03  0.90320226299E+02 0.  0.
         13    1    3    3    0    0  0.21349267375E+02  0.25212304377E+02 -0.12068818734E+03  0.12512829446E+03  0.00000000000E+00 0. -1.
        -13    1    3    3    0    0 -0.65667511823E+02  0.29908338393E+02 -0.96495796470E+02  0.12049136712E+03  0.00000000000E+00 0.  1.
         22    1    1    2    0    0  0.44318244448E+02 -0.55120642770E+02 -0.27301005723E+03  0.28202284198E+03  0.00000000000E+00 0. -1.
<mgrwt>
<rscale>  0 0.10165292E+03</rscale>
<asrwt>0</asrwt>
<pdfrwt beam="1">  1        2 0.78295114E-01 0.11471763E+03</pdfrwt>
<pdfrwt beam="2">  1       -2 0.28806511E-02 0.11471763E+03</pdfrwt>
<totfact> 0.25319016E+04</totfact>
</mgrwt>
</event>
<event>
 6    1  0.1828142E-002  0.9382527E+02  0.7546771E-02  0.1381664E+00
         -3   -1    0    0    0  501 -0.00000000000E+00  0.00000000000E+00  0.30499051632E+02  0.30499051632E+02  0.00000000000E+00 0.  1.
          3   -1    0    0  501    0  0.00000000000E+00 -0.00000000000E+00 -0.14738084082E+03  0.14738084082E+03  0.00000000000E+00 0. -1.
         23    2    1    2    0    0 -0.18053607085E+02  0.93878081929E+01 -0.46694621733E+02  0.10480252149E+03  0.91592123791E+02 0.  0.
         13    1    3    3    0    0 -0.25738548401E+02 -0.25465774007E+02 -0.57112306063E+02  0.67622437278E+02  0.00000000000E+00 0. -1.
        -13    1    3    3    0    0  0.76849413165E+01  0.34853582200E+02  0.10417684330E+02  0.37180084212E+02  0.00000000000E+00 0.  1.
         22    1    1    2    0    0  0.18053607085E+02 -0.93878081929E+01 -0.70187167458E+02  0.73077370966E+02  0.00000000000E+00 0. -1.
<mgrwt>
<rscale>  0 0.64028488E+02</rscale>
<asrwt>0</asrwt>
<pdfrwt beam="1">  1        3 0.22673976E-01 0.93825267E+02</pdfrwt>
<pdfrwt beam="2">  1       -3 0.46921618E-02 0.93825267E+02</pdfrwt>
<totfact> 0.94241539E+03</totfact>
</mgrwt>
</event>
<event>
 6    1  0.1828142E-002  0.9228992E+02  0.7546771E-02  0.1368851E+00
          4   -1    0    0  501    0  0.00000000000E+00  0.00000000000E+00  0.10891449631E+03  0.10891449631E+03  0.00000000000E+00 0. -1.
         -4   -1    0    0    0  501 -0.00000000000E+00 -0.00000000000E+00 -0.42773702115E+02  0.42773702115E+02  0.00000000000E+00 0.  1.
         23    2    1    2    0    0  0.20451949778E+02 -0.16677333388E+02  0.14129795303E+02  0.93365306656E+02  0.88436495142E+02 0.  0.
         13    1    3    3    0    0  0.32892729983E+02  0.21871046192E+01  0.44581093755E+02  0.55445369804E+02  0.00000000000E+00 0. -1.
        -13    1    3    3    0    0 -0.12440780205E+02 -0.18864438007E+02 -0.30451298452E+02  0.37919936852E+02  0.00000000000E+00 0.  1.
         22    1    1    2    0    0 -0.20451949778E+02  0.16677333388E+02  0.52010998890E+02  0.58322891768E+02  0.00000000000E+00 0. -1.
<mgrwt>
<rscale>  0 0.67487645E+02</rscale>
<asrwt>0</asrwt>
<pdfrwt beam="1">  1        4 0.16756076E-01 0.92289920E+02</pdfrwt>
<pdfrwt beam="2">  1       -4 0.65805696E-02 0.92289920E+02</pdfrwt>
<totfact> 0.69391000E+03</totfact>
</mgrwt>
</event>
<event>
 6    1  0.1828142E-002  0.9209538E+02  0.7546771E-02  0.1415248E+00
         -2   -1    0    0    0  501 -0.00000000000E+00  0.00000000000E+00  0.31689477549E+02  0.31689477549E+02  0.00000000000E+00 0.  1.
          2   -1    0    0  501    0  0.00000000000E+00 -0.00000000000E+00 -0.89414401188E+02  0.89414401188E+02  0.00000000000E+00 0. -1.
         23    2    1    2    0    0  0.11519871339E+02  0.51670711255E+01 -0.42799783253E+02  0.10155481545E+03  0.91225835353E+02 0.  0.
         11    1    3    3    0    0 -0.23649896217E+02 -0.32723584076E+02 -0.19893930162E+02  0.45010209988E+02  0.00000000000E+00 0.  1.
        -11    1    3    3    0    0  0.35169767556E+02  0.37890655201E+02 -0.22905853091E+02  0.56544605467E+02  0.00000000000E+00 0. -1.
         22    1    1    2    0    0 -0.11519871339E+02 -0.51670711255E+01 -0.14925140386E+02  0.19549063283E+02  0.00000000000E+00 0.  1.
<mgrwt>
<rscale>  0 0.56039143E+02</rscale>
<asrwt>0</asrwt>
<pdfrwt beam="1">  1        2 0.13756061E-01 0.92095380E+02</pdfrwt>
<pdfrwt beam="2">  1       -2 0.48753043E-02 0.92095380E+02</pdfrwt>
<totfact> 0.75248275E+04</totfact>
</mgrwt>
</event>
<event>
 6    1  0.1828142E-002  0.9395258E+02  0.7546771E-02  0.1380408E+00
          2   -1    0    0  501    0  0.00000000000E+00  0.00000000000E+00  0.10752285844E+02  0.10752285844E+02  0.00000000000E+00 0. -1.
         -2   -1    0    0    0  501 -0.00000000000E+00 -0.00000000000E+00 -0.32433414791E+03  0.32433414791E+03  0.00000000000E+00 0.  1.
         23    2    1    2    0    0  0.13105515222E+02 -0.16003112833E+02 -0.28281809119E+03  0.29801537027E+03  0.91647335267E+02 0.  0.
         11    1    3    3    0    0  0.34950425619E+02  0.84179469300E+01 -0.24647386039E+03  0.24908182980E+03  0.00000000000E+00 0.  1.
        -11    1    3    3    0    0 -0.21844910397E+02 -0.24421059763E+02 -0.36344230804E+02  0.48933540470E+02  0.00000000000E+00 0. -1.
         22    1    1    2    0    0 -0.13105515222E+02  0.16003112833E+02 -0.30763770873E+02  0.37071063485E+02  0.00000000000E+00 0.  1.
<mgrwt>
<rscale>  0 0.64356663E+02</rscale>
<asrwt>0</asrwt>
<pdfrwt beam="1">  1        2 0.16541977E-02 0.93952585E+02</pdfrwt>
<pdfrwt beam="2">  1       -2 0.49897564E-01 0.93952585E+02</pdfrwt>
<totfact> 0.24175951E+04</totfact>
</mgrwt>
</event>
<event>
 6    1  0.1828142E-002  0.9154860E+02  0.7546771E-02  0.1425633E+00
         -2   -1    0    0    0  501 -0.00000000000E+00  0.00000000000E+00  0.46781609475E+02  0.46781609475E+02  0.00000000000E+00 0.  1.
          2   -1    0    0  501    0  0.00000000000E+00 -0.00000000000E+00 -0.57957360034E+02  0.57957360034E+02  0.00000000000E+00 0. -1.
         23    2    1    2    0    0 -0.10799892394E+02  0.18473628713E+01 -0.39888499427E+01  0.91635459836E+02  0.90890572395E+02 0.  0.
         11    1    3    3    0    0 -0.23844945204E+02 -0.11556376781E+02  0.37620513419E+02  0.46015587424E+02  0.00000000000E+00 0.  1.
        -11    1    3    3    0    0  0.13045052810E+02  0.13403739652E+02 -0.41609363362E+02  0.45619872412E+02  0.00000000000E+00 0. -1.
         22    1    1    2    0    0  0.10799892394E+02 -0.18473628713E+01 -0.71869006160E+01  0.13103509673E+02  0.00000000000E+00 0.  1.
<mgrwt>
<rscale>  0 0.53846720E+02</rscale>
<asrwt>0</asrwt>
<pdfrwt beam="1">  1        2 0.89165168E-02 0.91548602E+02</pdfrwt>
<pdfrwt beam="2">  1       -2 0.71971708E-02 0.91548602E+02</pdfrwt>
<totfact> 0.70475114E+04</totfact>
</mgrwt>
</event>
<event>
 6    1  0.1828142E-002  0.9016518E+02  0.7546771E-02  0.1367379E+00
         -4   -1    0    0    0  501 -0.00000000000E+00  0.00000000000E+00  0.36792269518E+02  0.36792269518E+02  0.00000000000E+00 0.  1.
          4   -1    0    0  501    0  0.00000000000E+00 -0.00000000000E+00 -0.10028304892E+03  0.10028304892E+03  0.00000000000E+00 0. -1.
         23    2    1    2    0    0  0.15491141615E+02  0.24515289733E+02 -0.35905667317E+02  0.97051409235E+02  0.85374376659E+02 0.  0.
         11    1    3    3    0    0  0.48639548801E+02  0.36418651462E+01 -0.30450587527E+02  0.57500497129E+02  0.00000000000E+00 0. -1.
        -11    1    3    3    0    0 -0.33148407186E+02  0.20873424587E+02 -0.54550797903E+01  0.39550912107E+02  0.00000000000E+00 0.  1.
         22    1    1    2    0    0 -0.15491141615E+02 -0.24515289733E+02 -0.27585112087E+02  0.40023909206E+02  0.00000000000E+00 0.  1.
<mgrwt>
<rscale>  0 0.67901131E+02</rscale>
<asrwt>0</asrwt>
<pdfrwt beam="1">  1        4 0.15428161E-01 0.90165177E+02</pdfrwt>
<pdfrwt beam="2">  1       -4 0.56603491E-02 0.90165177E+02</pdfrwt>
<totfact> 0.10146581E+04</totfact>
</mgrwt>
</event>
<event>
 6    1  0.1828142E-002  0.9943310E+02  0.7546771E-02  0.1328826E+00
          3   -1    0    0  501    0  0.00000000000E+00  0.00000000000E+00  0.77986252049E+02  0.77986252049E+02  0.00000000000E+00 0. -1.
         -3   -1    0    0    0  501 -0.00000000000E+00 -0.00000000000E+00 -0.10882473882E+03  0.10882473882E+03  0.00000000000E+00 0.  1.
         23    2    1    2    0    0  0.12079880147E+02  0.40048405064E+02  0.37845255615E+02  0.10639174740E+03  0.90206110042E+02 0.  0.
         13    1    3    3    0    0  0.37753683772E+02 -0.12343764562E+02  0.67884833963E+01  0.40296310857E+02  0.00000000000E+00 0. -1.
        -13    1    3    3    0    0 -0.25673803625E+02  0.52392169626E+02  0.31056772218E+02  0.66095436539E+02  0.00000000000E+00 0.  1.
         22    1    1    2    0    0 -0.12079880147E+02 -0.40048405064E+02 -0.68683742386E+02  0.80419243473E+02  0.00000000000E+00 0.  1.
<mgrwt>
<rscale>  0 0.80079567E+02</rscale>
<asrwt>0</asrwt>
<pdfrwt beam="1">  1        3 0.11997885E-01 0.99433096E+02</pdfrwt>
<pdfrwt beam="2">  1       -3 0.16742267E-01 0.99433096E+02</pdfrwt>
<totfact> 0.35741679E+03</totfact>
</mgrwt>
</event>
<event>
 6    1  0.1828142E-002  0.9404759E+02  0.7546771E-02  0.1348512E+00
         -2   -1    0    0    0  501 -0.00000000000E+00  0.00000000000E+00  0.31548323873E+02  0.31548323873E+02  0.00000000000E+00 0.  1.
          2   -1    0    0  501    0  0.00000000000E+00 -0.00000000000E+00 -0.14062664926E+03  0.14062664926E+03  0.00000000000E+00 0. -1.
         23    2    1    2    0    0  0.16900476241E+02  0.30791594874E+02 -0.59055164453E+02  0.11105161392E+03  0.87242192161E+02 0.  0.
         13    1    3    3    0    0 -0.88336891499E+01 -0.25741353973E+02 -0.35246187625E+02  0.44530271844E+02  0.00000000000E+00 0. -1.
        -13    1    3    3    0    0  0.25734165391E+02  0.56532948847E+02 -0.23808976828E+02  0.66521342074E+02  0.00000000000E+00 0.  1.
         22    1    1    2    0    0 -0.16900476241E+02 -0.30791594874E+02 -0.50023160934E+02  0.61123359216E+02  0.00000000000E+00 0. -1.
<mgrwt>
<rscale>  0 0.73521451E+02</rscale>
<asrwt>0</asrwt>
<pdfrwt beam="1">  1        2 0.21634869E-01 0.94047586E+02</pdfrwt>
<pdfrwt beam="2">  1       -2 0.48535884E-02 0.94047586E+02</pdfrwt>
<totfact> 0.45376606E+04</totfact>
</mgrwt>
</event>
<event>
 6    1  0.1828142E-002  0.9004706E+02  0.7546771E-02  0.1406639E+00
          2   -1    0    0  501    0  0.00000000000E+00  0.00000000000E+00  0.72305961660E+03  0.72305961660E+03  0.00000000000E+00 0. -1.
         -2   -1    0    0    0  501 -0.00000000000E+00 -0.00000000000E+00 -0.39239389797E+01  0.39239389797E+01  0.00000000000E+00 0.  1.
         23    2    1    2    0    0  0.35186906274E+01  0.15040082729E+02  0.64504839948E+03  0.65130324074E+03  0.88712391764E+02 0.  0.
         11    1    3    3    0    0  0.11966808833E+02  0.41438786755E+02  0.56398957417E+03  0.56563647101E+03  0.00000000000E+00 0. -1.
        -11    1    3    3    0    0 -0.84481182055E+01 -0.26398704027E+02  0.81058825310E+02  0.85666769731E+02  0.00000000000E+00 0.  1.
         22    1    1    2    0    0 -0.35186906274E+01 -0.15040082729E+02  0.74087278133E+02  0.75680314834E+02  0.00000000000E+00 0.  1.
<mgrwt>
<rscale>  0 0.57950558E+02</rscale>
<asrwt>0</asrwt>
<pdfrwt beam="1">  1        2 0.11123984E+00 0.90047064E+02</pdfrwt>
<pdfrwt beam="2">  1       -2 0.60368349E-03 0.90047064E+02</pdfrwt>
<totfact> 0.15412013E+05</totfact>
</mgrwt>
</event>
<event>
 6    1  0.1828142E-002  0.9146106E+02  0.7546771E-02  0.1398272E+00
          2   -1    0    0  501    0  0.00000000000E+00  0.00000000000E+00  0.64832703579E+02  0.64832703579E+02  0.00000000000E+00 0. -1.
         -2   -1    0    0    0  501 -0.00000000000E+00 -0.00000000000E+00 -0.47099330704E+02  0.47099330704E+02  0.00000000000E+00 0.  1.
         23    2    1    2    0    0 -0.14922275260E+02 -0.77640058608E+01  0.64731694413E+01  0.91689844004E+02  0.89900898132E+02 0.  0.
         13    1    3    3    0    0 -0.40286031685E+02  0.24066175973E+02 -0.96565998483E+01  0.47910281730E+02  0.00000000000E+00 0.  1.
        -13    1    3    3    0    0  0.25363756425E+02 -0.31830181833E+02  0.16129769290E+02  0.43779562273E+02  0.00000000000E+00 0. -1.
         22    1    1    2    0    0  0.14922275260E+02  0.77640058608E+01  0.11260203433E+02  0.20242190279E+02  0.00000000000E+00 0. -1.
<mgrwt>
<rscale>  0 0.59895152E+02</rscale>
<asrwt>0</asrwt>
<pdfrwt beam="1">  1        2 0.99742620E-02 0.91461060E+02</pdfrwt>
<pdfrwt beam="2">  1       -2 0.72460509E-02 0.91461060E+02</pdfrwt>
<totfact> 0.60832159E+04</totfact>
</mgrwt>
</event>
<event>
 6    1  0.1828142E-002  0.8986244E+02  0.7546771E-02  0.1409743E+00
         -2   -1    0    0    0  501 -0.00000000000E+00  0.00000000000E+00  0.34392656020E+03  0.34392656020E+03  0.00000000000E+00 0.  1.
          2   -1    0    0  501    0  0.00000000000E+00 -0.00000000000E+00 -0.80421551694E+01  0.80421551694E+01  0.00000000000E+00 0. -1.
         23    2    1    2    0    0  0.10237378219E+02  0.10694843635E+02  0.29939836251E+03  0.31259340722E+03  0.88634503266E+02 0.  0.
         13    1    3    3    0    0 -0.75774226326E+01 -0.37598589822E+02  0.12363530377E+03  0.12944790315E+03  0.00000000000E+00 0. -1.
        -13    1    3    3    0    0  0.17814800852E+02  0.48293433457E+02  0.17576305874E+03  0.18314550407E+03  0.00000000000E+00 0.  1.
         22    1    1    2    0    0 -0.10237378219E+02 -0.10694843635E+02  0.36486042511E+02  0.39375308142E+02  0.00000000000E+00 0. -1.
<mgrwt>
<rscale>  0 0.57251210E+02</rscale>
<asrwt>0</asrwt>
<pdfrwt beam="1">  1        2 0.12372549E-02 0.89862444E+02</pdfrwt>
<pdfrwt beam="2">  1       -2 0.52911767E-01 0.89862444E+02</pdfrwt>
<totfact> 0.31766144E+04</totfact>
</mgrwt>
</event>
<event>
 6    1  0.1828142E-002  0.8917860E+02  0.7546771E-02  0.1413266E+00
         -4   -1    0    0    0  501 -0.00000000000E+00  0.00000000000E+00  0.87811587193E+02  0.87811587193E+02  0.00000000000E+00 0.  1.
          4   -1    0    0  501    0  0.00000000000E+00 -0.00000000000E+00 -0.32491215121E+02  0.32491215121E+02  0.00000000000E+00 0. -1.
         23    2    1    2    0    0 -0.13564001217E+02  0.46514368346E+01  0.57040703526E+02  0.10586058870E+03  0.88018204870E+02 0.  0.
         11    1    3    3    0    0 -0.51739762260E+01 -0.41268135927E+02  0.34429695559E+02  0.53992897766E+02  0.00000000000E+00 0.  1.
        -11    1    3    3    0    0 -0.83900249910E+01  0.45919572762E+02  0.22611007967E+02  0.51867690938E+02  0.00000000000E+00 0. -1.
         22    1    1    2    0    0  0.13564001217E+02 -0.46514368346E+01 -0.17203314530E+01  0.14442213610E+02  0.00000000000E+00 0. -1.
<mgrwt>
<rscale>  0 0.56471344E+02</rscale>
<asrwt>0</asrwt>
<pdfrwt beam="1">  1        4 0.49986485E-02 0.89178598E+02</pdfrwt>
<pdfrwt beam="2">  1       -4 0.13509475E-01 0.89178598E+02</pdfrwt>
<totfact> 0.15508599E+04</totfact>
</mgrwt>
</event>
<event>
 6    1  0.1828142E-002  0.1326512E+03  0.7546771E-02  0.1239933E+00
          2   -1    0    0  501    0  0.00000000000E+00  0.00000000000E+00  0.33170331075E+03  0.33170331075E+03  0.00000000000E+00 0. -1.
         -2   -1    0    0    0  501 -0.00000000000E+00 -0.00000000000E+00 -0.39687531445E+02  0.39687531445E+02  0.00000000000E+00 0.  1.
         23    2    1    2    0    0 -0.10415402286E+02  0.94142171338E+02  0.19467510136E+03  0.23557318277E+03  0.92871418215E+02 0.  0.
         11    1    3    3    0    0 -0.28799209074E+02  0.73520359714E+02  0.19225847605E+03  0.20784118780E+03  0.00000000000E+00 0. -1.
        -11    1    3    3    0    0  0.18383806788E+02  0.20621811624E+02  0.24166253090E+01  0.27731994962E+02  0.00000000000E+00 0.  1.
         22    1    1    2    0    0  0.10415402286E+02 -0.94142171338E+02  0.97340677948E+02  0.13581765943E+03  0.00000000000E+00 0.  1.
<mgrwt>
<rscale>  0 0.12193820E+03</rscale>
<asrwt>0</asrwt>
<pdfrwt beam="1">  1        2 0.51031277E-01 0.13265116E+03</pdfrwt>
<pdfrwt beam="2">  1       -2 0.61057743E-02 0.13265116E+03</pdfrwt>
<totfact> 0.13279795E+04</totfact>
</mgrwt>
</event>
<event>
 6    1  0.1828142E-002  0.8631931E+02  0.7546771E-02  0.1391653E+00
         -2   -1    0    0    0  501 -0.00000000000E+00  0.00000000000E+00  0.17110833622E+03  0.17110833622E+03  0.00000000000E+00 0.  1.
          2   -1    0    0  501    0  0.00000000000E+00 -0.00000000000E+00 -0.31860504498E+02  0.31860504498E+02  0.00000000000E+00 0. -1.
         23    2    1    2    0    0  0.34483964798E+01  0.21969340511E+02  0.29851854898E+02  0.91335408869E+02  0.83405517274E+02 0.  0.
         11    1    3    3    0    0  0.23202524494E+02 -0.21610868800E+02 -0.50539535008E+01  0.32108086819E+02  0.00000000000E+00 0. -1.
        -11    1    3    3    0    0 -0.19754128015E+02  0.43580209311E+02  0.34905808398E+02  0.59227322050E+02  0.00000000000E+00 0.  1.
         22    1    1    2    0    0 -0.34483964798E+01 -0.21969340511E+02  0.10939597682E+03  0.11163343184E+03  0.00000000000E+00 0.  1.
<mgrwt>
<rscale>  0 0.61497368E+02</rscale>
<asrwt>0</asrwt>
<pdfrwt beam="1">  1        2 0.49016162E-02 0.86319312E+02</pdfrwt>
<pdfrwt beam="2">  1       -2 0.26324359E-01 0.86319312E+02</pdfrwt>
<totfact> 0.18389197E+04</totfact>
</mgrwt>
</event>
<event>
 6    1  0.1828142E-002  0.1055717E+03  0.7546771E-02  0.1360493E+00
          2   -1    0    0  501    0  0.00000000000E+00  0.00000000000E+00  0.44280734663E+02  0.44280734663E+02  0.00000000000E+00 0. -1.
         -2   -1    0    0    0  501 -0.00000000000E+00 -0.00000000000E+00 -0.10632312018E+03  0.10632312018E+03  0.00000000000E+00 0.  1.
         23    2    1    2    0    0 -0.12797115787E+02 -0.15718498797E+02 -0.72232251301E+02  0.12791749899E+03  0.10360767850E+03 0.  0.
         11    1    3    3    0    0  0.27027991986E+02 -0.17323200582E+01  0.15035990727E+02  0.30977319133E+02  0.00000000000E+00 0. -1.
        -11    1    3    3    0    0 -0.39825107773E+02 -0.13986178738E+02 -0.87268242028E+02  0.96940179861E+02  0.00000000000E+00 0.  1.
         22    1    1    2    0    0  0.12797115787E+02  0.15718498797E+02  0.10189865786E+02  0.22686355847E+02  0.00000000000E+00 0.  1.
<mgrwt>
<rscale>  0 0.69882663E+02</rscale>
<asrwt>0</asrwt>
<pdfrwt beam="1">  1        2 0.68124207E-02 0.10557172E+03</pdfrwt>
<pdfrwt beam="2">  1       -2 0.16357403E-01 0.10557172E+03</pdfrwt>
<totfact> 0.27626585E+04</totfact>
</mgrwt>
</event>
<event>
 6    1  0.1828142E-002  0.8667845E+02  0.7546771E-02  0.1420393E+00
          2   -1    0    0  501    0  0.00000000000E+00  0.00000000000E+00  0.95135710627E+02  0.95135710627E+02  0.00000000000E+00 0. -1.
         -2   -1    0    0    0  501 -0.00000000000E+00 -0.00000000000E+00 -0.28391416135E+02  0.28391416135E+02  0.00000000000E+00 0.  1.
         23    2    1    2    0    0  0.10522434218E+02  0.92162104261E+01  0.44976915041E+02  0.97652835184E+02  0.85542347270E+02 0.  0.
         13    1    3    3    0    0  0.19185583570E+01 -0.42317809873E+01 -0.25229669704E+02  0.25653948426E+02  0.00000000000E+00 0.  1.
        -13    1    3    3    0    0  0.86038758609E+01  0.13447991413E+02  0.70206584744E+02  0.71998886758E+02  0.00000000000E+00 0. -1.
         22    1    1    2    0    0 -0.10522434218E+02 -0.92162104261E+01  0.21767379452E+02  0.25874291578E+02  0.00000000000E+00 0.  1.
<mgrwt>
<rscale>  0 0.54937785E+02</rscale>
<asrwt>0</asrwt>
<pdfrwt beam="1">  1        2 0.14636263E-01 0.86678448E+02</pdfrwt>
<pdfrwt beam="2">  1       -2 0.43679102E-02 0.86678448E+02</pdfrwt>
<totfact> 0.81612001E+04</totfact>
</mgrwt>
</event>
<event>
 6    1  0.1828142E-002  0.9283588E+02  0.7546771E-02  0.1387311E+00
         -1   -1    0    0    0  501 -0.00000000000E+00  0.00000000000E+00  0.20771949838E+02  0.20771949838E+02  0.00000000000E+00 0.  1.
          1   -1    0    0  501    0  0.00000000000E+00 -0.00000000000E+00 -0.15746914648E+03  0.15746914648E+03  0.00000000000E+00 0. -1.
         23    2    1    2    0    0  0.19162355812E+02 -0.51279190762E+00 -0.97618425427E+02  0.13471398758E+03  0.90835249930E+02 0.  0.
         11    1    3    3    0    0  0.17065659681E+02 -0.63541886822E+01 -0.11490916403E+03  0.11634314948E+03  0.00000000000E+00 0. -1.
        -11    1    3    3    0    0  0.20966961310E+01  0.58413967746E+01  0.17290738599E+02  0.18370838093E+02  0.00000000000E+00 0.  1.
         22    1    1    2    0    0 -0.19162355812E+02  0.51279190762E+00 -0.39078771215E+02  0.43527108742E+02  0.00000000000E+00 0. -1.
<mgrwt>
<rscale>  0 0.62580351E+02</rscale>
<asrwt>0</asrwt>
<pdfrwt beam="1">  1        1 0.24226022E-01 0.92835885E+02</pdfrwt>
<pdfrwt beam="2">  1       -1 0.31956847E-02 0.92835885E+02</pdfrwt>
<totfact> 0.59172839E+04</totfact>
</mgrwt>
</event>
<event>
 6    1  0.1828142E-002  0.9292482E+02  0.7546771E-02  0.1417462E+00
          2   -1    0    0  501    0  0.00000000000E+00  0.00000000000E+00  0.25710070606E+01  0.25710070606E+01  0.00000000000E+00 0. -1.
         -2   -1    0    0    0  501 -0.00000000000E+00 -0.00000000000E+00 -0.13011348473E+04  0.13011348473E+04  0.00000000000E+00 0.  1.
         23    2    1    2    0    0 -0.11075163852E+02  0.42895056804E+01 -0.12583078780E+04  0.12617344163E+04  0.92162695487E+02 0.  0.
         13    1    3    3    0    0  0.18648543616E+02 -0.12001046039E+02 -0.82220267923E+02  0.85158474283E+02  0.00000000000E+00 0. -1.
        -13    1    3    3    0    0 -0.29723707468E+02  0.16290551719E+02 -0.11760876100E+04  0.11765759420E+04  0.00000000000E+00 0.  1.
         22    1    1    2    0    0  0.11075163852E+02 -0.42895056804E+01 -0.40255962259E+02  0.41971438035E+02  0.00000000000E+00 0. -1.
<mgrwt>
<rscale>  0 0.55561496E+02</rscale>
<asrwt>0</asrwt>
<pdfrwt beam="1">  1        2 0.39553926E-03 0.92924817E+02</pdfrwt>
<pdfrwt beam="2">  1       -2 0.20017474E+00 0.92924817E+02</pdfrwt>
<totfact> 0.69004746E+03</totfact>
</mgrwt>
</event>
<event>
 6    1  0.1828142E-002  0.9233102E+02  0.7546771E-02  0.1418779E+00
          2   -1    0    0  501    0  0.00000000000E+00  0.00000000000E+00  0.11152983614E+03  0.11152983614E+03  0.00000000000E+00 0. -1.
         -2   -1    0    0    0  501 -0.00000000000E+00 -0.00000000000E+00 -0.43054110929E+02  0.43054110929E+02  0.00000000000E+00 0.  1.
         23    2    1    2    0    0 -0.67928815164E+01 -0.97269225054E+01  0.76894043793E+01  0.92650651816E+02  0.91565605341E+02 0.  0.
         11    1    3    3    0    0 -0.36644760596E+02  0.18670852953E+02 -0.17129008089E+02  0.44551567282E+02  0.00000000000E+00 0. -1.
        -11    1    3    3    0    0  0.29851879080E+02 -0.28397775459E+02  0.24818412468E+02  0.48099084534E+02  0.00000000000E+00 0.  1.
         22    1    1    2    0    0  0.67928815164E+01  0.97269225054E+01  0.60786320833E+02  0.61933295255E+02  0.00000000000E+00 0. -1.
<mgrwt>
<rscale>  0 0.55280145E+02</rscale>
<asrwt>0</asrwt>
<pdfrwt beam="1">  1        2 0.17158436E-01 0.92331015E+02</pdfrwt>
<pdfrwt beam="2">  1       -2 0.66237094E-02 0.92331015E+02</pdfrwt>
<totfact> 0.36874698E+04</totfact>
</mgrwt>
</event>
<event>
 6    1  0.1828142E-002  0.9264388E+02  0.7546771E-02  0.1410858E+00
          2   -1    0    0  501    0  0.00000000000E+00  0.00000000000E+00  0.42397681293E+02  0.42397681293E+02  0.00000000000E+00 0. -1.
         -2   -1    0    0    0  501 -0.00000000000E+00 -0.00000000000E+00 -0.71364379289E+02  0.71364379289E+02  0.00000000000E+00 0.  1.
         23    2    1    2    0    0 -0.39069299624E+01 -0.12690370765E+02 -0.35184549731E+02  0.99100161249E+02  0.91687402667E+02 0.  0.
         13    1    3    3    0    0  0.12751579534E+02 -0.67185123292E+01  0.29073352562E+02  0.32449977161E+02  0.00000000000E+00 0. -1.
        -13    1    3    3    0    0 -0.16658509496E+02 -0.59718584357E+01 -0.64257902293E+02  0.66650184088E+02  0.00000000000E+00 0.  1.
         22    1    1    2    0    0  0.39069299624E+01  0.12690370765E+02  0.62178517355E+01  0.14661899334E+02  0.00000000000E+00 0. -1.
<mgrwt>
<rscale>  0 0.57002915E+02</rscale>
<asrwt>0</asrwt>
<pdfrwt beam="1">  1        2 0.65227203E-02 0.92643885E+02</pdfrwt>
<pdfrwt beam="2">  1       -2 0.10979135E-01 0.92643885E+02</pdfrwt>
<totfact> 0.54348285E+04</totfact>
</mgrwt>
</event>
<event>
 6    1  0.1828142E-002  0.8978914E+02  0.7546771E-02  0.1422380E+00
         -3   -1    0    0    0  501 -0.00000000000E+00  0.00000000000E+00  0.12037774137E+03  0.12037774137E+03  0.00000000000E+00 0.  1.
          3   -1    0    0  501    0  0.00000000000E+00 -0.00000000000E+00 -0.28044175108E+02  0.28044175108E+02  0.00000000000E+00 0. -1.
         23    2    1    2    0    0 -0.93107602716E+01 -0.78925918371E+01  0.99694617365E+02  0.13416820342E+03  0.88955645208E+02 0.  0.
         13    1    3    3    0    0 -0.43959980874E+01  0.37044990456E+02  0.19460916929E+02  0.42075924289E+02  0.00000000000E+00 0. -1.
        -13    1    3    3    0    0 -0.49147621842E+01 -0.44937582293E+02  0.80233700435E+02  0.92092279129E+02  0.00000000000E+00 0.  1.
         22    1    1    2    0    0  0.93107602716E+01  0.78925918371E+01 -0.73610511001E+01  0.14253713062E+02  0.00000000000E+00 0. -1.
<mgrwt>
<rscale>  0 0.54520528E+02</rscale>
<asrwt>0</asrwt>
<pdfrwt beam="1">  1        3 0.43144886E-02 0.89789142E+02</pdfrwt>
<pdfrwt beam="2">  1       -3 0.18519652E-01 0.89789142E+02</pdfrwt>
<totfact> 0.15142964E+04</totfact>
</mgrwt>
</event>
<event>
 6    1  0.1828142E-002  0.9870652E+02  0.7546771E-02  0.1365715E+00
         -2   -1    0    0    0  501 -0.00000000000E+00  0.00000000000E+00  0.27539489795E+02  0.27539489795E+02  0.00000000000E+00 0.  1.
          2   -1    0    0  501    0  0.00000000000E+00 -0.00000000000E+00 -0.20783519660E+03  0.20783519660E+03  0.00000000000E+00 0. -1.
         23    2    1    2    0    0 -0.17223216917E+02 -0.14824756462E+02 -0.65758859043E+02  0.11860524647E+03  0.96055006858E+02 0.  0.
         11    1    3    3    0    0 -0.17454811130E+02 -0.15966200911E+02 -0.90650589791E+02  0.93686281987E+02  0.00000000000E+00 0. -1.
        -11    1    3    3    0    0  0.23159421332E+00  0.11414444495E+01  0.24891730747E+02  0.24918964483E+02  0.00000000000E+00 0.  1.
         22    1    1    2    0    0  0.17223216917E+02  0.14824756462E+02 -0.11453684776E+03  0.11676943993E+03  0.00000000000E+00 0. -1.
<mgrwt>
<rscale>  0 0.68372897E+02</rscale>
<asrwt>0</asrwt>
<pdfrwt beam="1">  1        2 0.31974645E-01 0.98706519E+02</pdfrwt>
<pdfrwt beam="2">  1       -2 0.42368447E-02 0.98706519E+02</pdfrwt>
<totfact> 0.36530019E+04</totfact>
</mgrwt>
</event>
<event>
 6    1  0.1828142E-002  0.9343068E+02  0.7546771E-02  0.1387461E+00
         -2   -1    0    0    0  501 -0.00000000000E+00  0.00000000000E+00  0.10083853639E+02  0.10083853639E+02  0.00000000000E+00 0.  1.
          2   -1    0    0  501    0  0.00000000000E+00 -0.00000000000E+00 -0.31849792531E+03  0.31849792531E+03  0.00000000000E+00 0. -1.
         23    2    1    2    0    0 -0.91610918038E+01 -0.16371235145E+02 -0.23718298042E+03  0.25492167235E+03  0.91527864009E+02 0.  0.
         11    1    3    3    0    0 -0.24511138176E+02 -0.24181440218E+02 -0.23506019995E+03  0.23756859125E+03  0.00000000000E+00 0. -1.
        -11    1    3    3    0    0  0.15350046372E+02  0.78102050730E+01 -0.21227804692E+01  0.17353081105E+02  0.00000000000E+00 0.  1.
         22    1    1    2    0    0  0.91610918038E+01  0.16371235145E+02 -0.71231091253E+02  0.73660106600E+02  0.00000000000E+00 0. -1.
<mgrwt>
<rscale>  0 0.62542636E+02</rscale>
<asrwt>0</asrwt>
<pdfrwt beam="1">  1        2 0.48999677E-01 0.93430685E+02</pdfrwt>
<pdfrwt beam="2">  1       -2 0.15513622E-02 0.93430685E+02</pdfrwt>
<totfact> 0.99307855E+04</totfact>
</mgrwt>
</event>
<event>
 6    1  0.2402442E-002  0.1070378E+03  0.7546771E-02  0.1300000E+00
         -2   -1    0    0    0  501 -0.00000000000E+00  0.00000000000E+00  0.77114982849E+02  0.77114982849E+02  0.00000000000E+00 0. -1.
          2   -1    0    0  501    0  0.00000000000E+00 -0.00000000000E+00 -0.28212366134E+03  0.28212366134E+03  0.00000000000E+00 0.  1.
         23    2    1    2    0    0 -0.32103137289E+02 -0.46349621885E+02 -0.25957380711E+03  0.28077685646E+03  0.90984520184E+02 0.  0.
         13    1    3    3    0    0  0.26959565129E+02  0.32733051641E+01 -0.42828705611E+02  0.50713220199E+02  0.00000000000E+00 0. -1.
        -13    1    3    3    0    0 -0.59062702418E+02 -0.49622927049E+02 -0.21674510149E+03  0.23006363626E+03  0.00000000000E+00 0.  1.
         22    1    1    2    0    0  0.32103137289E+02  0.46349621885E+02  0.54565128618E+02  0.78461787730E+02  0.00000000000E+00 0. -1.
<mgrwt>
<rscale>  0 0.91187927E+02</rscale>
<asrwt>0</asrwt>
<pdfrwt beam="1">  1        2 0.43403640E-01 0.10703776E+03</pdfrwt>
<pdfrwt beam="2">  1       -2 0.11863843E-01 0.10703776E+03</pdfrwt>
<totfact> 0.55448870E+03</totfact>
</mgrwt>
</event>
<event>
 6    1  0.1828142E-002  0.9020883E+02  0.7546771E-02  0.1423844E+00
         -2   -1    0    0    0  501 -0.00000000000E+00  0.00000000000E+00  0.31441880669E+02  0.31441880669E+02  0.00000000000E+00 0.  1.
          2   -1    0    0  501    0  0.00000000000E+00 -0.00000000000E+00 -0.86282247202E+02  0.86282247202E+02  0.00000000000E+00 0. -1.
         23    2    1    2    0    0 -0.11719088297E+02 -0.10872773925E+01 -0.39728206118E+02  0.98569582846E+02  0.89437761032E+02 0.  0.
         11    1    3    3    0    0 -0.27728461574E+01  0.34446872960E+02 -0.49755289035E+02  0.60579406728E+02  0.00000000000E+00 0. -1.
        -11    1    3    3    0    0 -0.89462421401E+01 -0.35534150352E+02  0.10027082918E+02  0.37990176118E+02  0.00000000000E+00 0.  1.
         22    1    1    2    0    0  0.11719088297E+02  0.10872773925E+01 -0.15112160416E+02  0.19154545024E+02  0.00000000000E+00 0. -1.
<mgrwt>
<rscale>  0 0.54215756E+02</rscale>
<asrwt>0</asrwt>
<pdfrwt beam="1">  1        2 0.13274192E-01 0.90208826E+02</pdfrwt>
<pdfrwt beam="2">  1       -2 0.48372125E-02 0.90208826E+02</pdfrwt>
<totfact> 0.79129682E+04</totfact>
</mgrwt>
</event>
<event>
 6    1  0.1828142E-002  0.9208254E+02  0.7546771E-02  0.1373539E+00
         -2   -1    0    0    0  501 -0.00000000000E+00  0.00000000000E+00  0.80324551258E+03  0.80324551258E+03  0.00000000000E+00 0.  1.
          2   -1    0    0  501    0  0.00000000000E+00 -0.00000000000E+00 -0.43327839498E+01  0.43327839498E+01  0.00000000000E+00 0. -1.
         23    2    1    2    0    0 -0.24250778411E+02 -0.40577633073E+01  0.67476853628E+03  0.68102259262E+03  0.88739103079E+02 0.  0.
         11    1    3    3    0    0 -0.55597318832E+02  0.92004173060E+01  0.35457636250E+03  0.35902660957E+03  0.00000000000E+00 0.  1.
        -11    1    3    3    0    0  0.31346540421E+02 -0.13258180613E+02  0.32019217378E+03  0.32199598305E+03  0.00000000000E+00 0. -1.
         22    1    1    2    0    0  0.24250778411E+02  0.40577633073E+01  0.12414419235E+03  0.12655570390E+03  0.00000000000E+00 0.  1.
<mgrwt>
<rscale>  0 0.66193204E+02</rscale>
<asrwt>0</asrwt>
<pdfrwt beam="1">  1        2 0.66658278E-03 0.92082540E+02</pdfrwt>
<pdfrwt beam="2">  1       -2 0.12357611E+00 0.92082540E+02</pdfrwt>
<totfact> 0.11691293E+04</totfact>
</mgrwt>
</event>
<event>
 6    1  0.1828142E-002  0.9416499E+02  0.7546771E-02  0.1366918E+00
         -2   -1    0    0    0  501 -0.00000000000E+00  0.00000000000E+00  0.11924702147E+03  0.11924702147E+03  0.00000000000E+00 0. -1.
          2   -1    0    0  501    0  0.00000000000E+00 -0.00000000000E+00 -0.33121716762E+02  0.33121716762E+02  0.00000000000E+00 0.  1.
         23    2    1    2    0    0  0.23080347631E+02  0.11201237810E+02  0.84733781497E+02  0.12667620017E+03  0.90602846459E+02 0.  0.
         11    1    3    3    0    0  0.35232369747E+01  0.79051606654E+00 -0.19643918625E+02  0.19973023141E+02  0.00000000000E+00 0.  1.
        -11    1    3    3    0    0  0.19557110656E+02  0.10410721743E+02  0.10437770012E+03  0.10670317703E+03  0.00000000000E+00 0. -1.
         22    1    1    2    0    0 -0.23080347631E+02 -0.11201237810E+02  0.13915232071E+01  0.25692538062E+02  0.00000000000E+00 0.  1.
<mgrwt>
<rscale>  0 0.68031396E+02</rscale>
<asrwt>0</asrwt>
<pdfrwt beam="1">  1        2 0.50956488E-02 0.94164993E+02</pdfrwt>
<pdfrwt beam="2">  1       -2 0.18345695E-01 0.94164993E+02</pdfrwt>
<totfact> 0.32657844E+04</totfact>
</mgrwt>
</event>
<event>
 6    1  0.1828142E-002  0.8742838E+02  0.7546771E-02  0.1432833E+00
         -1   -1    0    0    0  501 -0.00000000000E+00  0.00000000000E+00  0.34337504988E+03  0.34337504988E+03  0.00000000000E+00 0.  1.
          1   -1    0    0  501    0  0.00000000000E+00 -0.00000000000E+00 -0.95387238339E+01  0.95387238339E+01  0.00000000000E+00 0. -1.
         23    2    1    2    0    0 -0.77255551078E+01 -0.82158946067E+01  0.32938314801E+03  0.34078876153E+03  0.86697962296E+02 0.  0.
         13    1    3    3    0    0  0.14103623236E+02  0.57758156240E+01  0.30440453738E+03  0.30478581760E+03  0.00000000000E+00 0.  1.
        -13    1    3    3    0    0 -0.21829178344E+02 -0.13991710231E+02  0.24978610628E+02  0.36002943925E+02  0.00000000000E+00 0. -1.
         22    1    1    2    0    0  0.77255551078E+01  0.82158946067E+01  0.44531780411E+01  0.12125012189E+02  0.00000000000E+00 0. -1.
<mgrwt>
<rscale>  0 0.52395485E+02</rscale>
<asrwt>0</asrwt>
<pdfrwt beam="1">  1        1 0.14674962E-02 0.87428381E+02</pdfrwt>
<pdfrwt beam="2">  1       -1 0.52826921E-01 0.87428381E+02</pdfrwt>
<totfact> 0.30332832E+04</totfact>
</mgrwt>
</event>
<event>
 6    1  0.1828142E-002  0.8804611E+02  0.7546771E-02  0.1431500E+00
         -2   -1    0    0    0  501 -0.00000000000E+00  0.00000000000E+00  0.25303256776E+03  0.25303256776E+03  0.00000000000E+00 0.  1.
          2   -1    0    0  501    0  0.00000000000E+00 -0.00000000000E+00 -0.14613705619E+02  0.14613705619E+02  0.00000000000E+00 0. -1.
         23    2    1    2    0    0 -0.11259740841E+02  0.39595629500E+00  0.24057022137E+03  0.25617601219E+03  0.87322272438E+02 0.  0.
         13    1    3    3    0    0  0.24961514031E+02  0.15602920315E+02  0.30214046889E+02  0.42183135664E+02  0.00000000000E+00 0. -1.
        -13    1    3    3    0    0 -0.36221254872E+02 -0.15206964020E+02  0.21035617448E+03  0.21399287652E+03  0.00000000000E+00 0.  1.
         22    1    1    2    0    0  0.11259740841E+02 -0.39595629500E+00 -0.21513592343E+01  0.11470261189E+02  0.00000000000E+00 0. -1.
<mgrwt>
<rscale>  0 0.52660118E+02</rscale>
<asrwt>0</asrwt>
<pdfrwt beam="1">  1        2 0.22482626E-02 0.88046112E+02</pdfrwt>
<pdfrwt beam="2">  1       -2 0.38928084E-01 0.88046112E+02</pdfrwt>
<totfact> 0.25460499E+04</totfact>
</mgrwt>
</event>
<event>
 6    1  0.1828142E-002  0.9369861E+02  0.7546771E-02  0.1376440E+00
          1   -1    0    0  501    0  0.00000000000E+00  0.00000000000E+00  0.65634880373E+02  0.65634880373E+02  0.00000000000E+00 0. -1.
         -1   -1    0    0    0  501 -0.00000000000E+00 -0.00000000000E+00 -0.51253729680E+02  0.51253729680E+02  0.00000000000E+00 0.  1.
         23    2    1    2    0    0  0.14965643442E+02  0.16466035498E+02  0.12983815306E+02  0.94593916630E+02  0.91018288244E+02 0.  0.
         11    1    3    3    0    0  0.78706846762E+00 -0.33594532264E+02 -0.13497060884E+02  0.36213018754E+02  0.00000000000E+00 0.  1.
        -11    1    3    3    0    0  0.14178574974E+02  0.50060567762E+02  0.26480876189E+02  0.58380897875E+02  0.00000000000E+00 0. -1.
         22    1    1    2    0    0 -0.14965643442E+02 -0.16466035498E+02  0.13973353866E+01  0.22294693423E+02  0.00000000000E+00 0. -1.
<mgrwt>
<rscale>  0 0.65408858E+02</rscale>
<asrwt>0</asrwt>
<pdfrwt beam="1">  1        1 0.10097674E-01 0.93698610E+02</pdfrwt>
<pdfrwt beam="2">  1       -1 0.78851891E-02 0.93698610E+02</pdfrwt>
<totfact> 0.48172560E+04</totfact>
</mgrwt>
</event>
<event>
 6    1  0.1828142E-002  0.9561499E+02  0.7546771E-02  0.1371348E+00
          2   -1    0    0  501    0  0.00000000000E+00  0.00000000000E+00  0.36652534468E+03  0.36652534468E+03  0.00000000000E+00 0. -1.
         -2   -1    0    0    0  501 -0.00000000000E+00 -0.00000000000E+00 -0.10422490462E+02  0.10422490462E+02  0.00000000000E+00 0.  1.
         23    2    1    2    0    0 -0.66366717907E+01  0.21781550328E+02  0.23471852702E+03  0.25344627144E+03  0.92864117040E+02 0.  0.
         11    1    3    3    0    0 -0.35574824249E+01 -0.28852865854E+02  0.27180512116E+02  0.39798540024E+02  0.00000000000E+00 0.  1.
        -11    1    3    3    0    0 -0.30791893658E+01  0.50634416182E+02  0.20753801490E+03  0.21364773141E+03  0.00000000000E+00 0. -1.
         22    1    1    2    0    0  0.66366717907E+01 -0.21781550328E+02  0.12138432720E+03  0.12350156370E+03  0.00000000000E+00 0.  1.
<mgrwt>
<rscale>  0 0.66793795E+02</rscale>
<asrwt>0</asrwt>
<pdfrwt beam="1">  1        2 0.56388505E-01 0.95614986E+02</pdfrwt>
<pdfrwt beam="2">  1       -2 0.16034604E-02 0.95614986E+02</pdfrwt>
<totfact> 0.82030271E+04</totfact>
</mgrwt>
</event>
<event>
 6    1  0.1828142E-002  0.9308334E+02  0.7546771E-02  0.1387047E+00
         -3   -1    0    0    0  501 -0.00000000000E+00  0.00000000000E+00  0.24814547041E+03  0.24814547041E+03  0.00000000000E+00 0. -1.
          3   -1    0    0  501    0  0.00000000000E+00 -0.00000000000E+00 -0.13371630968E+02  0.13371630968E+02  0.00000000000E+00 0.  1.
         23    2    1    2    0    0  0.14038286236E+02  0.12948627121E+02  0.21360964163E+03  0.23300984451E+03  0.91103063723E+02 0.  0.
         13    1    3    3    0    0 -0.88185646322E+01 -0.36669108855E+02  0.10196330716E+03  0.10871479492E+03  0.00000000000E+00 0. -1.
        -13    1    3    3    0    0  0.22856850868E+02  0.49617735976E+02  0.11164633447E+03  0.12429504960E+03  0.00000000000E+00 0.  1.
         22    1    1    2    0    0 -0.14038286236E+02 -0.12948627121E+02  0.21164197812E+02  0.28507256862E+02  0.00000000000E+00 0.  1.
<mgrwt>
<rscale>  0 0.62647243E+02</rscale>
<asrwt>0</asrwt>
<pdfrwt beam="1">  1        3 0.20571742E-02 0.93083342E+02</pdfrwt>
<pdfrwt beam="2">  1       -3 0.38176223E-01 0.93083342E+02</pdfrwt>
<totfact> 0.12858966E+04</totfact>
</mgrwt>
</event>
<event>
 6    1  0.1828142E-002  0.9006819E+02  0.7546771E-02  0.1422980E+00
         -2   -1    0    0    0  501 -0.00000000000E+00  0.00000000000E+00  0.16304918823E+02  0.16304918823E+02  0.00000000000E+00 0.  1.
          2   -1    0    0  501    0  0.00000000000E+00 -0.00000000000E+00 -0.16985016227E+03  0.16985016227E+03  0.00000000000E+00 0. -1.
         23    2    1    2    0    0  0.14996808954E+01 -0.11887916619E+02 -0.11672806619E+03  0.14743717638E+03  0.89267619759E+02 0.  0.
         13    1    3    3    0    0 -0.31692107858E+02 -0.13727494971E+02 -0.10753727453E+03  0.11294732946E+03  0.00000000000E+00 0. -1.
        -13    1    3    3    0    0  0.33191788753E+02  0.18395783523E+01 -0.91907916605E+01  0.34489846919E+02  0.00000000000E+00 0.  1.
         22    1    1    2    0    0 -0.14996808954E+01  0.11887916619E+02 -0.36817177259E+02  0.38717904716E+02  0.00000000000E+00 0. -1.
<mgrwt>
<rscale>  0 0.54395398E+02</rscale>
<asrwt>0</asrwt>
<pdfrwt beam="1">  1        2 0.26130794E-01 0.90068194E+02</pdfrwt>
<pdfrwt beam="2">  1       -2 0.25084491E-02 0.90068194E+02</pdfrwt>
<totfact> 0.96344956E+04</totfact>
</mgrwt>
</event>
<event>
 6    1  0.1828142E-002  0.9534722E+02  0.7546771E-02  0.1389215E+00
         -4   -1    0    0    0  501 -0.00000000000E+00  0.00000000000E+00  0.60441494062E+02  0.60441494062E+02  0.00000000000E+00 0.  1.
          4   -1    0    0  501    0  0.00000000000E+00 -0.00000000000E+00 -0.63897259827E+02  0.63897259827E+02  0.00000000000E+00 0. -1.
         23    2    1    2    0    0  0.14656937169E+02 -0.89232887649E+01  0.17827572114E+02  0.96999562956E+02  0.93790415270E+02 0.  0.
         13    1    3    3    0    0 -0.21834164328E+01  0.28630663803E+02 -0.24657647124E+02  0.37848141022E+02  0.00000000000E+00 0. -1.
        -13    1    3    3    0    0  0.16840353602E+02 -0.37553952568E+02  0.42485219239E+02  0.59151421933E+02  0.00000000000E+00 0.  1.
         22    1    1    2    0    0 -0.14656937169E+02  0.89232887649E+01 -0.21283337880E+02  0.27339190933E+02  0.00000000000E+00 0. -1.
<mgrwt>
<rscale>  0 0.62102294E+02</rscale>
<asrwt>0</asrwt>
<pdfrwt beam="1">  1        4 0.98303477E-02 0.95347223E+02</pdfrwt>
<pdfrwt beam="2">  1       -4 0.92986914E-02 0.95347223E+02</pdfrwt>
<totfact> 0.98744983E+03</totfact>
</mgrwt>
</event>
<event>
 6    1  0.1828142E-002  0.9691797E+02  0.7546771E-02  0.1352132E+00
          1   -1    0    0  501    0  0.00000000000E+00  0.00000000000E+00  0.25861318500E+02  0.25861318500E+02  0.00000000000E+00 0. -1.
         -1   -1    0    0    0  501 -0.00000000000E+00 -0.00000000000E+00 -0.15619366113E+03  0.15619366113E+03  0.00000000000E+00 0.  1.
         23    2    1    2    0    0  0.17139282191E+02  0.24833179055E+02 -0.10077446375E+03  0.13981625357E+03  0.92101305312E+02 0.  0.
         13    1    3    3    0    0  0.33079606452E+02  0.23824381325E+02 -0.31430035176E+01  0.40886916974E+02  0.00000000000E+00 0. -1.
        -13    1    3    3    0    0 -0.15940324261E+02  0.10087977300E+01 -0.97631460237E+02  0.98929336591E+02  0.00000000000E+00 0.  1.
         22    1    1    2    0    0 -0.17139282191E+02 -0.24833179055E+02 -0.29557878879E+02  0.42238726067E+02  0.00000000000E+00 0. -1.
<mgrwt>
<rscale>  0 0.72395195E+02</rscale>
<asrwt>0</asrwt>
<pdfrwt beam="1">  1        1 0.39786644E-02 0.96917966E+02</pdfrwt>
<pdfrwt beam="2">  1       -1 0.24029794E-01 0.96917966E+02</pdfrwt>
<totfact> 0.30036646E+04</totfact>
</mgrwt>
</event>
<event>
 6    1  0.1828142E-002  0.9155160E+02  0.7546771E-02  0.1429178E+00
         -2   -1    0    0    0  501 -0.00000000000E+00  0.00000000000E+00  0.15622193439E+02  0.15622193439E+02  0.00000000000E+00 0.  1.
          2   -1    0    0  501    0  0.00000000000E+00 -0.00000000000E+00 -0.24082281009E+03  0.24082281009E+03  0.00000000000E+00 0. -1.
         23    2    1    2    0    0  0.23349770851E+01 -0.10114278503E+02 -0.22799960923E+03  0.24569395209E+03  0.90961230949E+02 0.  0.
         13    1    3    3    0    0 -0.62305212494E+01 -0.50137602127E+02 -0.12026055360E+03  0.13044232172E+03  0.00000000000E+00 0. -1.
        -13    1    3    3    0    0  0.85654983346E+01  0.40023323624E+02 -0.10773905563E+03  0.11525163037E+03  0.00000000000E+00 0.  1.
         22    1    1    2    0    0 -0.23349770851E+01  0.10114278503E+02  0.27989925787E+01  0.10751051441E+02  0.00000000000E+00 0.  1.
<mgrwt>
<rscale>  0 0.53125375E+02</rscale>
<asrwt>0</asrwt>
<pdfrwt beam="1">  1        2 0.37049662E-01 0.91551604E+02</pdfrwt>
<pdfrwt beam="2">  1       -2 0.24034144E-02 0.91551604E+02</pdfrwt>
<totfact> 0.70784320E+04</totfact>
</mgrwt>
</event>
<event>
 6    1  0.1828142E-002  0.9525029E+02  0.7546771E-02  0.1327978E+00
          2   -1    0    0  501    0  0.00000000000E+00  0.00000000000E+00  0.45666849201E+03  0.45666849201E+03  0.00000000000E+00 0.  1.
         -2   -1    0    0    0  501 -0.00000000000E+00 -0.00000000000E+00 -0.12476248239E+02  0.12476248239E+02  0.00000000000E+00 0. -1.
         23    2    1    2    0    0 -0.61270011509E+01  0.47914043689E+02  0.21878694809E+03  0.23862176298E+03  0.82093369950E+02 0.  0.
         11    1    3    3    0    0  0.17775108559E+02  0.49191761505E+02  0.20374486693E+03  0.21035150269E+03  0.00000000000E+00 0.  1.
        -11    1    3    3    0    0 -0.23902109710E+02 -0.12777178158E+01  0.15042081159E+02  0.28270260292E+02  0.00000000000E+00 0. -1.
         22    1    1    2    0    0  0.61270011509E+01 -0.47914043689E+02  0.22540529568E+03  0.23052297726E+03  0.00000000000E+00 0.  1.
<mgrwt>
<rscale>  0 0.80379619E+02</rscale>
<asrwt>0</asrwt>
<pdfrwt beam="1">  1        2 0.70256678E-01 0.95250287E+02</pdfrwt>
<pdfrwt beam="2">  1       -2 0.19194232E-02 0.95250287E+02</pdfrwt>
<totfact> 0.50207482E+04</totfact>
</mgrwt>
</event>
<event>
 6    1  0.1828142E-002  0.9156101E+02  0.7546771E-02  0.1405120E+00
         -2   -1    0    0    0  501 -0.00000000000E+00  0.00000000000E+00  0.23224261743E+03  0.23224261743E+03  0.00000000000E+00 0.  1.
          2   -1    0    0  501    0  0.00000000000E+00 -0.00000000000E+00 -0.22725806087E+02  0.22725806087E+02  0.00000000000E+00 0. -1.
         23    2    1    2    0    0 -0.11715379467E+02 -0.94430925326E+01  0.21887084217E+03  0.23725063569E+03  0.90316091976E+02 0.  0.
         13    1    3    3    0    0 -0.24857553461E+02  0.31148562486E+01  0.90387489212E+01  0.26632673083E+02  0.00000000000E+00 0. -1.
        -13    1    3    3    0    0  0.13142173994E+02 -0.12557948781E+02  0.20983209325E+03  0.21061796261E+03  0.00000000000E+00 0.  1.
         22    1    1    2    0    0  0.11715379467E+02  0.94430925326E+01 -0.93540308308E+01  0.17717787825E+02  0.00000000000E+00 0. -1.
<mgrwt>
<rscale>  0 0.58297212E+02</rscale>
<asrwt>0</asrwt>
<pdfrwt beam="1">  1        2 0.34962780E-02 0.91561010E+02</pdfrwt>
<pdfrwt beam="2">  1       -2 0.35729632E-01 0.91561010E+02</pdfrwt>
<totfact> 0.16665055E+04</totfact>
</mgrwt>
</event>
<event>
 6    1  0.1828142E-002  0.1040847E+03  0.7546771E-02  0.1364343E+00
         -1   -1    0    0    0  501 -0.00000000000E+00  0.00000000000E+00  0.30053906946E+02  0.30053906946E+02  0.00000000000E+00 0.  1.
          1   -1    0    0  501    0  0.00000000000E+00 -0.00000000000E+00 -0.14124134814E+03  0.14124134814E+03  0.00000000000E+00 0. -1.
         23    2    1    2    0    0 -0.19763132520E+02  0.16232768670E+01 -0.10998732075E+03  0.15142928610E+03  0.10217828306E+03 0.  0.
         11    1    3    3    0    0 -0.53573672380E+02  0.54852508905E+01 -0.10366169329E+03  0.11681597924E+03  0.00000000000E+00 0. -1.
        -11    1    3    3    0    0  0.33810539860E+02 -0.38619740235E+01 -0.63256274575E+01  0.34613306859E+02  0.00000000000E+00 0.  1.
         22    1    1    2    0    0  0.19763132520E+02 -0.16232768670E+01 -0.12001204460E+01  0.19865968989E+02  0.00000000000E+00 0.  1.
<mgrwt>
<rscale>  0 0.68765250E+02</rscale>
<asrwt>0</asrwt>
<pdfrwt beam="1">  1        1 0.21729438E-01 0.10408467E+03</pdfrwt>
<pdfrwt beam="2">  1       -1 0.46236780E-02 0.10408467E+03</pdfrwt>
<totfact> 0.40220825E+04</totfact>
</mgrwt>
</event>
<event>
 6    1  0.1828142E-002  0.9504887E+02  0.7546771E-02  0.1362946E+00
         -1   -1    0    0    0  501 -0.00000000000E+00  0.00000000000E+00  0.46629083229E+02  0.46629083229E+02  0.00000000000E+00 0.  1.
          1   -1    0    0  501    0  0.00000000000E+00 -0.00000000000E+00 -0.79769878006E+02  0.79769878006E+02  0.00000000000E+00 0. -1.
         23    2    1    2    0    0  0.23685596891E+02  0.12225417686E+02 -0.22338468592E+02  0.97638596344E+02  0.91234971251E+02 0.  0.
         11    1    3    3    0    0  0.31945548324E+02  0.45456776697E+02  0.20526753545E+01  0.55597212893E+02  0.00000000000E+00 0.  1.
        -11    1    3    3    0    0 -0.82599514323E+01 -0.33231359011E+02 -0.24391143947E+02  0.42041383451E+02  0.00000000000E+00 0. -1.
         22    1    1    2    0    0 -0.23685596891E+02 -0.12225417686E+02 -0.10802326185E+02  0.28760364891E+02  0.00000000000E+00 0.  1.
<mgrwt>
<rscale>  0 0.69167698E+02</rscale>
<asrwt>0</asrwt>
<pdfrwt beam="1">  1        1 0.12272289E-01 0.95048873E+02</pdfrwt>
<pdfrwt beam="2">  1       -1 0.71737051E-02 0.95048873E+02</pdfrwt>
<totfact> 0.43092636E+04</totfact>
</mgrwt>
</event>
<event>
 6    1  0.1828142E-002  0.8661265E+02  0.7546771E-02  0.1404303E+00
         -2   -1    0    0    0  501 -0.00000000000E+00  0.00000000000E+00  0.21097882528E+03  0.21097882528E+03  0.00000000000E+00 0.  1.
          2   -1    0    0  501    0  0.00000000000E+00 -0.00000000000E+00 -0.33692299121E+02  0.33692299121E+02  0.00000000000E+00 0. -1.
         23    2    1    2    0    0 -0.14759158766E+02  0.10314768518E+02  0.19866228054E+03  0.21672206193E+03  0.84720264409E+02 0.  0.
         11    1    3    3    0    0 -0.23457810064E+02  0.31134265997E+02  0.18757254941E+03  0.19158046003E+03  0.00000000000E+00 0.  1.
        -11    1    3    3    0    0  0.86986512978E+01 -0.20819497479E+02  0.11089731127E+02  0.25141601901E+02  0.00000000000E+00 0. -1.
         22    1    1    2    0    0  0.14759158766E+02 -0.10314768518E+02 -0.21375754385E+02  0.27949062464E+02  0.00000000000E+00 0. -1.
<mgrwt>
<rscale>  0 0.58484686E+02</rscale>
<asrwt>0</asrwt>
<pdfrwt beam="1">  1        2 0.51834308E-02 0.86612646E+02</pdfrwt>
<pdfrwt beam="2">  1       -2 0.32458280E-01 0.86612646E+02</pdfrwt>
<totfact> 0.11809830E+04</totfact>
</mgrwt>
</event>
<event>
 6    1  0.1828142E-002  0.1025196E+03  0.7546771E-02  0.1323281E+00
          2   -1    0    0  501    0  0.00000000000E+00  0.00000000000E+00  0.46256044019E+03  0.46256044019E+03  0.00000000000E+00 0.  1.
         -2   -1    0    0    0  501 -0.00000000000E+00 -0.00000000000E+00 -0.16329824936E+02  0.16329824936E+02  0.00000000000E+00 0. -1.
         23    2    1    2    0    0 -0.36140795160E+02 -0.21595020413E+02  0.41219321824E+03  0.42475112608E+03  0.93476028793E+02 0.  0.
         13    1    3    3    0    0  0.37492619834E+00  0.34565556509E+02  0.11397084958E+03  0.11909774482E+03  0.00000000000E+00 0.  1.
        -13    1    3    3    0    0 -0.36515721359E+02 -0.56160576922E+02  0.29822236866E+03  0.30565338126E+03  0.00000000000E+00 0. -1.
         22    1    1    2    0    0  0.36140795160E+02  0.21595020413E+02  0.34037397012E+02  0.54139139047E+02  0.00000000000E+00 0. -1.
<mgrwt>
<rscale>  0 0.82068887E+02</rscale>
<asrwt>0</asrwt>
<pdfrwt beam="1">  1        2 0.71163135E-01 0.10251961E+03</pdfrwt>
<pdfrwt beam="2">  1       -2 0.25122811E-02 0.10251961E+03</pdfrwt>
<totfact> 0.33869968E+04</totfact>
</mgrwt>
</event>
<event>
 6    1  0.1828142E-002  0.9584152E+02  0.7546771E-02  0.1350609E+00
          2   -1    0    0  501    0  0.00000000000E+00  0.00000000000E+00  0.34856815708E+03  0.34856815708E+03  0.00000000000E+00 0. -1.
         -2   -1    0    0    0  501 -0.00000000000E+00 -0.00000000000E+00 -0.12793350290E+02  0.12793350290E+02  0.00000000000E+00 0.  1.
         23    2    1    2    0    0  0.27569684852E+02 -0.16288355540E+02  0.19884435126E+03  0.22073665999E+03  0.90333819726E+02 0.  0.
         13    1    3    3    0    0 -0.95836805654E+01 -0.33721246607E+02  0.16146036414E+03  0.16522233080E+03  0.00000000000E+00 0. -1.
        -13    1    3    3    0    0  0.37153365417E+02  0.17432891067E+02  0.37383987124E+02  0.55514329195E+02  0.00000000000E+00 0.  1.
         22    1    1    2    0    0 -0.27569684852E+02  0.16288355540E+02  0.13693045553E+03  0.14062484738E+03  0.00000000000E+00 0. -1.
<mgrwt>
<rscale>  0 0.72866319E+02</rscale>
<asrwt>0</asrwt>
<pdfrwt beam="1">  1        2 0.53625863E-01 0.95841520E+02</pdfrwt>
<pdfrwt beam="2">  1       -2 0.19682080E-02 0.95841520E+02</pdfrwt>
<totfact> 0.64471769E+04</totfact>
</mgrwt>
</event>
<event>
 6    1  0.1828142E-002  0.1002009E+03  0.7546771E-02  0.1326924E+00
         -2   -1    0    0    0  501 -0.00000000000E+00  0.00000000000E+00  0.50346281225E+02  0.50346281225E+02  0.00000000000E+00 0.  1.
          2   -1    0    0  501    0  0.00000000000E+00 -0.00000000000E+00 -0.10527982602E+03  0.10527982602E+03  0.00000000000E+00 0. -1.
         23    2    1    2    0    0 -0.96566559250E+01 -0.41154077327E+02 -0.23423247012E+02  0.10290222318E+03  0.90847729475E+02 0.  0.
         13    1    3    3    0    0 -0.22845524996E+02 -0.92498756379E+01  0.30290345548E+02  0.39051033854E+02  0.00000000000E+00 0.  1.
        -13    1    3    3    0    0  0.13188869071E+02 -0.31904201689E+02 -0.53713592560E+02  0.63851189327E+02  0.00000000000E+00 0. -1.
         22    1    1    2    0    0  0.96566559250E+01  0.41154077327E+02 -0.31510297780E+02  0.52723884061E+02  0.00000000000E+00 0. -1.
<mgrwt>
<rscale>  0 0.80754457E+02</rscale>
<asrwt>0</asrwt>
<pdfrwt beam="1">  1        2 0.16196896E-01 0.10020089E+03</pdfrwt>
<pdfrwt beam="2">  1       -2 0.77455818E-02 0.10020089E+03</pdfrwt>
<totfact> 0.31369756E+04</totfact>
</mgrwt>
</event>
<event>
 6    1  0.1828142E-002  0.8792710E+02  0.7546771E-02  0.1430896E+00
         -2   -1    0    0    0  501 -0.00000000000E+00  0.00000000000E+00  0.13985490307E+03  0.13985490307E+03  0.00000000000E+00 0.  1.
          2   -1    0    0  501    0  0.00000000000E+00 -0.00000000000E+00 -0.20071284668E+02  0.20071284668E+02  0.00000000000E+00 0. -1.
         23    2    1    2    0    0  0.70203381768E+01 -0.90027470924E+01  0.11968226112E+03  0.14850931966E+03  0.87182795297E+02 0.  0.
         11    1    3    3    0    0  0.69002125439E+01 -0.60366077681E+01 -0.12937343571E+02  0.15856494732E+02  0.00000000000E+00 0. -1.
        -11    1    3    3    0    0  0.12012563288E+00 -0.29661393243E+01  0.13261960470E+03  0.13265282493E+03  0.00000000000E+00 0.  1.
         22    1    1    2    0    0 -0.70203381768E+01  0.90027470924E+01  0.10135727769E+00  0.11416868074E+02  0.00000000000E+00 0. -1.
<mgrwt>
<rscale>  0 0.52780624E+02</rscale>
<asrwt>0</asrwt>
<pdfrwt beam="1">  1        2 0.30878900E-02 0.87927097E+02</pdfrwt>
<pdfrwt beam="2">  1       -2 0.21516138E-01 0.87927097E+02</pdfrwt>
<totfact> 0.47693406E+04</totfact>
</mgrwt>
</event>
<event>
 6    1  0.1828142E-002  0.9536932E+02  0.7546771E-02  0.1364813E+00
          1   -1    0    0  501    0  0.00000000000E+00  0.00000000000E+00  0.25893913295E+03  0.25893913295E+03  0.00000000000E+00 0. -1.
         -1   -1    0    0    0  501 -0.00000000000E+00 -0.00000000000E+00 -0.19077601705E+02  0.19077601705E+02  0.00000000000E+00 0.  1.
         23    2    1    2    0    0  0.22857445464E+02 -0.11475950101E+02  0.10967095045E+03  0.14533761960E+03  0.91875709819E+02 0.  0.
         13    1    3    3    0    0  0.10587873100E+02  0.11187473106E+02 -0.12896928261E+02  0.20089633392E+02  0.00000000000E+00 0.  1.
        -13    1    3    3    0    0  0.12269572364E+02 -0.22663423207E+02  0.12256787871E+03  0.12524798621E+03  0.00000000000E+00 0. -1.
         22    1    1    2    0    0 -0.22857445464E+02  0.11475950101E+02  0.13019058079E+03  0.13267911505E+03  0.00000000000E+00 0. -1.
<mgrwt>
<rscale>  0 0.68630477E+02</rscale>
<asrwt>0</asrwt>
<pdfrwt beam="1">  1        1 0.39836787E-01 0.95369315E+02</pdfrwt>
<pdfrwt beam="2">  1       -1 0.29350158E-02 0.95369315E+02</pdfrwt>
<totfact> 0.36424031E+04</totfact>
</mgrwt>
</event>
<event>
 6    1  0.1828142E-002  0.9156704E+02  0.7546771E-02  0.1426688E+00
         -2   -1    0    0    0  501 -0.00000000000E+00  0.00000000000E+00  0.45671168535E+02  0.45671168535E+02  0.00000000000E+00 0.  1.
          2   -1    0    0  501    0  0.00000000000E+00 -0.00000000000E+00 -0.57391491117E+02  0.57391491117E+02  0.00000000000E+00 0. -1.
         23    2    1    2    0    0  0.70386997068E+01 -0.81587247970E+01 -0.11487444358E+02  0.92284797334E+02  0.90930821822E+02 0.  0.
         11    1    3    3    0    0  0.20413734583E+00  0.18059799753E+02  0.34481390436E+02  0.38925111760E+02  0.00000000000E+00 0.  1.
        -11    1    3    3    0    0  0.68345623610E+01 -0.26218524550E+02 -0.45968834794E+02  0.53359685574E+02  0.00000000000E+00 0. -1.
         22    1    1    2    0    0 -0.70386997068E+01  0.81587247970E+01 -0.23287822334E+00  0.10777862318E+02  0.00000000000E+00 0. -1.
<mgrwt>
<rscale>  0 0.53630541E+02</rscale>
<asrwt>0</asrwt>
<pdfrwt beam="1">  1        2 0.88294602E-02 0.91567038E+02</pdfrwt>
<pdfrwt beam="2">  1       -2 0.70263336E-02 0.91567038E+02</pdfrwt>
<totfact> 0.73977656E+04</totfact>
</mgrwt>
</event>
<event>
 6    1  0.1828142E-002  0.9452521E+02  0.7546771E-02  0.1363708E+00
         -2   -1    0    0    0  501 -0.00000000000E+00  0.00000000000E+00  0.50250703848E+02  0.50250703848E+02  0.00000000000E+00 0. -1.
          2   -1    0    0  501    0  0.00000000000E+00 -0.00000000000E+00 -0.88575324947E+02  0.88575324947E+02  0.00000000000E+00 0.  1.
         23    2    1    2    0    0  0.21909876667E+02  0.15359093234E+02 -0.52936868482E+02  0.10833894605E+03  0.90659090810E+02 0.  0.
         13    1    3    3    0    0 -0.34940690710E+02  0.10356915496E+02 -0.28467936499E+02  0.46244361542E+02  0.00000000000E+00 0. -1.
        -13    1    3    3    0    0  0.56850567377E+02  0.50021777387E+01 -0.24468931982E+02  0.62094584511E+02  0.00000000000E+00 0.  1.
         22    1    1    2    0    0 -0.21909876667E+02 -0.15359093234E+02  0.14612247383E+02  0.30487082742E+02  0.00000000000E+00 0. -1.
<mgrwt>
<rscale>  0 0.68947838E+02</rscale>
<asrwt>0</asrwt>
<pdfrwt beam="1">  1        2 0.13626973E-01 0.94525209E+02</pdfrwt>
<pdfrwt beam="2">  1       -2 0.77308775E-02 0.94525209E+02</pdfrwt>
<totfact> 0.38166916E+04</totfact>
</mgrwt>
</event>
<event>
 6    1  0.1828142E-002  0.9219015E+02  0.7546771E-02  0.1414267E+00
          2   -1    0    0  501    0  0.00000000000E+00  0.00000000000E+00  0.48440536365E+01  0.48440536365E+01  0.00000000000E+00 0. -1.
         -2   -1    0    0    0  501 -0.00000000000E+00 -0.00000000000E+00 -0.57382928981E+03  0.57382928981E+03  0.00000000000E+00 0.  1.
         23    2    1    2    0    0  0.11395212236E+02 -0.57850371633E+01 -0.51583071981E+03  0.52400415535E+03  0.91300086590E+02 0.  0.
         13    1    3    3    0    0  0.17562207125E+02 -0.37545229947E+02 -0.43452984774E+03  0.43650230697E+03  0.00000000000E+00 0.  1.
        -13    1    3    3    0    0 -0.61669948895E+01  0.31760192784E+02 -0.81300872066E+02  0.87501848382E+02  0.00000000000E+00 0. -1.
         22    1    1    2    0    0 -0.11395212236E+02  0.57850371633E+01 -0.53154516367E+02  0.54669188096E+02  0.00000000000E+00 0. -1.
<mgrwt>
<rscale>  0 0.56252584E+02</rscale>
<asrwt>0</asrwt>
<pdfrwt beam="1">  1        2 0.74523940E-03 0.92190148E+02</pdfrwt>
<pdfrwt beam="2">  1       -2 0.88281384E-01 0.92190148E+02</pdfrwt>
<totfact> 0.21805589E+04</totfact>
</mgrwt>
</event>
<event>
 6    1  0.1828142E-002  0.9314849E+02  0.7546771E-02  0.1394920E+00
         -1   -1    0    0    0  501 -0.00000000000E+00  0.00000000000E+00  0.54171133346E+01  0.54171133346E+01  0.00000000000E+00 0.  1.
          1   -1    0    0  501    0  0.00000000000E+00 -0.00000000000E+00 -0.55947761656E+03  0.55947761656E+03  0.00000000000E+00 0. -1.
         23    2    1    2    0    0 -0.10926218619E+02  0.12756516122E+02 -0.45789474604E+03  0.46727319635E+03  0.91621671114E+02 0.  0.
         13    1    3    3    0    0  0.38802681141E+02  0.71806384345E+01 -0.13965119988E+03  0.14511949304E+03  0.00000000000E+00 0.  1.
        -13    1    3    3    0    0 -0.49728899760E+02  0.55758776873E+01 -0.31824354616E+03  0.32215370331E+03  0.00000000000E+00 0. -1.
         22    1    1    2    0    0  0.10926218619E+02 -0.12756516122E+02 -0.96165757190E+02  0.97621533551E+02  0.00000000000E+00 0. -1.
<mgrwt>
<rscale>  0 0.60699395E+02</rscale>
<asrwt>0</asrwt>
<pdfrwt beam="1">  1        1 0.86073431E-01 0.93148492E+02</pdfrwt>
<pdfrwt beam="2">  1       -1 0.83340252E-03 0.93148492E+02</pdfrwt>
<totfact> 0.83187471E+04</totfact>
</mgrwt>
</event>
<event>
 6    1  0.1828142E-002  0.8764084E+02  0.7546771E-02  0.1425008E+00
          2   -1    0    0  501    0  0.00000000000E+00  0.00000000000E+00  0.31344985681E+02  0.31344985681E+02  0.00000000000E+00 0. -1.
         -2   -1    0    0    0  501 -0.00000000000E+00 -0.00000000000E+00 -0.11411778561E+03  0.11411778561E+03  0.00000000000E+00 0.  1.
         23    2    1    2    0    0  0.10248380099E+02 -0.73445957807E+01 -0.94044380184E+02  0.12855061877E+03  0.86729140196E+02 0.  0.
         13    1    3    3    0    0  0.20395841339E+02  0.47945882079E+01  0.10066316506E+02  0.23244550932E+02  0.00000000000E+00 0. -1.
        -13    1    3    3    0    0 -0.10147461240E+02 -0.12139183989E+02 -0.10411069669E+03  0.10530606783E+03  0.00000000000E+00 0.  1.
         22    1    1    2    0    0 -0.10248380099E+02  0.73445957807E+01  0.11271580250E+02  0.16912152529E+02  0.00000000000E+00 0. -1.
<mgrwt>
<rscale>  0 0.53975304E+02</rscale>
<asrwt>0</asrwt>
<pdfrwt beam="1">  1        2 0.48223056E-02 0.87640836E+02</pdfrwt>
<pdfrwt beam="2">  1       -2 0.17556582E-01 0.87640836E+02</pdfrwt>
<totfact> 0.37342604E+04</totfact>
</mgrwt>
</event>
<event>
 6    1  0.1828142E-002  0.9233419E+02  0.7546771E-02  0.1426403E+00
          2   -1    0    0  501    0  0.00000000000E+00  0.00000000000E+00  0.10065807616E+02  0.10065807616E+02  0.00000000000E+00 0. -1.
         -2   -1    0    0    0  501 -0.00000000000E+00 -0.00000000000E+00 -0.27269891969E+03  0.27269891969E+03  0.00000000000E+00 0.  1.
         23    2    1    2    0    0 -0.10526009078E+02 -0.77882930281E+00 -0.24868556552E+03  0.26527365824E+03  0.91728947534E+02 0.  0.
         11    1    3    3    0    0  0.30920550113E+02 -0.14151862024E+01 -0.31480518697E+02  0.44148683205E+02  0.00000000000E+00 0. -1.
        -11    1    3    3    0    0 -0.41446559191E+02  0.63635689960E+00 -0.21720504682E+03  0.22112497503E+03  0.00000000000E+00 0.  1.
         22    1    1    2    0    0  0.10526009078E+02  0.77882930281E+00 -0.13947546557E+02  0.17491069069E+02  0.00000000000E+00 0. -1.
<mgrwt>
<rscale>  0 0.53688868E+02</rscale>
<asrwt>0</asrwt>
<pdfrwt beam="1">  1        2 0.15485859E-02 0.92334193E+02</pdfrwt>
<pdfrwt beam="2">  1       -2 0.41953676E-01 0.92334193E+02</pdfrwt>
<totfact> 0.36847725E+04</totfact>
</mgrwt>
</event>
<event>
 6    1  0.1828142E-002  0.8661826E+02  0.7546771E-02  0.1430523E+00
          1   -1    0    0  501    0  0.00000000000E+00  0.00000000000E+00  0.48715999869E+01  0.48715999869E+01  0.00000000000E+00 0. -1.
         -1   -1    0    0    0  501 -0.00000000000E+00 -0.00000000000E+00 -0.50127254921E+03  0.50127254921E+03  0.00000000000E+00 0.  1.
         23    2    1    2    0    0  0.10374544035E+02  0.60492439551E+01 -0.42447722540E+03  0.43322469662E+03  0.85781690103E+02 0.  0.
         13    1    3    3    0    0  0.16453067549E+02 -0.11647967395E+02 -0.20280444149E+02  0.28595016893E+02  0.00000000000E+00 0. -1.
        -13    1    3    3    0    0 -0.60785235147E+01  0.17697211350E+02 -0.40419678126E+03  0.40462967973E+03  0.00000000000E+00 0.  1.
         22    1    1    2    0    0 -0.10374544035E+02 -0.60492439551E+01 -0.71923723815E+02  0.72919452575E+02  0.00000000000E+00 0.  1.
<mgrwt>
<rscale>  0 0.52855109E+02</rscale>
<asrwt>0</asrwt>
<pdfrwt beam="1">  1        1 0.74947684E-03 0.86618259E+02</pdfrwt>
<pdfrwt beam="2">  1       -1 0.77118863E-01 0.86618259E+02</pdfrwt>
<totfact> 0.37278836E+04</totfact>
</mgrwt>
</event>
<event>
 6    1  0.1828142E-002  0.8938485E+02  0.7546771E-02  0.1422958E+00
          3   -1    0    0  501    0  0.00000000000E+00  0.00000000000E+00  0.14135801257E+02  0.14135801257E+02  0.00000000000E+00 0. -1.
         -3   -1    0    0    0  501 -0.00000000000E+00 -0.00000000000E+00 -0.20579749382E+03  0.20579749382E+03  0.00000000000E+00 0.  1.
         23    2    1    2    0    0 -0.38032242084E+01  0.11658602369E+02 -0.18613011991E+03  0.20648019805E+03  0.88539613309E+02 0.  0.
         11    1    3    3    0    0 -0.30388927783E+01 -0.27488298736E+02 -0.16101499743E+02  0.32001558254E+02  0.00000000000E+00 0. -1.
        -11    1    3    3    0    0 -0.76433143008E+00  0.39146901106E+02 -0.17002862016E+03  0.17447863979E+03  0.00000000000E+00 0.  1.
         22    1    1    2    0    0  0.38032242084E+01 -0.11658602369E+02 -0.55315726516E+01  0.13453097026E+02  0.00000000000E+00 0. -1.
<mgrwt>
<rscale>  0 0.54400062E+02</rscale>
<asrwt>0</asrwt>
<pdfrwt beam="1">  1        3 0.21747388E-02 0.89384846E+02</pdfrwt>
<pdfrwt beam="2">  1       -3 0.31661151E-01 0.89384846E+02</pdfrwt>
<totfact> 0.16606995E+04</totfact>
</mgrwt>
</event>
<event>
 6    1  0.1828142E-002  0.9107311E+02  0.7546771E-02  0.1399870E+00
          2   -1    0    0  501    0  0.00000000000E+00  0.00000000000E+00  0.26446140889E+03  0.26446140889E+03  0.00000000000E+00 0. -1.
         -2   -1    0    0    0  501 -0.00000000000E+00 -0.00000000000E+00 -0.11138880195E+02  0.11138880195E+02  0.00000000000E+00 0.  1.
         23    2    1    2    0    0 -0.14670310097E+02 -0.77914057996E+01  0.20020987834E+03  0.21995069223E+03  0.89545450045E+02 0.  0.
         11    1    3    3    0    0 -0.30492440511E+02 -0.41312253765E+02  0.89288105156E+02  0.10299930564E+03  0.00000000000E+00 0. -1.
        -11    1    3    3    0    0  0.15822130414E+02  0.33520847965E+02  0.11092177318E+03  0.11695138659E+03  0.00000000000E+00 0.  1.
         22    1    1    2    0    0  0.14670310097E+02  0.77914057996E+01  0.53112650358E+02  0.55649596860E+02  0.00000000000E+00 0.  1.
<mgrwt>
<rscale>  0 0.59517039E+02</rscale>
<asrwt>0</asrwt>
<pdfrwt beam="1">  1        2 0.40686366E-01 0.91073111E+02</pdfrwt>
<pdfrwt beam="2">  1       -2 0.17136741E-02 0.91073111E+02</pdfrwt>
<totfact> 0.10423146E+05</totfact>
</mgrwt>
</event>
<event>
 6    1  0.1828142E-002  0.9292345E+02  0.7546771E-02  0.1405604E+00
         -2   -1    0    0    0  501 -0.00000000000E+00  0.00000000000E+00  0.57329863741E+02  0.57329863741E+02  0.00000000000E+00 0.  1.
          2   -1    0    0  501    0  0.00000000000E+00 -0.00000000000E+00 -0.57540178760E+02  0.57540178760E+02  0.00000000000E+00 0. -1.
         23    2    1    2    0    0  0.10902845318E+02 -0.92314157389E+01  0.14860478387E+02  0.94104207905E+02  0.91818718435E+02 0.  0.
         11    1    3    3    0    0  0.36029948181E+01 -0.11604741542E+02  0.53421804447E+02  0.54786319353E+02  0.00000000000E+00 0.  1.
        -11    1    3    3    0    0  0.72998504998E+01  0.23733258027E+01 -0.38561326060E+02  0.39317888552E+02  0.00000000000E+00 0. -1.
         22    1    1    2    0    0 -0.10902845318E+02  0.92314157389E+01 -0.15070793406E+02  0.20765834596E+02  0.00000000000E+00 0. -1.
<mgrwt>
<rscale>  0 0.58186469E+02</rscale>
<asrwt>0</asrwt>
<pdfrwt beam="1">  1        2 0.88523352E-02 0.92923453E+02</pdfrwt>
<pdfrwt beam="2">  1       -2 0.88199790E-02 0.92923453E+02</pdfrwt>
<totfact> 0.52218861E+04</totfact>
</mgrwt>
</event>
<event>
 6    1  0.1828142E-002  0.9640041E+02  0.7546771E-02  0.1344101E+00
          2   -1    0    0  501    0  0.00000000000E+00  0.00000000000E+00  0.15537096321E+03  0.15537096321E+03  0.00000000000E+00 0. -1.
         -2   -1    0    0    0  501 -0.00000000000E+00 -0.00000000000E+00 -0.31455369409E+02  0.31455369409E+02  0.00000000000E+00 0.  1.
         23    2    1    2    0    0  0.13563885423E+02  0.32459120640E+02  0.59086789676E+02  0.11306762232E+03  0.89752242328E+02 0.  0.
         11    1    3    3    0    0  0.18371886943E+01  0.39405630004E+02 -0.11568501362E+02  0.41109721017E+02  0.00000000000E+00 0.  1.
        -11    1    3    3    0    0  0.11726696729E+02 -0.69465093648E+01  0.70655291038E+02  0.71957901305E+02  0.00000000000E+00 0. -1.
         22    1    1    2    0    0 -0.13563885423E+02 -0.32459120640E+02  0.64828804125E+02  0.73758710298E+02  0.00000000000E+00 0.  1.
<mgrwt>
<rscale>  0 0.74925651E+02</rscale>
<asrwt>0</asrwt>
<pdfrwt beam="1">  1        2 0.23903225E-01 0.96400407E+02</pdfrwt>
<pdfrwt beam="2">  1       -2 0.48392877E-02 0.96400407E+02</pdfrwt>
<totfact> 0.40962213E+04</totfact>
</mgrwt>
</event>
<event>
 6    1  0.1828142E-002  0.9476838E+02  0.7546771E-02  0.1416927E+00
         -4   -1    0    0    0  501 -0.00000000000E+00  0.00000000000E+00  0.12025169090E+03  0.12025169090E+03  0.00000000000E+00 0. -1.
          4   -1    0    0  501    0  0.00000000000E+00 -0.00000000000E+00 -0.23548859870E+02  0.23548859870E+02  0.00000000000E+00 0.  1.
         23    2    1    2    0    0  0.97257719442E+01 -0.57335405710E+01  0.82424529249E+02  0.12559796774E+03  0.94093476659E+02 0.  0.
         11    1    3    3    0    0  0.13898954607E+02  0.67593629519E+01  0.10136023128E+03  0.10253178245E+03  0.00000000000E+00 0. -1.
        -11    1    3    3    0    0 -0.41731826629E+01 -0.12492903523E+02 -0.18935702035E+02  0.23066185283E+02  0.00000000000E+00 0.  1.
         22    1    1    2    0    0 -0.97257719442E+01  0.57335405710E+01  0.14278301782E+02  0.18202583035E+02  0.00000000000E+00 0. -1.
<mgrwt>
<rscale>  0 0.55676394E+02</rscale>
<asrwt>0</asrwt>
<pdfrwt beam="1">  1        4 0.36229016E-02 0.94768383E+02</pdfrwt>
<pdfrwt beam="2">  1       -4 0.18500260E-01 0.94768383E+02</pdfrwt>
<totfact> 0.15203883E+04</totfact>
</mgrwt>
</event>
<event>
 6    1  0.1828142E-002  0.1092353E+03  0.7546771E-02  0.1293483E+00
         -2   -1    0    0    0  501 -0.00000000000E+00  0.00000000000E+00  0.52498901915E+02  0.52498901915E+02  0.00000000000E+00 0. -1.
          2   -1    0    0  501    0  0.00000000000E+00 -0.00000000000E+00 -0.13618306030E+03  0.13618306030E+03  0.00000000000E+00 0.  1.
         23    2    1    2    0    0  0.59750022574E+02  0.35620916605E+01 -0.55359310263E+02  0.12246224675E+03  0.91376118066E+02 0.  0.
         13    1    3    3    0    0  0.67174396692E+01  0.20514721127E+02  0.19553139845E+02  0.29125642592E+02  0.00000000000E+00 0. -1.
        -13    1    3    3    0    0  0.53032582905E+02 -0.16952629466E+02 -0.74912450108E+02  0.93336604163E+02  0.00000000000E+00 0.  1.
         22    1    1    2    0    0 -0.59750022574E+02 -0.35620916605E+01 -0.28324848122E+02  0.66219715461E+02  0.00000000000E+00 0. -1.
<mgrwt>
<rscale>  0 0.93983009E+02</rscale>
<asrwt>0</asrwt>
<pdfrwt beam="1">  1        2 0.20951240E-01 0.10923529E+03</pdfrwt>
<pdfrwt beam="2">  1       -2 0.80767542E-02 0.10923529E+03</pdfrwt>
<totfact> 0.22196756E+04</totfact>
</mgrwt>
</event>
<event>
 6    1  0.1828142E-002  0.9965192E+02  0.7546771E-02  0.1332901E+00
          1   -1    0    0  501    0  0.00000000000E+00  0.00000000000E+00  0.18974978500E+02  0.18974978500E+02  0.00000000000E+00 0. -1.
         -1   -1    0    0    0  501 -0.00000000000E+00 -0.00000000000E+00 -0.25835719526E+03  0.25835719526E+03  0.00000000000E+00 0.  1.
         23    2    1    2    0    0  0.23525771868E+02 -0.30708470532E+02 -0.19054613055E+03  0.21503100667E+03  0.91836996130E+02 0.  0.
         11    1    3    3    0    0 -0.84755826370E+01  0.57329690408E+01  0.64880013234E+01  0.12115964519E+02  0.00000000000E+00 0. -1.
        -11    1    3    3    0    0  0.32001354505E+02 -0.36441439573E+02 -0.19703413188E+03  0.20291504216E+03  0.00000000000E+00 0.  1.
         22    1    1    2    0    0 -0.23525771868E+02  0.30708470532E+02 -0.48836086210E+02  0.62301167090E+02  0.00000000000E+00 0. -1.
<mgrwt>
<rscale>  0 0.78658896E+02</rscale>
<asrwt>0</asrwt>
<pdfrwt beam="1">  1        1 0.29192276E-02 0.99651924E+02</pdfrwt>
<pdfrwt beam="2">  1       -1 0.39747259E-01 0.99651924E+02</pdfrwt>
<totfact> 0.19826272E+04</totfact>
</mgrwt>
</event>
<event>
 6    1  0.1828142E-002  0.9843596E+02  0.7546771E-02  0.1413094E+00
         -4   -1    0    0    0  501 -0.00000000000E+00  0.00000000000E+00  0.96584894365E+01  0.96584894365E+01  0.00000000000E+00 0.  1.
          4   -1    0    0  501    0  0.00000000000E+00 -0.00000000000E+00 -0.31203537147E+03  0.31203537147E+03  0.00000000000E+00 0. -1.
         23    2    1    2    0    0  0.84065886712E+01 -0.66047382350E+01 -0.26061752713E+03  0.27858774740E+03  0.97853687975E+02 0.  0.
         11    1    3    3    0    0  0.45156165153E+01 -0.51701262331E+01  0.76556564525E+01  0.10282512995E+02  0.00000000000E+00 0.  1.
        -11    1    3    3    0    0  0.38909721559E+01 -0.14346120019E+01 -0.26827318359E+03  0.26830523440E+03  0.00000000000E+00 0. -1.
         22    1    1    2    0    0 -0.84065886712E+01  0.66047382350E+01 -0.41759354899E+02  0.43106113509E+02  0.00000000000E+00 0.  1.
<mgrwt>
<rscale>  0 0.56509039E+02</rscale>
<asrwt>0</asrwt>
<pdfrwt beam="1">  1        4 0.48005436E-01 0.98435957E+02</pdfrwt>
<pdfrwt beam="2">  1       -4 0.14859216E-02 0.98435957E+02</pdfrwt>
<totfact> 0.10100200E+04</totfact>
</mgrwt>
</event>
<event>
 6    1  0.1828142E-002  0.9226877E+02  0.7546771E-02  0.1412364E+00
         -2   -1    0    0    0  501 -0.00000000000E+00  0.00000000000E+00  0.10185130184E+02  0.10185130184E+02  0.00000000000E+00 0.  1.
          2   -1    0    0  501    0  0.00000000000E+00 -0.00000000000E+00 -0.27402817281E+03  0.27402817281E+03  0.00000000000E+00 0. -1.
         23    2    1    2    0    0 -0.42011583595E+01 -0.12438969857E+02 -0.22385883838E+03  0.24212869427E+03  0.91329882095E+02 0.  0.
         11    1    3    3    0    0  0.30062952832E+02 -0.34866313495E+02 -0.15805088791E+03  0.16461933094E+03  0.00000000000E+00 0. -1.
        -11    1    3    3    0    0 -0.34264111191E+02  0.22427343638E+02 -0.65807950475E+02  0.77509363332E+02  0.00000000000E+00 0.  1.
         22    1    1    2    0    0  0.42011583595E+01  0.12438969857E+02 -0.39984204239E+02  0.42084608722E+02  0.00000000000E+00 0.  1.
<mgrwt>
<rscale>  0 0.56669733E+02</rscale>
<asrwt>0</asrwt>
<pdfrwt beam="1">  1        2 0.42158178E-01 0.92268765E+02</pdfrwt>
<pdfrwt beam="2">  1       -2 0.15669432E-02 0.92268765E+02</pdfrwt>
<totfact> 0.11436033E+05</totfact>
</mgrwt>
</event>
<event>
 6    1  0.1828142E-002  0.1301707E+03  0.7546771E-02  0.1244856E+00
          2   -1    0    0  501    0  0.00000000000E+00  0.00000000000E+00  0.35288886449E+03  0.35288886449E+03  0.00000000000E+00 0. -1.
         -2   -1    0    0    0  501 -0.00000000000E+00 -0.00000000000E+00 -0.34665186625E+02  0.34665186625E+02  0.00000000000E+00 0.  1.
         23    2    1    2    0    0  0.21050762417E+02  0.88258933912E+02  0.19736830430E+03  0.23642895282E+03  0.93336103296E+02 0.  0.
         13    1    3    3    0    0 -0.17827964844E+02 -0.12542737435E+02  0.27140244137E+02  0.34810191679E+02  0.00000000000E+00 0. -1.
        -13    1    3    3    0    0  0.38878727261E+02  0.10080167135E+03  0.17022806016E+03  0.20161876115E+03  0.00000000000E+00 0.  1.
         22    1    1    2    0    0 -0.21050762417E+02 -0.88258933912E+02  0.12085537357E+03  0.15112509830E+03  0.00000000000E+00 0. -1.
<mgrwt>
<rscale>  0 0.11894005E+03</rscale>
<asrwt>0</asrwt>
<pdfrwt beam="1">  1        2 0.54290592E-01 0.13017067E+03</pdfrwt>
<pdfrwt beam="2">  1       -2 0.53331059E-02 0.13017067E+03</pdfrwt>
<totfact> 0.15231759E+04</totfact>
</mgrwt>
</event>
<event>
 6    1  0.1828142E-002  0.9147611E+02  0.7546771E-02  0.1426628E+00
          1   -1    0    0  501    0  0.00000000000E+00  0.00000000000E+00  0.63641436274E+01  0.63641436274E+01  0.00000000000E+00 0. -1.
         -1   -1    0    0    0  501 -0.00000000000E+00 -0.00000000000E+00 -0.41127388551E+03  0.41127388551E+03  0.00000000000E+00 0.  1.
         23    2    1    2    0    0 -0.10672685272E+02 -0.17637188774E+01 -0.36499077814E+03  0.37627934708E+03  0.90834255636E+02 0.  0.
         13    1    3    3    0    0  0.35833214608E+02  0.18972560595E+02 -0.15894969923E+03  0.16403958123E+03  0.00000000000E+00 0. -1.
        -13    1    3    3    0    0 -0.46505899880E+02 -0.20736279473E+02 -0.20604107891E+03  0.21223976585E+03  0.00000000000E+00 0.  1.
         22    1    1    2    0    0  0.10672685272E+02  0.17637188774E+01 -0.39918963743E+02  0.41358682057E+02  0.00000000000E+00 0.  1.
<mgrwt>
<rscale>  0 0.53642851E+02</rscale>
<asrwt>0</asrwt>
<pdfrwt beam="1">  1        1 0.97909867E-03 0.91476111E+02</pdfrwt>
<pdfrwt beam="2">  1       -1 0.63272928E-01 0.91476111E+02</pdfrwt>
<totfact> 0.38180461E+04</totfact>
</mgrwt>
</event>
<event>
 6    1  0.1828142E-002  0.8515171E+02  0.7546771E-02  0.1420784E+00
         -2   -1    0    0    0  501 -0.00000000000E+00  0.00000000000E+00  0.37590283603E+03  0.37590283603E+03  0.00000000000E+00 0.  1.
          2   -1    0    0  501    0  0.00000000000E+00 -0.00000000000E+00 -0.69311868706E+01  0.69311868706E+01  0.00000000000E+00 0. -1.
         23    2    1    2    0    0 -0.13313420589E+02  0.61504218319E+01  0.33807017209E+03  0.34862910890E+03  0.83879314860E+02 0.  0.
         11    1    3    3    0    0  0.12521769924E+02 -0.18964136212E+02  0.27542894286E+03  0.27636485983E+03  0.00000000000E+00 0.  1.
        -11    1    3    3    0    0 -0.25835190513E+02  0.25114558044E+02  0.62641229231E+02  0.72264249074E+02  0.00000000000E+00 0. -1.
         22    1    1    2    0    0  0.13313420589E+02 -0.61504218319E+01  0.30901477072E+02  0.34204914000E+02  0.00000000000E+00 0. -1.
<mgrwt>
<rscale>  0 0.54855320E+02</rscale>
<asrwt>0</asrwt>
<pdfrwt beam="1">  1        2 0.10663367E-02 0.85151714E+02</pdfrwt>
<pdfrwt beam="2">  1       -2 0.57831190E-01 0.85151714E+02</pdfrwt>
<totfact> 0.32297677E+04</totfact>
</mgrwt>
</event>
<event>
 6    1  0.1828142E-002  0.8842882E+02  0.7546771E-02  0.1377331E+00
         -2   -1    0    0    0  501 -0.00000000000E+00  0.00000000000E+00  0.12150351686E+02  0.12150351686E+02  0.00000000000E+00 0. -1.
          2   -1    0    0  501    0  0.00000000000E+00 -0.00000000000E+00 -0.30063669640E+03  0.30063669640E+03  0.00000000000E+00 0.  1.
         23    2    1    2    0    0  0.88544192554E+01  0.24538608306E+02 -0.25761460393E+03  0.27236912610E+03  0.84493269916E+02 0.  0.
         13    1    3    3    0    0 -0.10488867188E+02 -0.16018735600E+02 -0.11821489209E+02  0.22502529463E+02  0.00000000000E+00 0. -1.
        -13    1    3    3    0    0  0.19343286443E+02  0.40557343906E+02 -0.24579311472E+03  0.24986659664E+03  0.00000000000E+00 0.  1.
         22    1    1    2    0    0 -0.88544192554E+01 -0.24538608306E+02 -0.30871740785E+02  0.40417921978E+02  0.00000000000E+00 0. -1.
<mgrwt>
<rscale>  0 0.65170704E+02</rscale>
<asrwt>0</asrwt>
<pdfrwt beam="1">  1        2 0.46251798E-01 0.88428823E+02</pdfrwt>
<pdfrwt beam="2">  1       -2 0.18692849E-02 0.88428823E+02</pdfrwt>
<totfact> 0.80137991E+04</totfact>
</mgrwt>
</event>
<event>
 6    1  0.1828142E-002  0.8727406E+02  0.7546771E-02  0.1414997E+00
          2   -1    0    0  501    0  0.00000000000E+00  0.00000000000E+00  0.41562045599E+02  0.41562045599E+02  0.00000000000E+00 0. -1.
         -2   -1    0    0    0  501 -0.00000000000E+00 -0.00000000000E+00 -0.68796508492E+02  0.68796508492E+02  0.00000000000E+00 0.  1.
         23    2    1    2    0    0 -0.34653183500E+00  0.14889410901E+02 -0.34427532452E+02  0.93819059209E+02  0.85993873263E+02 0.  0.
         13    1    3    3    0    0  0.27828186242E+02  0.13065552568E+01  0.17715475446E+02  0.33014437848E+02  0.00000000000E+00 0. -1.
        -13    1    3    3    0    0 -0.28174718077E+02  0.13582855645E+02 -0.52143007898E+02  0.60804621361E+02  0.00000000000E+00 0.  1.
         22    1    1    2    0    0  0.34653183500E+00 -0.14889410901E+02  0.71930695589E+01  0.16539494883E+02  0.00000000000E+00 0. -1.
<mgrwt>
<rscale>  0 0.56093514E+02</rscale>
<asrwt>0</asrwt>
<pdfrwt beam="1">  1        2 0.63941608E-02 0.87274056E+02</pdfrwt>
<pdfrwt beam="2">  1       -2 0.10584078E-01 0.87274056E+02</pdfrwt>
<totfact> 0.58506391E+04</totfact>
</mgrwt>
</event>
<event>
 6    1  0.1828142E-002  0.9962326E+02  0.7546771E-02  0.1327664E+00
         -2   -1    0    0    0  501 -0.00000000000E+00  0.00000000000E+00  0.15506707625E+02  0.15506707625E+02  0.00000000000E+00 0.  1.
          2   -1    0    0  501    0  0.00000000000E+00 -0.00000000000E+00 -0.37788557678E+03  0.37788557678E+03  0.00000000000E+00 0. -1.
         23    2    1    2    0    0  0.41136033255E+02 -0.10490464811E+02 -0.17599749119E+03  0.20223726581E+03  0.90125311047E+02 0.  0.
         11    1    3    3    0    0 -0.27782883489E+02  0.58700607081E+01 -0.58776753123E+02  0.65276741151E+02  0.00000000000E+00 0. -1.
        -11    1    3    3    0    0  0.68918916744E+02 -0.16360525519E+02 -0.11722073807E+03  0.13696052466E+03  0.00000000000E+00 0.  1.
         22    1    1    2    0    0 -0.41136033255E+02  0.10490464811E+02 -0.18638137796E+03  0.19115501860E+03  0.00000000000E+00 0.  1.
<mgrwt>
<rscale>  0 0.80490874E+02</rscale>
<asrwt>0</asrwt>
<pdfrwt beam="1">  1        2 0.58136246E-01 0.99623264E+02</pdfrwt>
<pdfrwt beam="2">  1       -2 0.23856472E-02 0.99623264E+02</pdfrwt>
<totfact> 0.45097033E+04</totfact>
</mgrwt>
</event>
<event>
 6    1  0.1828142E-002  0.9520020E+02  0.7546771E-02  0.1369061E+00
          2   -1    0    0  501    0  0.00000000000E+00  0.00000000000E+00  0.14321064851E+03  0.14321064851E+03  0.00000000000E+00 0. -1.
         -2   -1    0    0    0  501 -0.00000000000E+00 -0.00000000000E+00 -0.24854331050E+02  0.24854331050E+02  0.00000000000E+00 0.  1.
         23    2    1    2    0    0  0.21344456967E+02 -0.10883811698E+02  0.90949982820E+02  0.13166236456E+03  0.92135962941E+02 0.  0.
         13    1    3    3    0    0  0.24581692772E+02  0.88060097291E+01  0.10438864010E+03  0.10760480291E+03  0.00000000000E+00 0. -1.
        -13    1    3    3    0    0 -0.32372358052E+01 -0.19689821427E+02 -0.13438657278E+02  0.24057561658E+02  0.00000000000E+00 0.  1.
         22    1    1    2    0    0 -0.21344456967E+02  0.10883811698E+02  0.27406334645E+02  0.36402615002E+02  0.00000000000E+00 0. -1.
<mgrwt>
<rscale>  0 0.67428963E+02</rscale>
<asrwt>0</asrwt>
<pdfrwt beam="1">  1        2 0.22032407E-01 0.95200204E+02</pdfrwt>
<pdfrwt beam="2">  1       -2 0.38237433E-02 0.95200204E+02</pdfrwt>
<totfact> 0.63350890E+04</totfact>
</mgrwt>
</event>
<event>
 6    1  0.1828142E-002  0.9486274E+02  0.7546771E-02  0.1377182E+00
          2   -1    0    0  501    0  0.00000000000E+00  0.00000000000E+00  0.10309647222E+03  0.10309647222E+03  0.00000000000E+00 0. -1.
         -2   -1    0    0    0  501 -0.00000000000E+00 -0.00000000000E+00 -0.71418294544E+02  0.71418294544E+02  0.00000000000E+00 0.  1.
         23    2    1    2    0    0 -0.15855690258E+02  0.14046222840E+02 -0.37621067794E+02  0.10205039819E+03  0.92467506399E+02 0.  0.
         13    1    3    3    0    0  0.60557822538E+01  0.47544025468E+02 -0.39310209315E+02  0.61987090695E+02  0.00000000000E+00 0.  1.
        -13    1    3    3    0    0 -0.21911472512E+02 -0.33497802629E+02  0.16891415207E+01  0.40063307498E+02  0.00000000000E+00 0. -1.
         22    1    1    2    0    0  0.15855690258E+02 -0.14046222840E+02  0.69299245474E+02  0.72464368575E+02  0.00000000000E+00 0. -1.
<mgrwt>
<rscale>  0 0.65210295E+02</rscale>
<asrwt>0</asrwt>
<pdfrwt beam="1">  1        2 0.15860996E-01 0.94862738E+02</pdfrwt>
<pdfrwt beam="2">  1       -2 0.10987430E-01 0.94862738E+02</pdfrwt>
<totfact> 0.18585490E+04</totfact>
</mgrwt>
</event>
<event>
 6    1  0.1828142E-002  0.9108142E+02  0.7546771E-02  0.1424542E+00
          1   -1    0    0  501    0  0.00000000000E+00  0.00000000000E+00  0.17658437586E+02  0.17658437586E+02  0.00000000000E+00 0. -1.
         -1   -1    0    0    0  501 -0.00000000000E+00 -0.00000000000E+00 -0.14855442281E+03  0.14855442281E+03  0.00000000000E+00 0.  1.
         23    2    1    2    0    0 -0.11069732689E+02  0.23340651107E+01 -0.11786103387E+03  0.14895317330E+03  0.90376090260E+02 0.  0.
         13    1    3    3    0    0  0.32125230715E+02  0.21790353530E+02 -0.29726278770E+02  0.48892756161E+02  0.00000000000E+00 0.  1.
        -13    1    3    3    0    0 -0.43194963404E+02 -0.19456288419E+02 -0.88134755098E+02  0.10006041714E+03  0.00000000000E+00 0. -1.
         22    1    1    2    0    0  0.11069732689E+02 -0.23340651107E+01 -0.13034951356E+02  0.17259687094E+02  0.00000000000E+00 0.  1.
<mgrwt>
<rscale>  0 0.54071448E+02</rscale>
<asrwt>0</asrwt>
<pdfrwt beam="1">  1        1 0.27166827E-02 0.91081417E+02</pdfrwt>
<pdfrwt beam="2">  1       -1 0.22854527E-01 0.91081417E+02</pdfrwt>
<totfact> 0.54418129E+04</totfact>
</mgrwt>
</event>
<event>
 6    1  0.1828142E-002  0.8932993E+02  0.7546771E-02  0.1425482E+00
          2   -1    0    0  501    0  0.00000000000E+00  0.00000000000E+00  0.13416179051E+02  0.13416179051E+02  0.00000000000E+00 0. -1.
         -2   -1    0    0    0  501 -0.00000000000E+00 -0.00000000000E+00 -0.21055897949E+03  0.21055897949E+03  0.00000000000E+00 0.  1.
         23    2    1    2    0    0  0.10511626561E+02 -0.54069668931E+01 -0.19052693886E+03  0.21042897057E+03  0.88544382329E+02 0.  0.
         13    1    3    3    0    0  0.16901735665E+02 -0.48069162480E+01  0.20982995714E+01  0.17696835123E+02  0.00000000000E+00 0. -1.
        -13    1    3    3    0    0 -0.63901091038E+01 -0.60005064510E+00 -0.19262523843E+03  0.19273213545E+03  0.00000000000E+00 0.  1.
         22    1    1    2    0    0 -0.10511626561E+02  0.54069668931E+01 -0.66158615777E+01  0.13546187964E+02  0.00000000000E+00 0. -1.
<mgrwt>
<rscale>  0 0.53877670E+02</rscale>
<asrwt>0</asrwt>
<pdfrwt beam="1">  1        2 0.20640276E-02 0.89329935E+02</pdfrwt>
<pdfrwt beam="2">  1       -2 0.32393688E-01 0.89329935E+02</pdfrwt>
<totfact> 0.40094961E+04</totfact>
</mgrwt>
</event>
<event>
 6    1  0.1828142E-002  0.9345733E+02  0.7546771E-02  0.1382959E+00
         -2   -1    0    0    0  501 -0.00000000000E+00  0.00000000000E+00  0.82542597178E+02  0.82542597178E+02  0.00000000000E+00 0.  1.
          2   -1    0    0  501    0  0.00000000000E+00 -0.00000000000E+00 -0.56068338379E+02  0.56068338379E+02  0.00000000000E+00 0. -1.
         23    2    1    2    0    0  0.16060910043E+02 -0.12186389975E+02  0.51314920307E+02  0.10661844587E+03  0.91256840960E+02 0.  0.
         13    1    3    3    0    0 -0.33956513150E+02 -0.23415216231E+02  0.30465686962E+02  0.51278408892E+02  0.00000000000E+00 0. -1.
        -13    1    3    3    0    0  0.50017423193E+02  0.11228826255E+02  0.20849233345E+02  0.55340036980E+02  0.00000000000E+00 0.  1.
         22    1    1    2    0    0 -0.16060910043E+02  0.12186389975E+02 -0.24840661508E+02  0.31992489684E+02  0.00000000000E+00 0. -1.
<mgrwt>
<rscale>  0 0.63692364E+02</rscale>
<asrwt>0</asrwt>
<pdfrwt beam="1">  1        2 0.86258982E-02 0.93457327E+02</pdfrwt>
<pdfrwt beam="2">  1       -2 0.12698861E-01 0.93457327E+02</pdfrwt>
<totfact> 0.30505148E+04</totfact>
</mgrwt>
</event>
<event>
 6    1  0.1828142E-002  0.9309177E+02  0.7546771E-02  0.1412988E+00
         -1   -1    0    0    0  501 -0.00000000000E+00  0.00000000000E+00  0.18207712237E+02  0.18207712237E+02  0.00000000000E+00 0.  1.
          1   -1    0    0  501    0  0.00000000000E+00 -0.00000000000E+00 -0.17618338387E+03  0.17618338387E+03  0.00000000000E+00 0. -1.
         23    2    1    2    0    0 -0.11412666819E+02  0.54812121007E+01 -0.10681948364E+03  0.14169149250E+03  0.92226809077E+02 0.  0.
         11    1    3    3    0    0 -0.37830532995E+02 -0.25168291237E+02 -0.28779903465E+02  0.53785452995E+02  0.00000000000E+00 0.  1.
        -11    1    3    3    0    0  0.26417866176E+02  0.30649503337E+02 -0.78039580172E+02  0.87906039505E+02  0.00000000000E+00 0. -1.
         22    1    1    2    0    0  0.11412666819E+02 -0.54812121007E+01 -0.51156187994E+02  0.52699603605E+02  0.00000000000E+00 0. -1.
<mgrwt>
<rscale>  0 0.56532430E+02</rscale>
<asrwt>0</asrwt>
<pdfrwt beam="1">  1        1 0.27105136E-01 0.93091766E+02</pdfrwt>
<pdfrwt beam="2">  1       -1 0.28011865E-02 0.93091766E+02</pdfrwt>
<totfact> 0.62277952E+04</totfact>
</mgrwt>
</event>
<event>
 6    1  0.1828142E-002  0.1161870E+03  0.7546771E-02  0.1273673E+00
          2   -1    0    0  501    0  0.00000000000E+00  0.00000000000E+00  0.24677578687E+03  0.24677578687E+03  0.00000000000E+00 0. -1.
         -2   -1    0    0    0  501 -0.00000000000E+00 -0.00000000000E+00 -0.63134331624E+02  0.63134331624E+02  0.00000000000E+00 0.  1.
         23    2    1    2    0    0 -0.70278007476E+02  0.17254239899E+02  0.40166608475E+01  0.11625637107E+03  0.90899412100E+02 0.  0.
         13    1    3    3    0    0  0.82273384358E+01  0.18532854511E+02  0.27625076347E+02  0.34268070229E+02  0.00000000000E+00 0. -1.
        -13    1    3    3    0    0 -0.78505345912E+02 -0.12786146114E+01 -0.23608415499E+02  0.81988300839E+02  0.00000000000E+00 0.  1.
         22    1    1    2    0    0  0.70278007476E+02 -0.17254239899E+02  0.17962479439E+03  0.19365374742E+03  0.00000000000E+00 0. -1.
<mgrwt>
<rscale>  0 0.10321679E+03</rscale>
<asrwt>0</asrwt>
<pdfrwt beam="1">  1        2 0.37965505E-01 0.11618696E+03</pdfrwt>
<pdfrwt beam="2">  1       -2 0.97129742E-02 0.11618696E+03</pdfrwt>
<totfact> 0.87996919E+03</totfact>
</mgrwt>
</event>
<event>
 6    1  0.1828142E-002  0.9279697E+02  0.7546771E-02  0.1375392E+00
          2   -1    0    0  501    0  0.00000000000E+00  0.00000000000E+00  0.86406891532E+02  0.86406891532E+02  0.00000000000E+00 0. -1.
         -2   -1    0    0    0  501 -0.00000000000E+00 -0.00000000000E+00 -0.59811790357E+02  0.59811790357E+02  0.00000000000E+00 0.  1.
         23    2    1    2    0    0  0.10008781117E+02 -0.21044333335E+02 -0.19266776882E+02  0.94775980522E+02  0.89823371833E+02 0.  0.
         13    1    3    3    0    0  0.31225467945E+02 -0.43293735795E+01 -0.46656863539E+02  0.56308402919E+02  0.00000000000E+00 0. -1.
        -13    1    3    3    0    0 -0.21216686827E+02 -0.16714959756E+02  0.27390086657E+02  0.38467577603E+02  0.00000000000E+00 0.  1.
         22    1    1    2    0    0 -0.10008781117E+02  0.21044333335E+02  0.45861878057E+02  0.51442701367E+02  0.00000000000E+00 0.  1.
<mgrwt>
<rscale>  0 0.65690761E+02</rscale>
<asrwt>0</asrwt>
<pdfrwt beam="1">  1        2 0.13293368E-01 0.92796971E+02</pdfrwt>
<pdfrwt beam="2">  1       -2 0.92018139E-02 0.92796971E+02</pdfrwt>
<totfact> 0.30002386E+04</totfact>
</mgrwt>
</event>
<event>
 6    1  0.1828142E-002  0.9502524E+02  0.7546771E-02  0.1364455E+00
         -1   -1    0    0    0  501 -0.00000000000E+00  0.00000000000E+00  0.24748010456E+03  0.24748010456E+03  0.00000000000E+00 0.  1.
          1   -1    0    0  501    0  0.00000000000E+00 -0.00000000000E+00 -0.69222980184E+02  0.69222980184E+02  0.00000000000E+00 0. -1.
         23    2    1    2    0    0  0.25843794264E+02  0.29388706599E+01  0.23543416787E+03  0.25388785596E+03  0.91396156045E+02 0.  0.
         11    1    3    3    0    0 -0.25665692241E+02  0.14253049857E+02  0.15466051752E+03  0.15742221211E+03  0.00000000000E+00 0. -1.
        -11    1    3    3    0    0  0.51509486505E+02 -0.11314179197E+02  0.80773650358E+02  0.96465643848E+02  0.00000000000E+00 0.  1.
         22    1    1    2    0    0 -0.25843794264E+02 -0.29388706599E+01 -0.57177043502E+02  0.62815228777E+02  0.00000000000E+00 0. -1.
<mgrwt>
<rscale>  0 0.68733080E+02</rscale>
<asrwt>0</asrwt>
<pdfrwt beam="1">  1        1 0.10649689E-01 0.95025239E+02</pdfrwt>
<pdfrwt beam="2">  1       -1 0.38073862E-01 0.95025239E+02</pdfrwt>
<totfact> 0.37270111E+03</totfact>
</mgrwt>
</event>
<event>
 6    1  0.1828142E-002  0.9306922E+02  0.7546771E-02  0.1379489E+00
         -2   -1    0    0    0  501 -0.00000000000E+00  0.00000000000E+00  0.60224303501E+01  0.60224303501E+01  0.00000000000E+00 0.  1.
          2   -1    0    0  501    0  0.00000000000E+00 -0.00000000000E+00 -0.58209223809E+03  0.58209223809E+03  0.00000000000E+00 0. -1.
         23    2    1    2    0    0  0.21511394341E+02 -0.19610227292E+01 -0.51488526133E+03  0.52322911985E+03  0.90527862151E+02 0.  0.
         11    1    3    3    0    0 -0.36566035533E+01  0.36077493973E+02 -0.35846866922E+03  0.36029813090E+03  0.00000000000E+00 0. -1.
        -11    1    3    3    0    0  0.25167997894E+02 -0.38038516702E+02 -0.15641659211E+03  0.16293098895E+03  0.00000000000E+00 0.  1.
         22    1    1    2    0    0 -0.21511394341E+02  0.19610227292E+01 -0.61184546402E+02  0.64885548585E+02  0.00000000000E+00 0.  1.
<mgrwt>
<rscale>  0 0.64598284E+02</rscale>
<asrwt>0</asrwt>
<pdfrwt beam="1">  1        2 0.89552699E-01 0.93069219E+02</pdfrwt>
<pdfrwt beam="2">  1       -2 0.92652726E-03 0.93069219E+02</pdfrwt>
<totfact> 0.10849092E+05</totfact>
</mgrwt>
</event>
<event>
 6    1  0.1828142E-002  0.9763932E+02  0.7546771E-02  0.1345212E+00
          2   -1    0    0  501    0  0.00000000000E+00  0.00000000000E+00  0.74008032981E+03  0.74008032981E+03  0.00000000000E+00 0. -1.
         -2   -1    0    0    0  501 -0.00000000000E+00 -0.00000000000E+00 -0.58858747932E+01  0.58858747932E+01  0.00000000000E+00 0.  1.
         23    2    1    2    0    0  0.32265640508E+02 -0.78902147838E+01  0.58748451453E+03  0.59554302260E+03  0.91815629970E+02 0.  0.
         11    1    3    3    0    0  0.48012445493E+02  0.16190237521E+02  0.51605518340E+03  0.51853666315E+03  0.00000000000E+00 0. -1.
        -11    1    3    3    0    0 -0.15746804986E+02 -0.24080452304E+02  0.71429331136E+02  0.77006359458E+02  0.00000000000E+00 0.  1.
         22    1    1    2    0    0 -0.32265640508E+02  0.78902147838E+01  0.14670994048E+03  0.15042318200E+03  0.00000000000E+00 0. -1.
<mgrwt>
<rscale>  0 0.74568704E+02</rscale>
<asrwt>0</asrwt>
<pdfrwt beam="1">  1        2 0.11385844E+00 0.97639321E+02</pdfrwt>
<pdfrwt beam="2">  1       -2 0.90551979E-03 0.97639321E+02</pdfrwt>
<totfact> 0.85605671E+04</totfact>
</mgrwt>
</event>
<event>
 6    1  0.1828142E-002  0.1037088E+03  0.7546771E-02  0.1338148E+00
         -2   -1    0    0    0  501 -0.00000000000E+00  0.00000000000E+00  0.25223028435E+02  0.25223028435E+02  0.00000000000E+00 0.  1.
          2   -1    0    0  501    0  0.00000000000E+00 -0.00000000000E+00 -0.20700277205E+03  0.20700277205E+03  0.00000000000E+00 0. -1.
         23    2    1    2    0    0 -0.13156898344E+02 -0.28420324152E+02 -0.97613095934E+02  0.14242132743E+03  0.98867078495E+02 0.  0.
         13    1    3    3    0    0  0.41801633053E+02 -0.26512947582E+01 -0.50327027152E+02  0.65476832176E+02  0.00000000000E+00 0. -1.
        -13    1    3    3    0    0 -0.54958531397E+02 -0.25769029394E+02 -0.47286068782E+02  0.76944495255E+02  0.00000000000E+00 0.  1.
         22    1    1    2    0    0  0.13156898344E+02  0.28420324152E+02 -0.84166647681E+02  0.89804473055E+02  0.00000000000E+00 0. -1.
<mgrwt>
<rscale>  0 0.76879464E+02</rscale>
<asrwt>0</asrwt>
<pdfrwt beam="1">  1        2 0.31846579E-01 0.10370881E+03</pdfrwt>
<pdfrwt beam="2">  1       -2 0.38804660E-02 0.10370881E+03</pdfrwt>
<totfact> 0.42018617E+04</totfact>
</mgrwt>
</event>
<event>
 6    1  0.1828142E-002  0.9388917E+02  0.7546771E-02  0.1375193E+00
         -1   -1    0    0    0  501 -0.00000000000E+00  0.00000000000E+00  0.23605927875E+02  0.23605927875E+02  0.00000000000E+00 0.  1.
          1   -1    0    0  501    0  0.00000000000E+00 -0.00000000000E+00 -0.17147705289E+03  0.17147705289E+03  0.00000000000E+00 0. -1.
         23    2    1    2    0    0  0.22484820683E+02 -0.19949056712E+01 -0.79316521426E+02  0.12290763537E+03  0.91135226182E+02 0.  0.
         13    1    3    3    0    0  0.76577744184E+01 -0.10284379251E+02 -0.97316607916E+02  0.98157690182E+02  0.00000000000E+00 0. -1.
        -13    1    3    3    0    0  0.14827046265E+02  0.82894735794E+01  0.18000086490E+02  0.24749945188E+02  0.00000000000E+00 0.  1.
         22    1    1    2    0    0 -0.22484820683E+02  0.19949056712E+01 -0.68554603586E+02  0.72175345393E+02  0.00000000000E+00 0. -1.
<mgrwt>
<rscale>  0 0.65744532E+02</rscale>
<asrwt>0</asrwt>
<pdfrwt beam="1">  1        1 0.26381085E-01 0.93889170E+02</pdfrwt>
<pdfrwt beam="2">  1       -1 0.36316812E-02 0.93889170E+02</pdfrwt>
<totfact> 0.44314516E+04</totfact>
</mgrwt>
</event>
<event>
 6    1  0.1828142E-002  0.9309308E+02  0.7546771E-02  0.1406806E+00
          4   -1    0    0  501    0  0.00000000000E+00  0.00000000000E+00  0.53155603905E+02  0.53155603905E+02  0.00000000000E+00 0. -1.
         -4   -1    0    0    0  501 -0.00000000000E+00 -0.00000000000E+00 -0.54938542245E+02  0.54938542245E+02  0.00000000000E+00 0.  1.
         23    2    1    2    0    0  0.26549112684E+01 -0.13687366057E+02 -0.66407317989E+01  0.93329638006E+02  0.92043084847E+02 0.  0.
         13    1    3    3    0    0  0.35213738270E+02  0.24075556745E+02 -0.82275194249E+01  0.43443433007E+02  0.00000000000E+00 0.  1.
        -13    1    3    3    0    0 -0.32558827001E+02 -0.37762922803E+02  0.15867876259E+01  0.49886205000E+02  0.00000000000E+00 0. -1.
         22    1    1    2    0    0 -0.26549112684E+01  0.13687366057E+02  0.48577934594E+01  0.14764508143E+02  0.00000000000E+00 0. -1.
<mgrwt>
<rscale>  0 0.57912593E+02</rscale>
<asrwt>0</asrwt>
<pdfrwt beam="1">  1        4 0.81777852E-02 0.93093083E+02</pdfrwt>
<pdfrwt beam="2">  1       -4 0.84520834E-02 0.93093083E+02</pdfrwt>
<totfact> 0.15579626E+04</totfact>
</mgrwt>
</event>
<event>
 6    1  0.1828142E-002  0.1084555E+03  0.7546771E-02  0.1395672E+00
          2   -1    0    0  501    0  0.00000000000E+00  0.00000000000E+00  0.15205484730E+02  0.15205484730E+02  0.00000000000E+00 0. -1.
         -2   -1    0    0    0  501 -0.00000000000E+00 -0.00000000000E+00 -0.27479140253E+03  0.27479140253E+03  0.00000000000E+00 0.  1.
         23    2    1    2    0    0  0.10077786001E+02  0.29977109097E+01 -0.25731881450E+03  0.27924106099E+03  0.10794466085E+03 0.  0.
         13    1    3    3    0    0  0.42697741349E+02 -0.36097052978E+02 -0.15856993125E+03  0.16813838779E+03  0.00000000000E+00 0. -1.
        -13    1    3    3    0    0 -0.32619955348E+02  0.39094763888E+02 -0.98748883247E+02  0.11110267320E+03  0.00000000000E+00 0.  1.
         22    1    1    2    0    0 -0.10077786001E+02 -0.29977109097E+01 -0.22671033000E+01  0.10755826270E+02  0.00000000000E+00 0.  1.
<mgrwt>
<rscale>  0 0.60517726E+02</rscale>
<asrwt>0</asrwt>
<pdfrwt beam="1">  1        2 0.23393054E-02 0.10845551E+03</pdfrwt>
<pdfrwt beam="2">  1       -2 0.42275599E-01 0.10845551E+03</pdfrwt>
<totfact> 0.21234191E+04</totfact>
</mgrwt>
</event>
<event>
 6    1  0.1828142E-002  0.8753954E+02  0.7546771E-02  0.1417802E+00
          2   -1    0    0  501    0  0.00000000000E+00  0.00000000000E+00  0.87316121624E+02  0.87316121624E+02  0.00000000000E+00 0. -1.
         -2   -1    0    0    0  501 -0.00000000000E+00 -0.00000000000E+00 -0.31060094800E+02  0.31060094800E+02  0.00000000000E+00 0.  1.
         23    2    1    2    0    0 -0.13461912686E+02 -0.42998330967E+01  0.38365896411E+02  0.95577786128E+02  0.86391316322E+02 0.  0.
         11    1    3    3    0    0 -0.16876786031E+02  0.34964484285E+02 -0.23697447787E+01  0.38896744830E+02  0.00000000000E+00 0.  1.
        -11    1    3    3    0    0  0.34148733452E+01 -0.39264317382E+02  0.40735641190E+02  0.56681041298E+02  0.00000000000E+00 0. -1.
         22    1    1    2    0    0  0.13461912686E+02  0.42998330967E+01  0.17890130413E+02  0.22798430297E+02  0.00000000000E+00 0.  1.
<mgrwt>
<rscale>  0 0.55488582E+02</rscale>
<asrwt>0</asrwt>
<pdfrwt beam="1">  1        2 0.13433249E-01 0.87539541E+02</pdfrwt>
<pdfrwt beam="2">  1       -2 0.47784762E-02 0.87539541E+02</pdfrwt>
<totfact> 0.79092452E+04</totfact>
</mgrwt>
</event>
<event>
 6    1  0.1828142E-002  0.9320232E+02  0.7546771E-02  0.1380098E+00
          4   -1    0    0  501    0  0.00000000000E+00  0.00000000000E+00  0.44494229886E+02  0.44494229886E+02  0.00000000000E+00 0. -1.
         -4   -1    0    0    0  501 -0.00000000000E+00 -0.00000000000E+00 -0.74560445639E+02  0.74560445639E+02  0.00000000000E+00 0.  1.
         23    2    1    2    0    0  0.77222680939E+00  0.21281494786E+02 -0.19248957328E+02  0.95169294339E+02  0.90736838561E+02 0.  0.
         13    1    3    3    0    0 -0.42858386290E+02  0.24321758500E+02 -0.71864139158E+01  0.49799937318E+02  0.00000000000E+00 0. -1.
        -13    1    3    3    0    0  0.43630613099E+02 -0.30402637145E+01 -0.12062543412E+02  0.45369357020E+02  0.00000000000E+00 0.  1.
         22    1    1    2    0    0 -0.77222680939E+00 -0.21281494786E+02 -0.10817258426E+02  0.23885381186E+02  0.00000000000E+00 0.  1.
<mgrwt>
<rscale>  0 0.64437993E+02</rscale>
<asrwt>0</asrwt>
<pdfrwt beam="1">  1        4 0.68452662E-02 0.93202319E+02</pdfrwt>
<pdfrwt beam="2">  1       -4 0.11470838E-01 0.93202319E+02</pdfrwt>
<totfact> 0.12521389E+04</totfact>
</mgrwt>
</event>
<event>
 6    1  0.1828142E-002  0.9606860E+02  0.7546771E-02  0.1359687E+00
         -1   -1    0    0    0  501 -0.00000000000E+00  0.00000000000E+00  0.55532713623E+01  0.55532713623E+01  0.00000000000E+00 0.  1.
          1   -1    0    0  501    0  0.00000000000E+00 -0.00000000000E+00 -0.68631917556E+03  0.68631917556E+03  0.00000000000E+00 0. -1.
         23    2    1    2    0    0  0.13062292436E+02 -0.23932838938E+02 -0.54340728805E+03  0.55183390332E+03  0.92118249482E+02 0.  0.
         11    1    3    3    0    0 -0.12202062088E+02  0.11296546366E+02 -0.17490567317E+02  0.24133425452E+02  0.00000000000E+00 0.  1.
        -11    1    3    3    0    0  0.25264354525E+02 -0.35229385304E+02 -0.52591672073E+03  0.52770047787E+03  0.00000000000E+00 0. -1.
         22    1    1    2    0    0 -0.13062292436E+02  0.23932838938E+02 -0.13735861615E+03  0.14003854360E+03  0.00000000000E+00 0.  1.
<mgrwt>
<rscale>  0 0.70119568E+02</rscale>
<asrwt>0</asrwt>
<pdfrwt beam="1">  1        1 0.10558748E+00 0.96068601E+02</pdfrwt>
<pdfrwt beam="2">  1       -1 0.85435016E-03 0.96068601E+02</pdfrwt>
<totfact> 0.61136075E+04</totfact>
</mgrwt>
</event>
<event>
 6    1  0.1828142E-002  0.9071097E+02  0.7546771E-02  0.1419023E+00
          1   -1    0    0  501    0  0.00000000000E+00  0.00000000000E+00  0.66917391303E+02  0.66917391303E+02  0.00000000000E+00 0. -1.
         -1   -1    0    0    0  501 -0.00000000000E+00 -0.00000000000E+00 -0.46986474109E+02  0.46986474109E+02  0.00000000000E+00 0.  1.
         23    2    1    2    0    0 -0.98375040330E+01  0.76537443010E+01  0.37283633935E+00  0.90711737132E+02  0.89850564601E+02 0.  0.
         11    1    3    3    0    0 -0.10208951050E+02 -0.36027164342E+02  0.20416887754E+02  0.42650071015E+02  0.00000000000E+00 0. -1.
        -11    1    3    3    0    0  0.37144701650E+00  0.43680908643E+02 -0.20044051414E+02  0.48061666116E+02  0.00000000000E+00 0.  1.
         22    1    1    2    0    0  0.98375040330E+01 -0.76537443010E+01  0.19558080855E+02  0.23192128280E+02  0.00000000000E+00 0. -1.
<mgrwt>
<rscale>  0 0.55228210E+02</rscale>
<asrwt>0</asrwt>
<pdfrwt beam="1">  1        1 0.10294983E-01 0.90710971E+02</pdfrwt>
<pdfrwt beam="2">  1       -1 0.72286883E-02 0.90710971E+02</pdfrwt>
<totfact> 0.53217028E+04</totfact>
</mgrwt>
</event>
<event>
 6    1  0.1828142E-002  0.9698110E+02  0.7546771E-02  0.1340352E+00
         -2   -1    0    0    0  501 -0.00000000000E+00  0.00000000000E+00  0.29308551413E+03  0.29308551413E+03  0.00000000000E+00 0.  1.
          2   -1    0    0  501    0  0.00000000000E+00 -0.00000000000E+00 -0.18079577748E+02  0.18079577748E+02  0.00000000000E+00 0. -1.
         23    2    1    2    0    0 -0.36855585594E+02  0.68917396677E+00  0.24545782101E+03  0.26392210010E+03  0.89702418452E+02 0.  0.
         13    1    3    3    0    0 -0.24521516869E+02  0.14857575294E+02  0.24333421580E+03  0.24501753593E+03  0.00000000000E+00 0.  1.
        -13    1    3    3    0    0 -0.12334068726E+02 -0.14168401327E+02  0.21236052114E+01  0.18904564174E+02  0.00000000000E+00 0. -1.
         22    1    1    2    0    0  0.36855585594E+02 -0.68917396677E+00  0.29548115374E+02  0.47242991781E+02  0.00000000000E+00 0. -1.
<mgrwt>
<rscale>  0 0.76148285E+02</rscale>
<asrwt>0</asrwt>
<pdfrwt beam="1">  1        2 0.27814737E-02 0.96981096E+02</pdfrwt>
<pdfrwt beam="2">  1       -2 0.45090076E-01 0.96981096E+02</pdfrwt>
<totfact> 0.14676623E+04</totfact>
</mgrwt>
</event>
<event>
 6    1  0.1828142E-002  0.1021676E+03  0.7546771E-02  0.1312839E+00
         -2   -1    0    0    0  501 -0.00000000000E+00  0.00000000000E+00  0.13018845839E+02  0.13018845839E+02  0.00000000000E+00 0.  1.
          2   -1    0    0  501    0  0.00000000000E+00 -0.00000000000E+00 -0.66318137238E+03  0.66318137238E+03  0.00000000000E+00 0. -1.
         23    2    1    2    0    0 -0.49961133561E+02 -0.11606577956E+02 -0.58197648294E+03  0.59087634078E+03  0.88359469704E+02 0.  0.
         13    1    3    3    0    0 -0.72033662572E+02 -0.98689131218E+01 -0.32926519315E+03  0.33719699199E+03  0.00000000000E+00 0. -1.
        -13    1    3    3    0    0  0.22072529010E+02 -0.17376648340E+01 -0.25271128979E+03  0.25367934879E+03  0.00000000000E+00 0.  1.
         22    1    1    2    0    0  0.49961133561E+02  0.11606577956E+02 -0.68186043606E+02  0.85323877439E+02  0.00000000000E+00 0.  1.
<mgrwt>
<rscale>  0 0.85999617E+02</rscale>
<asrwt>0</asrwt>
<pdfrwt beam="1">  1        2 0.10202791E+00 0.10216762E+03</pdfrwt>
<pdfrwt beam="2">  1       -2 0.20028993E-02 0.10216762E+03</pdfrwt>
<totfact> 0.31513832E+04</totfact>
</mgrwt>
</event>
<event>
 6    1  0.1828142E-002  0.9372095E+02  0.7546771E-02  0.1384036E+00
         -1   -1    0    0    0  501 -0.00000000000E+00  0.00000000000E+00  0.15151397227E+03  0.15151397227E+03  0.00000000000E+00 0.  1.
          1   -1    0    0  501    0  0.00000000000E+00 -0.00000000000E+00 -0.21769756407E+02  0.21769756407E+02  0.00000000000E+00 0. -1.
         23    2    1    2    0    0 -0.16699383874E+02 -0.10346767365E+02  0.11682159130E+03  0.14976949379E+03  0.91638922185E+02 0.  0.
         11    1    3    3    0    0  0.14924873957E+02 -0.43990827897E+02  0.47177362152E+02  0.66209125514E+02  0.00000000000E+00 0. -1.
        -11    1    3    3    0    0 -0.31624257832E+02  0.33644060533E+02  0.69644229150E+02  0.83560368276E+02  0.00000000000E+00 0.  1.
         22    1    1    2    0    0  0.16699383874E+02  0.10346767365E+02  0.12922624558E+02  0.23514234883E+02  0.00000000000E+00 0. -1.
<mgrwt>
<rscale>  0 0.63414765E+02</rscale>
<asrwt>0</asrwt>
<pdfrwt beam="1">  1        1 0.33491934E-02 0.93720953E+02</pdfrwt>
<pdfrwt beam="2">  1       -1 0.23309841E-01 0.93720953E+02</pdfrwt>
<totfact> 0.39736725E+04</totfact>
</mgrwt>
</event>
<event>
 6    1  0.1828142E-002  0.9262387E+02  0.7546771E-02  0.1390507E+00
          3   -1    0    0  501    0  0.00000000000E+00  0.00000000000E+00  0.13625753668E+03  0.13625753668E+03  0.00000000000E+00 0. -1.
         -3   -1    0    0    0  501 -0.00000000000E+00 -0.00000000000E+00 -0.26168677022E+02  0.26168677022E+02  0.00000000000E+00 0.  1.
         23    2    1    2    0    0  0.15765912449E+02  0.93568533679E+01  0.63337981430E+02  0.11220909197E+03  0.90791330688E+02 0.  0.
         11    1    3    3    0    0  0.33450615682E+02 -0.32395006455E+02  0.25125759483E+02  0.52912039484E+02  0.00000000000E+00 0. -1.
        -11    1    3    3    0    0 -0.17684703233E+02  0.41751859823E+02  0.38212221947E+02  0.59297052483E+02  0.00000000000E+00 0.  1.
         22    1    1    2    0    0 -0.15765912449E+02 -0.93568533679E+01  0.46750878229E+02  0.50217121736E+02  0.00000000000E+00 0. -1.
<mgrwt>
<rscale>  0 0.61780741E+02</rscale>
<asrwt>0</asrwt>
<pdfrwt beam="1">  1        3 0.20962698E-01 0.92623865E+02</pdfrwt>
<pdfrwt beam="2">  1       -3 0.40259504E-02 0.92623865E+02</pdfrwt>
<totfact> 0.13694197E+04</totfact>
</mgrwt>
</event>
<event>
 6    1  0.1828142E-002  0.1000358E+03  0.7546771E-02  0.1395779E+00
          2   -1    0    0  501    0  0.00000000000E+00  0.00000000000E+00  0.49174728580E+02  0.49174728580E+02  0.00000000000E+00 0. -1.
         -2   -1    0    0    0  501 -0.00000000000E+00 -0.00000000000E+00 -0.80695024137E+02  0.80695024137E+02  0.00000000000E+00 0.  1.
         23    2    1    2    0    0 -0.69138432396E+01  0.11450376942E+02 -0.46045304424E+02  0.11012416478E+03  0.99137526943E+02 0.  0.
         11    1    3    3    0    0  0.10442856690E+02  0.44844842056E+02  0.54235287444E+01  0.46363000107E+02  0.00000000000E+00 0. -1.
        -11    1    3    3    0    0 -0.17356699929E+02 -0.33394465114E+02 -0.51468833168E+02  0.63761164672E+02  0.00000000000E+00 0.  1.
         22    1    1    2    0    0  0.69138432396E+01 -0.11450376942E+02  0.14525008866E+02  0.19745587938E+02  0.00000000000E+00 0.  1.
<mgrwt>
<rscale>  0 0.60491818E+02</rscale>
<asrwt>0</asrwt>
<pdfrwt beam="1">  1        2 0.75653430E-02 0.10003580E+03</pdfrwt>
<pdfrwt beam="2">  1       -2 0.12414619E-01 0.10003580E+03</pdfrwt>
<totfact> 0.37538710E+04</totfact>
</mgrwt>
</event>
<event>
 6    1  0.1828142E-002  0.1075479E+03  0.7546771E-02  0.1305960E+00
          2   -1    0    0  501    0  0.00000000000E+00  0.00000000000E+00  0.21518088959E+02  0.21518088959E+02  0.00000000000E+00 0. -1.
         -2   -1    0    0    0  501 -0.00000000000E+00 -0.00000000000E+00 -0.29799867690E+03  0.29799867690E+03  0.00000000000E+00 0.  1.
         23    2    1    2    0    0  0.98953996985E+01 -0.48832482232E+02 -0.15954660492E+03  0.19241017028E+03  0.95310147558E+02 0.  0.
         11    1    3    3    0    0 -0.40571238585E+02 -0.38634343075E+02 -0.85679998255E+02  0.10237040571E+03  0.00000000000E+00 0. -1.
        -11    1    3    3    0    0  0.50466638283E+02 -0.10198139157E+02 -0.73866606669E+02  0.90039764564E+02  0.00000000000E+00 0.  1.
         22    1    1    2    0    0 -0.98953996985E+01  0.48832482232E+02 -0.11693398302E+03  0.12710659558E+03  0.00000000000E+00 0. -1.
<mgrwt>
<rscale>  0 0.88728537E+02</rscale>
<asrwt>0</asrwt>
<pdfrwt beam="1">  1        2 0.33104752E-02 0.10754792E+03</pdfrwt>
<pdfrwt beam="2">  1       -2 0.45845951E-01 0.10754792E+03</pdfrwt>
<totfact> 0.11404885E+04</totfact>
</mgrwt>
</event>
<event>
 6    1  0.1828142E-002  0.9054376E+02  0.7546771E-02  0.1370318E+00
         -2   -1    0    0    0  501 -0.00000000000E+00  0.00000000000E+00  0.19780427121E+02  0.19780427121E+02  0.00000000000E+00 0.  1.
          2   -1    0    0  501    0  0.00000000000E+00 -0.00000000000E+00 -0.23516223373E+03  0.23516223373E+03  0.00000000000E+00 0. -1.
         23    2    1    2    0    0  0.10533395883E+02 -0.25159049881E+02 -0.93925112340E+02  0.13046110076E+03  0.86337951468E+02 0.  0.
         11    1    3    3    0    0  0.60860195741E+01 -0.25560197937E+02  0.87465819144E+01  0.27692346380E+02  0.00000000000E+00 0.  1.
        -11    1    3    3    0    0  0.44473763094E+01  0.40114805624E+00 -0.10267169425E+03  0.10276875438E+03  0.00000000000E+00 0. -1.
         22    1    1    2    0    0 -0.10533395883E+02  0.25159049881E+02 -0.12145669427E+03  0.12448156009E+03  0.00000000000E+00 0. -1.
<mgrwt>
<rscale>  0 0.67078820E+02</rscale>
<asrwt>0</asrwt>
<pdfrwt beam="1">  1        2 0.36178806E-01 0.90543758E+02</pdfrwt>
<pdfrwt beam="2">  1       -2 0.30431426E-02 0.90543758E+02</pdfrwt>
<totfact> 0.51480600E+04</totfact>
</mgrwt>
</event>
<event>
 6    1  0.1828142E-002  0.9228589E+02  0.7546771E-02  0.1420722E+00
         -2   -1    0    0    0  501 -0.00000000000E+00  0.00000000000E+00  0.19135366779E+03  0.19135366779E+03  0.00000000000E+00 0.  1.
          2   -1    0    0  501    0  0.00000000000E+00 -0.00000000000E+00 -0.32348301520E+02  0.32348301520E+02  0.00000000000E+00 0. -1.
         23    2    1    2    0    0  0.11331533870E+02 -0.21383789447E+01  0.17856115444E+03  0.20099943255E+03  0.91562599827E+02 0.  0.
         13    1    3    3    0    0 -0.29218127802E+02 -0.30807964275E+02  0.76335745898E+02  0.87349732437E+02  0.00000000000E+00 0. -1.
        -13    1    3    3    0    0  0.40549661672E+02  0.28669585330E+02  0.10222540854E+03  0.11364970012E+03  0.00000000000E+00 0.  1.
         22    1    1    2    0    0 -0.11331533870E+02  0.21383789447E+01 -0.19555788169E+02  0.22702536759E+02  0.00000000000E+00 0. -1.
<mgrwt>
<rscale>  0 0.54868524E+02</rscale>
<asrwt>0</asrwt>
<pdfrwt beam="1">  1        2 0.49766619E-02 0.92285893E+02</pdfrwt>
<pdfrwt beam="2">  1       -2 0.29439025E-01 0.92285893E+02</pdfrwt>
<totfact> 0.14929716E+04</totfact>
</mgrwt>
</event>
<event>
 6    1  0.1828142E-002  0.9146223E+02  0.7546771E-02  0.1404817E+00
         -2   -1    0    0    0  501 -0.00000000000E+00  0.00000000000E+00  0.52648006319E+03  0.52648006319E+03  0.00000000000E+00 0.  1.
          2   -1    0    0  501    0  0.00000000000E+00 -0.00000000000E+00 -0.55311547395E+01  0.55311547395E+01  0.00000000000E+00 0. -1.
         23    2    1    2    0    0  0.65262824185E+01 -0.13692409155E+02  0.47146673838E+03  0.48025641539E+03  0.90195702209E+02 0.  0.
         13    1    3    3    0    0 -0.18270390493E+01  0.15623220541E+02  0.42103076351E+03  0.42132449123E+03  0.00000000000E+00 0.  1.
        -13    1    3    3    0    0  0.83533214678E+01 -0.29315629696E+02  0.50435974869E+02  0.58931924159E+02  0.00000000000E+00 0. -1.
         22    1    1    2    0    0 -0.65262824185E+01  0.13692409155E+02  0.49482170072E+02  0.51754802537E+02  0.00000000000E+00 0.  1.
<mgrwt>
<rscale>  0 0.58366665E+02</rscale>
<asrwt>0</asrwt>
<pdfrwt beam="1">  1        2 0.85094730E-03 0.91462228E+02</pdfrwt>
<pdfrwt beam="2">  1       -2 0.80996893E-01 0.91462228E+02</pdfrwt>
<totfact> 0.21935943E+04</totfact>
</mgrwt>
</event>
<event>
 6    1  0.1828142E-002  0.9295496E+02  0.7546771E-02  0.1379140E+00
         -2   -1    0    0    0  501 -0.00000000000E+00  0.00000000000E+00  0.20527366028E+02  0.20527366028E+02  0.00000000000E+00 0.  1.
          2   -1    0    0  501    0  0.00000000000E+00 -0.00000000000E+00 -0.17057749791E+03  0.17057749791E+03  0.00000000000E+00 0. -1.
         23    2    1    2    0    0 -0.86524789307E+01 -0.20013959028E+02 -0.10010441385E+03  0.13660716952E+03  0.90361502550E+02 0.  0.
         13    1    3    3    0    0  0.36285512033E+02 -0.28574027670E+02 -0.60393312030E+02  0.76029373132E+02  0.00000000000E+00 0. -1.
        -13    1    3    3    0    0 -0.44937990964E+02  0.85600686424E+01 -0.39711101823E+02  0.60577796386E+02  0.00000000000E+00 0.  1.
         22    1    1    2    0    0  0.86524789307E+01  0.20013959028E+02 -0.49945718024E+02  0.54497694415E+02  0.00000000000E+00 0.  1.
<mgrwt>
<rscale>  0 0.64690360E+02</rscale>
<asrwt>0</asrwt>
<pdfrwt beam="1">  1        2 0.26242692E-01 0.92954963E+02</pdfrwt>
<pdfrwt beam="2">  1       -2 0.31580563E-02 0.92954963E+02</pdfrwt>
<totfact> 0.68974792E+04</totfact>
</mgrwt>
</event>
<event>
 6    1  0.1828142E-002  0.9316978E+02  0.7546771E-02  0.1364410E+00
         -2   -1    0    0    0  501 -0.00000000000E+00  0.00000000000E+00  0.79410130247E+02  0.79410130247E+02  0.00000000000E+00 0.  1.
          2   -1    0    0  501    0  0.00000000000E+00 -0.00000000000E+00 -0.10803015621E+03  0.10803015621E+03  0.00000000000E+00 0. -1.
         23    2    1    2    0    0  0.18188443727E+02 -0.20780449002E+02  0.48846969760E+02  0.10519807119E+03  0.88982926345E+02 0.  0.
         11    1    3    3    0    0 -0.71799755760E+01  0.19089543362E+02 -0.15319609117E+02  0.25507903452E+02  0.00000000000E+00 0. -1.
        -11    1    3    3    0    0  0.25368419303E+02 -0.39869992364E+02  0.64166578876E+02  0.79690167736E+02  0.00000000000E+00 0.  1.
         22    1    1    2    0    0 -0.18188443727E+02  0.20780449002E+02 -0.77466995725E+02  0.82242215271E+02  0.00000000000E+00 0. -1.
<mgrwt>
<rscale>  0 0.68745886E+02</rscale>
<asrwt>0</asrwt>
<pdfrwt beam="1">  1        2 0.16620024E-01 0.93169779E+02</pdfrwt>
<pdfrwt beam="2">  1       -2 0.12216943E-01 0.93169779E+02</pdfrwt>
<totfact> 0.14874380E+04</totfact>
</mgrwt>
</event>
<event>
 6    1  0.1828142E-002  0.8393875E+02  0.7546771E-02  0.1401390E+00
         -2   -1    0    0    0  501 -0.00000000000E+00  0.00000000000E+00  0.91798969371E+02  0.91798969371E+02  0.00000000000E+00 0.  1.
          2   -1    0    0  501    0  0.00000000000E+00 -0.00000000000E+00 -0.32281613228E+02  0.32281613228E+02  0.00000000000E+00 0. -1.
         23    2    1    2    0    0 -0.20635752422E+02  0.17821074368E+01  0.60300693116E+02  0.10335321418E+03  0.81343119594E+02 0.  0.
         13    1    3    3    0    0 -0.39101375673E+02 -0.28393195262E+02  0.30936736902E+02  0.57377459049E+02  0.00000000000E+00 0. -1.
        -13    1    3    3    0    0  0.18465623252E+02  0.30175302698E+02  0.29363956214E+02  0.45975755128E+02  0.00000000000E+00 0.  1.
         22    1    1    2    0    0  0.20635752422E+02 -0.17821074368E+01 -0.78333697340E+00  0.20727368423E+02  0.00000000000E+00 0. -1.
<mgrwt>
<rscale>  0 0.59160293E+02</rscale>
<asrwt>0</asrwt>
<pdfrwt beam="1">  1        2 0.49664021E-02 0.83938747E+02</pdfrwt>
<pdfrwt beam="2">  1       -2 0.14122918E-01 0.83938747E+02</pdfrwt>
<totfact> 0.50879634E+04</totfact>
</mgrwt>
</event>
<event>
 6    1  0.1828142E-002  0.9166254E+02  0.7546771E-02  0.1428287E+00
         -3   -1    0    0    0  501 -0.00000000000E+00  0.00000000000E+00  0.85613043861E+01  0.85613043861E+01  0.00000000000E+00 0.  1.
          3   -1    0    0  501    0  0.00000000000E+00 -0.00000000000E+00 -0.30492012643E+03  0.30492012643E+03  0.00000000000E+00 0. -1.
         23    2    1    2    0    0  0.92366253733E+01  0.49589196014E+01 -0.26317868778E+03  0.27868448494E+03  0.91061047203E+02 0.  0.
         13    1    3    3    0    0  0.21815778586E+02  0.34155999798E+02 -0.56260898698E+02  0.69338656173E+02  0.00000000000E+00 0.  1.
        -13    1    3    3    0    0 -0.12579153213E+02 -0.29197080197E+02 -0.20691778908E+03  0.20934582877E+03  0.00000000000E+00 0. -1.
         22    1    1    2    0    0 -0.92366253733E+01 -0.49589196014E+01 -0.33180134264E+02  0.34796945867E+02  0.00000000000E+00 0. -1.
<mgrwt>
<rscale>  0 0.53305453E+02</rscale>
<asrwt>0</asrwt>
<pdfrwt beam="1">  1        3 0.46910791E-01 0.91662536E+02</pdfrwt>
<pdfrwt beam="2">  1       -3 0.13171237E-02 0.91662536E+02</pdfrwt>
<totfact> 0.16827248E+04</totfact>
</mgrwt>
</event>
<event>
 6    1  0.1828142E-002  0.8539062E+02  0.7546771E-02  0.1404045E+00
         -2   -1    0    0    0  501 -0.00000000000E+00  0.00000000000E+00  0.35131267163E+02  0.35131267163E+02  0.00000000000E+00 0. -1.
          2   -1    0    0  501    0  0.00000000000E+00 -0.00000000000E+00 -0.79306258241E+02  0.79306258241E+02  0.00000000000E+00 0.  1.
         23    2    1    2    0    0 -0.17554734294E+02 -0.69135023201E+01 -0.28855955879E+02  0.90134479301E+02  0.83280207485E+02 0.  0.
         11    1    3    3    0    0  0.75037719012E+01 -0.41484983450E+02 -0.93028608679E+01  0.43172371546E+02  0.00000000000E+00 0.  1.
        -11    1    3    3    0    0 -0.25058506195E+02  0.34571481130E+02 -0.19553095011E+02  0.46962107755E+02  0.00000000000E+00 0. -1.
         22    1    1    2    0    0  0.17554734294E+02  0.69135023201E+01 -0.15319035199E+02  0.24303046103E+02  0.00000000000E+00 0.  1.
<mgrwt>
<rscale>  0 0.58544159E+02</rscale>
<asrwt>0</asrwt>
<pdfrwt beam="1">  1        2 0.12200963E-01 0.85390621E+02</pdfrwt>
<pdfrwt beam="2">  1       -2 0.54048104E-02 0.85390621E+02</pdfrwt>
<totfact> 0.73488905E+04</totfact>
</mgrwt>
</event>
<event>
 6    1  0.1828142E-002  0.9177889E+02  0.7546771E-02  0.1397799E+00
         -2   -1    0    0    0  501 -0.00000000000E+00  0.00000000000E+00  0.28398672108E+02  0.28398672108E+02  0.00000000000E+00 0.  1.
          2   -1    0    0  501    0  0.00000000000E+00 -0.00000000000E+00 -0.15895778211E+03  0.15895778211E+03  0.00000000000E+00 0. -1.
         23    2    1    2    0    0 -0.16521184883E+01 -0.16691251433E+02 -0.48901129671E+02  0.10399367402E+03  0.90233233257E+02 0.  0.
         11    1    3    3    0    0  0.10467302124E+02  0.19869912980E+02  0.16654548877E+02  0.27959825713E+02  0.00000000000E+00 0.  1.
        -11    1    3    3    0    0 -0.12119420612E+02 -0.36561164413E+02 -0.65555678548E+02  0.76033848312E+02  0.00000000000E+00 0. -1.
         22    1    1    2    0    0  0.16521184883E+01  0.16691251433E+02 -0.81657980332E+02  0.83362780194E+02  0.00000000000E+00 0.  1.
<mgrwt>
<rscale>  0 0.60007921E+02</rscale>
<asrwt>0</asrwt>
<pdfrwt beam="1">  1        2 0.24455043E-01 0.91778885E+02</pdfrwt>
<pdfrwt beam="2">  1       -2 0.43690265E-02 0.91778885E+02</pdfrwt>
<totfact> 0.46190870E+04</totfact>
</mgrwt>
</event>
<event>
 6    1  0.1828142E-002  0.9499184E+02  0.7546771E-02  0.1375492E+00
          2   -1    0    0  501    0  0.00000000000E+00  0.00000000000E+00  0.27403755244E+03  0.27403755244E+03  0.00000000000E+00 0.  1.
         -2   -1    0    0    0  501 -0.00000000000E+00 -0.00000000000E+00 -0.12437581951E+02  0.12437581951E+02  0.00000000000E+00 0. -1.
         23    2    1    2    0    0 -0.13017887623E+02 -0.17347900732E+02  0.20869291106E+03  0.22929496304E+03  0.92482613999E+02 0.  0.
         11    1    3    3    0    0  0.61160589790E+01 -0.24480781620E+02  0.64778041013E+01  0.26051425914E+02  0.00000000000E+00 0. -1.
        -11    1    3    3    0    0 -0.19133946602E+02  0.71328808884E+01  0.20221510696E+03  0.20324353713E+03  0.00000000000E+00 0.  1.
         22    1    1    2    0    0  0.13017887623E+02  0.17347900732E+02  0.52907059434E+02  0.57180171353E+02  0.00000000000E+00 0. -1.
<mgrwt>
<rscale>  0 0.65663626E+02</rscale>
<asrwt>0</asrwt>
<pdfrwt beam="1">  1        2 0.42159619E-01 0.94991836E+02</pdfrwt>
<pdfrwt beam="2">  1       -2 0.19134743E-02 0.94991836E+02</pdfrwt>
<totfact> 0.86266212E+04</totfact>
</mgrwt>
</event>
<event>
 6    1  0.1828142E-002  0.9393322E+02  0.7546771E-02  0.1391294E+00
          1   -1    0    0  501    0  0.00000000000E+00  0.00000000000E+00  0.24176786498E+02  0.24176786498E+02  0.00000000000E+00 0. -1.
         -1   -1    0    0    0  501 -0.00000000000E+00 -0.00000000000E+00 -0.19978310646E+03  0.19978310646E+03  0.00000000000E+00 0.  1.
         23    2    1    2    0    0  0.15702027741E+02  0.73964780615E+01 -0.18252296957E+03  0.20527563208E+03  0.92315703663E+02 0.  0.
         13    1    3    3    0    0  0.65961728751E+01 -0.26287326432E+02 -0.16310928407E+03  0.16534561251E+03  0.00000000000E+00 0.  1.
        -13    1    3    3    0    0  0.91058548658E+01  0.33683804494E+02 -0.19413685501E+02  0.39930019569E+02  0.00000000000E+00 0. -1.
         22    1    1    2    0    0 -0.15702027741E+02 -0.73964780615E+01  0.69166496042E+01  0.18684260880E+02  0.00000000000E+00 0. -1.
<mgrwt>
<rscale>  0 0.61586056E+02</rscale>
<asrwt>0</asrwt>
<pdfrwt beam="1">  1        1 0.37195056E-02 0.93933225E+02</pdfrwt>
<pdfrwt beam="2">  1       -1 0.30735862E-01 0.93933225E+02</pdfrwt>
<totfact> 0.21883275E+04</totfact>
</mgrwt>
</event>
<event>
 6    1  0.1828142E-002  0.9400453E+02  0.7546771E-02  0.1387632E+00
          3   -1    0    0  501    0  0.00000000000E+00  0.00000000000E+00  0.93042793134E+01  0.93042793134E+01  0.00000000000E+00 0. -1.
         -3   -1    0    0    0  501 -0.00000000000E+00 -0.00000000000E+00 -0.42547264420E+03  0.42547264420E+03  0.00000000000E+00 0.  1.
         23    2    1    2    0    0 -0.15458153403E+02 -0.99212580897E+01 -0.39796463369E+03  0.40891649625E+03  0.92192545087E+02 0.  0.
         13    1    3    3    0    0 -0.49378407662E+02 -0.24545301588E+02 -0.27709788251E+03  0.28253129997E+03  0.00000000000E+00 0.  1.
        -13    1    3    3    0    0  0.33920254260E+02  0.14624043498E+02 -0.12086675118E+03  0.12638519628E+03  0.00000000000E+00 0. -1.
         22    1    1    2    0    0  0.15458153403E+02  0.99212580897E+01 -0.18203731196E+02  0.25860427262E+02  0.00000000000E+00 0.  1.
<mgrwt>
<rscale>  0 0.62499629E+02</rscale>
<asrwt>0</asrwt>
<pdfrwt beam="1">  1        3 0.14314278E-02 0.94004528E+02</pdfrwt>
<pdfrwt beam="2">  1       -3 0.65457319E-01 0.94004528E+02</pdfrwt>
<totfact> 0.76396465E+03</totfact>
</mgrwt>
</event>
<event>
 6    1  0.1828142E-002  0.8589943E+02  0.7546771E-02  0.1440041E+00
          2   -1    0    0  501    0  0.00000000000E+00  0.00000000000E+00  0.27878729841E+03  0.27878729841E+03  0.00000000000E+00 0. -1.
         -2   -1    0    0    0  501 -0.00000000000E+00 -0.00000000000E+00 -0.84704684634E+01  0.84704684634E+01  0.00000000000E+00 0.  1.
         23    2    1    2    0    0  0.30754489292E+01  0.10217650459E+02  0.22885611177E+03  0.24444597039E+03  0.85234111569E+02 0.  0.
         13    1    3    3    0    0  0.27942578732E+02 -0.66733719520E+01  0.20231558215E+03  0.20434509140E+03  0.00000000000E+00 0. -1.
        -13    1    3    3    0    0 -0.24867129803E+02  0.16891022411E+02  0.26540529628E+02  0.40100878988E+02  0.00000000000E+00 0.  1.
         22    1    1    2    0    0 -0.30754489292E+01 -0.10217650459E+02  0.41460718174E+02  0.42811796488E+02  0.00000000000E+00 0. -1.
<mgrwt>
<rscale>  0 0.50996284E+02</rscale>
<asrwt>0</asrwt>
<pdfrwt beam="1">  1        2 0.42890347E-01 0.85899433E+02</pdfrwt>
<pdfrwt beam="2">  1       -2 0.13031492E-02 0.85899433E+02</pdfrwt>
<totfact> 0.14438805E+05</totfact>
</mgrwt>
</event>
<event>
 6    1  0.1828142E-002  0.9297987E+02  0.7546771E-02  0.1417027E+00
          2   -1    0    0  501    0  0.00000000000E+00  0.00000000000E+00  0.17708941089E+02  0.17708941089E+02  0.00000000000E+00 0. -1.
         -2   -1    0    0    0  501 -0.00000000000E+00 -0.00000000000E+00 -0.16251123533E+03  0.16251123533E+03  0.00000000000E+00 0.  1.
         23    2    1    2    0    0 -0.82070090733E+01 -0.86664126998E+01 -0.13823834968E+03  0.16659860987E+03  0.92210594734E+02 0.  0.
         13    1    3    3    0    0 -0.50161812804E+02 -0.93103875621E+01 -0.76337477121E+02  0.91816671654E+02  0.00000000000E+00 0.  1.
        -13    1    3    3    0    0  0.41954803731E+02  0.64397486234E+00 -0.61900872563E+02  0.74781938219E+02  0.00000000000E+00 0. -1.
         22    1    1    2    0    0  0.82070090733E+01  0.86664126998E+01 -0.65639445578E+01  0.13621566546E+02  0.00000000000E+00 0. -1.
<mgrwt>
<rscale>  0 0.55654970E+02</rscale>
<asrwt>0</asrwt>
<pdfrwt beam="1">  1        2 0.27244524E-02 0.92979866E+02</pdfrwt>
<pdfrwt beam="2">  1       -2 0.25001729E-01 0.92979866E+02</pdfrwt>
<totfact> 0.43932432E+04</totfact>
</mgrwt>
</event>
<event>
 6    1  0.1828142E-002  0.8220015E+02  0.7546771E-02  0.1372513E+00
         -2   -1    0    0    0  501 -0.00000000000E+00  0.00000000000E+00  0.26448438695E+03  0.26448438695E+03  0.00000000000E+00 0.  1.
          2   -1    0    0  501    0  0.00000000000E+00 -0.00000000000E+00 -0.15036182982E+02  0.15036182982E+02  0.00000000000E+00 0. -1.
         23    2    1    2    0    0  0.29965172063E+02  0.18381846574E+02  0.21552292464E+03  0.23066641557E+03  0.74303838460E+02 0.  0.
         13    1    3    3    0    0  0.29426373852E+02 -0.19495590262E+02  0.52245246036E+02  0.63052004339E+02  0.00000000000E+00 0.  1.
        -13    1    3    3    0    0  0.53879821102E+00  0.37877436836E+02  0.16327767860E+03  0.16761441123E+03  0.00000000000E+00 0. -1.
         22    1    1    2    0    0 -0.29965172063E+02 -0.18381846574E+02  0.33925279334E+02  0.48854154359E+02  0.00000000000E+00 0. -1.
<mgrwt>
<rscale>  0 0.66473438E+02</rscale>
<asrwt>0</asrwt>
<pdfrwt beam="1">  1        2 0.23132591E-02 0.82200147E+02</pdfrwt>
<pdfrwt beam="2">  1       -2 0.40689902E-01 0.82200147E+02</pdfrwt>
<totfact> 0.22344493E+04</totfact>
</mgrwt>
</event>
<event>
 6    1  0.1828142E-002  0.9200792E+02  0.7546771E-02  0.1412079E+00
          1   -1    0    0  501    0  0.00000000000E+00  0.00000000000E+00  0.46172450616E+02  0.46172450616E+02  0.00000000000E+00 0. -1.
         -1   -1    0    0    0  501 -0.00000000000E+00 -0.00000000000E+00 -0.60260549944E+02  0.60260549944E+02  0.00000000000E+00 0.  1.
         23    2    1    2    0    0 -0.13296237448E+02  0.31673384998E+00 -0.10172338662E+02  0.92568534029E+02  0.91041566154E+02 0.  0.
         11    1    3    3    0    0  0.26688417131E+02 -0.18672675352E+02 -0.29800043888E+02  0.44147287907E+02  0.00000000000E+00 0.  1.
        -11    1    3    3    0    0 -0.39984654578E+02  0.18989409202E+02  0.19627705226E+02  0.48421246122E+02  0.00000000000E+00 0. -1.
         22    1    1    2    0    0  0.13296237448E+02 -0.31673384998E+00 -0.39157606652E+01  0.13864466531E+02  0.00000000000E+00 0. -1.
<mgrwt>
<rscale>  0 0.56732496E+02</rscale>
<asrwt>0</asrwt>
<pdfrwt beam="1">  1        1 0.71034540E-02 0.92007918E+02</pdfrwt>
<pdfrwt beam="2">  1       -1 0.92708537E-02 0.92007918E+02</pdfrwt>
<totfact> 0.60016840E+04</totfact>
</mgrwt>
</event>
<event>
 6    1  0.1828142E-002  0.9113404E+02  0.7546771E-02  0.1405642E+00
          1   -1    0    0  501    0  0.00000000000E+00  0.00000000000E+00  0.22871429304E+03  0.22871429304E+03  0.00000000000E+00 0. -1.
         -1   -1    0    0    0  501 -0.00000000000E+00 -0.00000000000E+00 -0.15766914427E+02  0.15766914427E+02  0.00000000000E+00 0.  1.
         23    2    1    2    0    0  0.15099450762E+02  0.10396088413E+01  0.12198732874E+03  0.15227055259E+03  0.89868451714E+02 0.  0.
         11    1    3    3    0    0 -0.20513982157E+02 -0.34181962922E+02  0.42103813557E+02  0.57982421208E+02  0.00000000000E+00 0. -1.
        -11    1    3    3    0    0  0.35613432918E+02  0.35221571763E+02  0.79883515184E+02  0.94288131384E+02  0.00000000000E+00 0.  1.
         22    1    1    2    0    0 -0.15099450762E+02 -0.10396088413E+01  0.90960049876E+02  0.92210654879E+02  0.00000000000E+00 0. -1.
<mgrwt>
<rscale>  0 0.58177825E+02</rscale>
<asrwt>0</asrwt>
<pdfrwt beam="1">  1        1 0.35186812E-01 0.91134038E+02</pdfrwt>
<pdfrwt beam="2">  1       -1 0.24256793E-02 0.91134038E+02</pdfrwt>
<totfact> 0.55421933E+04</totfact>
</mgrwt>
</event>
<event>
 6    1  0.1828142E-002  0.1169990E+03  0.7546771E-02  0.1271818E+00
         -2   -1    0    0    0  501 -0.00000000000E+00  0.00000000000E+00  0.23443525605E+02  0.23443525605E+02  0.00000000000E+00 0.  1.
          2   -1    0    0  501    0  0.00000000000E+00 -0.00000000000E+00 -0.43500196739E+03  0.43500196739E+03  0.00000000000E+00 0. -1.
         23    2    1    2    0    0  0.72441584424E+02 -0.12106248137E+02 -0.32214971733E+03  0.34273782511E+03  0.91073772246E+02 0.  0.
         13    1    3    3    0    0  0.38725864203E+01 -0.37150892770E+01 -0.21613924509E+03  0.21620585580E+03  0.00000000000E+00 0. -1.
        -13    1    3    3    0    0  0.68568998004E+02 -0.83911588599E+01 -0.10601047224E+03  0.12653196931E+03  0.00000000000E+00 0.  1.
         22    1    1    2    0    0 -0.72441584424E+02  0.12106248137E+02 -0.89408724462E+02  0.11570766789E+03  0.00000000000E+00 0.  1.
<mgrwt>
<rscale>  0 0.10414276E+03</rscale>
<asrwt>0</asrwt>
<pdfrwt beam="1">  1        2 0.66923379E-01 0.11699904E+03</pdfrwt>
<pdfrwt beam="2">  1       -2 0.36066963E-02 0.11699904E+03</pdfrwt>
<totfact> 0.21614657E+04</totfact>
</mgrwt>
</event>
<event>
 6    1  0.1828142E-002  0.9104039E+02  0.7546771E-02  0.1425404E+00
          2   -1    0    0  501    0  0.00000000000E+00  0.00000000000E+00  0.36062824264E+02  0.36062824264E+02  0.00000000000E+00 0.  1.
         -2   -1    0    0    0  501 -0.00000000000E+00 -0.00000000000E+00 -0.95999914487E+02  0.95999914487E+02  0.00000000000E+00 0. -1.
         23    2    1    2    0    0  0.92601596831E+01 -0.62648245489E+01 -0.71662484222E+02  0.11586139781E+03  0.90351277094E+02 0.  0.
         13    1    3    3    0    0  0.36888373555E+02  0.26020156180E+02 -0.52524733806E+02  0.69257839213E+02  0.00000000000E+00 0.  1.
        -13    1    3    3    0    0 -0.27628213872E+02 -0.32284980729E+02 -0.19137750416E+02  0.46603558592E+02  0.00000000000E+00 0. -1.
         22    1    1    2    0    0 -0.92601596831E+01  0.62648245489E+01  0.11725393999E+02  0.16201340945E+02  0.00000000000E+00 0.  1.
<mgrwt>
<rscale>  0 0.53893787E+02</rscale>
<asrwt>0</asrwt>
<pdfrwt beam="1">  1        2 0.55481267E-02 0.91040386E+02</pdfrwt>
<pdfrwt beam="2">  1       -2 0.14769218E-01 0.91040386E+02</pdfrwt>
<totfact> 0.41557539E+04</totfact>
</mgrwt>
</event>
<event>
 6    1  0.1828142E-002  0.9316123E+02  0.7546771E-02  0.1400699E+00
         -3   -1    0    0    0  501 -0.00000000000E+00  0.00000000000E+00  0.10983688914E+03  0.10983688914E+03  0.00000000000E+00 0.  1.
          3   -1    0    0  501    0  0.00000000000E+00 -0.00000000000E+00 -0.72442443923E+02  0.72442443923E+02  0.00000000000E+00 0. -1.
         23    2    1    2    0    0  0.43861013922E+01  0.14675098673E+02  0.88762081501E+02  0.12867681014E+03  0.91893514187E+02 0.  0.
         13    1    3    3    0    0  0.17656320386E+02 -0.14309155963E+02 -0.10050308733E+02  0.24849674033E+02  0.00000000000E+00 0. -1.
        -13    1    3    3    0    0 -0.13270218994E+02  0.28984254636E+02  0.98812390234E+02  0.10382713611E+03  0.00000000000E+00 0.  1.
         22    1    1    2    0    0 -0.43861013922E+01 -0.14675098673E+02 -0.51367636282E+02  0.53602522922E+02  0.00000000000E+00 0. -1.
<mgrwt>
<rscale>  0 0.59322108E+02</rscale>
<asrwt>0</asrwt>
<pdfrwt beam="1">  1        3 0.11144991E-01 0.93161228E+02</pdfrwt>
<pdfrwt beam="2">  1       -3 0.16897983E-01 0.93161228E+02</pdfrwt>
<totfact> 0.39211769E+03</totfact>
</mgrwt>
</event>
<event>
 6    1  0.1828142E-002  0.9102302E+02  0.7546771E-02  0.1426926E+00
          2   -1    0    0  501    0  0.00000000000E+00  0.00000000000E+00  0.79868084523E+01  0.79868084523E+01  0.00000000000E+00 0. -1.
         -2   -1    0    0    0  501 -0.00000000000E+00 -0.00000000000E+00 -0.33070481575E+03  0.33070481575E+03  0.00000000000E+00 0.  1.
         23    2    1    2    0    0  0.67385117050E+01 -0.86058014909E+01 -0.27258289559E+03  0.28737888909E+03  0.90364393232E+02 0.  0.
         11    1    3    3    0    0  0.40200729074E+02 -0.30341946372E+02 -0.13348421334E+03  0.14267013541E+03  0.00000000000E+00 0.  1.
        -11    1    3    3    0    0 -0.33462217369E+02  0.21736144882E+02 -0.13909868225E+03  0.14470875367E+03  0.00000000000E+00 0. -1.
         22    1    1    2    0    0 -0.67385117050E+01  0.86058014909E+01 -0.50135111709E+02  0.51312735119E+02  0.00000000000E+00 0. -1.
<mgrwt>
<rscale>  0 0.53582084E+02</rscale>
<asrwt>0</asrwt>
<pdfrwt beam="1">  1        2 0.12287394E-02 0.91023024E+02</pdfrwt>
<pdfrwt beam="2">  1       -2 0.50877680E-01 0.91023024E+02</pdfrwt>
<totfact> 0.34718305E+04</totfact>
</mgrwt>
</event>
<event>
 6    1  0.1828142E-002  0.9237340E+02  0.7546771E-02  0.1410643E+00
          1   -1    0    0  501    0  0.00000000000E+00  0.00000000000E+00  0.25186890309E+02  0.25186890309E+02  0.00000000000E+00 0. -1.
         -1   -1    0    0    0  501 -0.00000000000E+00 -0.00000000000E+00 -0.15608191920E+03  0.15608191920E+03  0.00000000000E+00 0.  1.
         23    2    1    2    0    0 -0.13351219318E+02  0.15426493791E+01 -0.13800273585E+03  0.16606504936E+03  0.91390429980E+02 0.  0.
         11    1    3    3    0    0  0.33169762541E+02 -0.13710984963E+02 -0.27543350741E+02  0.45242241608E+02  0.00000000000E+00 0. -1.
        -11    1    3    3    0    0 -0.46520981859E+02  0.15253634343E+02 -0.11045938511E+03  0.12082280775E+03  0.00000000000E+00 0.  1.
         22    1    1    2    0    0  0.13351219318E+02 -0.15426493791E+01  0.71077069615E+01  0.15203760148E+02  0.00000000000E+00 0. -1.
<mgrwt>
<rscale>  0 0.57050623E+02</rscale>
<asrwt>0</asrwt>
<pdfrwt beam="1">  1        1 0.38749062E-02 0.92373403E+02</pdfrwt>
<pdfrwt beam="2">  1       -1 0.24012603E-01 0.92373403E+02</pdfrwt>
<totfact> 0.30981807E+04</totfact>
</mgrwt>
</event>
<event>
 6    1  0.1828142E-002  0.9662470E+02  0.7546771E-02  0.1347659E+00
          2   -1    0    0  501    0  0.00000000000E+00  0.00000000000E+00  0.49625203312E+03  0.49625203312E+03  0.00000000000E+00 0. -1.
         -2   -1    0    0    0  501 -0.00000000000E+00 -0.00000000000E+00 -0.91401200131E+01  0.91401200131E+01  0.00000000000E+00 0.  1.
         23    2    1    2    0    0 -0.17918862997E+01 -0.32815954837E+02  0.29309541677E+03  0.30861182231E+03  0.90863831027E+02 0.  0.
         13    1    3    3    0    0  0.96771375778E+01 -0.36634067666E+02  0.29405478115E+03  0.29648594608E+03  0.00000000000E+00 0. -1.
        -13    1    3    3    0    0 -0.11469023878E+02  0.38181128295E+01 -0.95936438150E+00  0.12125876228E+02  0.00000000000E+00 0.  1.
         22    1    1    2    0    0  0.17918862997E+01  0.32815954837E+02  0.19401649634E+03  0.19678033083E+03  0.00000000000E+00 0. -1.
<mgrwt>
<rscale>  0 0.73790256E+02</rscale>
<asrwt>0</asrwt>
<pdfrwt beam="1">  1        2 0.76346446E-01 0.96624705E+02</pdfrwt>
<pdfrwt beam="2">  1       -2 0.14061727E-02 0.96624705E+02</pdfrwt>
<totfact> 0.71812934E+04</totfact>
</mgrwt>
</event>
<event>
 6    1  0.1828142E-002  0.9413198E+02  0.7546771E-02  0.1424254E+00
          1   -1    0    0  501    0  0.00000000000E+00  0.00000000000E+00  0.41888420746E+01  0.41888420746E+01  0.00000000000E+00 0.  1.
         -1   -1    0    0    0  501 -0.00000000000E+00 -0.00000000000E+00 -0.67595789874E+03  0.67595789874E+03  0.00000000000E+00 0. -1.
         23    2    1    2    0    0 -0.10093870898E+02 -0.20181973744E+01 -0.63591681177E+03  0.64284603285E+03  0.93567468246E+02 0.  0.
         13    1    3    3    0    0  0.33026474525E+01 -0.22532351583E+01  0.22169748977E+01  0.45716000012E+01  0.00000000000E+00 0.  1.
        -13    1    3    3    0    0 -0.13396518350E+02  0.23503778387E+00 -0.63813378666E+03  0.63827443285E+03  0.00000000000E+00 0. -1.
         22    1    1    2    0    0  0.10093870898E+02  0.20181973744E+01 -0.35852244898E+02  0.37300707963E+02  0.00000000000E+00 0. -1.
<mgrwt>
<rscale>  0 0.54130909E+02</rscale>
<asrwt>0</asrwt>
<pdfrwt beam="1">  1        1 0.64443708E-03 0.94131984E+02</pdfrwt>
<pdfrwt beam="2">  1       -1 0.10399355E+00 0.94131984E+02</pdfrwt>
<totfact> 0.24815935E+04</totfact>
</mgrwt>
</event>
<event>
 6    1  0.1828142E-002  0.9349104E+02  0.7546771E-02  0.1365427E+00
         -2   -1    0    0    0  501 -0.00000000000E+00  0.00000000000E+00  0.71182373334E+02  0.71182373334E+02  0.00000000000E+00 0.  1.
          2   -1    0    0  501    0  0.00000000000E+00 -0.00000000000E+00 -0.53752360237E+02  0.53752360237E+02  0.00000000000E+00 0. -1.
         23    2    1    2    0    0 -0.92219077921E+01  0.25240685011E+02  0.25445972925E+02  0.96892062958E+02  0.89545734477E+02 0.  0.
         13    1    3    3    0    0 -0.42836597878E+01 -0.89160036395E+01 -0.29996636912E+02  0.31585488569E+02  0.00000000000E+00 0. -1.
        -13    1    3    3    0    0 -0.49382480043E+01  0.34156688650E+02  0.55442609837E+02  0.65306574389E+02  0.00000000000E+00 0.  1.
         22    1    1    2    0    0  0.92219077921E+01 -0.25240685011E+02 -0.80159598281E+01  0.28042670613E+02  0.00000000000E+00 0.  1.
<mgrwt>
<rscale>  0 0.68454948E+02</rscale>
<asrwt>0</asrwt>
<pdfrwt beam="1">  1        2 0.82695939E-02 0.93491039E+02</pdfrwt>
<pdfrwt beam="2">  1       -2 0.10951134E-01 0.93491039E+02</pdfrwt>
<totfact> 0.40603549E+04</totfact>
</mgrwt>
</event>
<event>
 6    1  0.1828142E-002  0.9789398E+02  0.7546771E-02  0.1389649E+00
          2   -1    0    0  501    0  0.00000000000E+00  0.00000000000E+00  0.51081365071E+02  0.51081365071E+02  0.00000000000E+00 0. -1.
         -2   -1    0    0    0  501 -0.00000000000E+00 -0.00000000000E+00 -0.69866356928E+02  0.69866356928E+02  0.00000000000E+00 0.  1.
         23    2    1    2    0    0 -0.79175892996E+01  0.13608896860E+02 -0.29097076287E+02  0.10212673958E+03  0.96619567346E+02 0.  0.
         13    1    3    3    0    0 -0.61614394633E+01 -0.59963406017E+01  0.34498976671E+02  0.35554167522E+02  0.00000000000E+00 0. -1.
        -13    1    3    3    0    0 -0.17561498362E+01  0.19605237461E+02 -0.63596052958E+02  0.66572572055E+02  0.00000000000E+00 0.  1.
         22    1    1    2    0    0  0.79175892996E+01 -0.13608896860E+02  0.10312084430E+02  0.18820982422E+02  0.00000000000E+00 0. -1.
<mgrwt>
<rscale>  0 0.61993967E+02</rscale>
<asrwt>0</asrwt>
<pdfrwt beam="1">  1        2 0.78586716E-02 0.97893979E+02</pdfrwt>
<pdfrwt beam="2">  1       -2 0.10748670E-01 0.97893979E+02</pdfrwt>
<totfact> 0.44813449E+04</totfact>
</mgrwt>
</event>
<event>
 6    1  0.1828142E-002  0.9894589E+02  0.7546771E-02  0.1331090E+00
         -4   -1    0    0    0  501 -0.00000000000E+00  0.00000000000E+00  0.78741324631E+02  0.78741324631E+02  0.00000000000E+00 0.  1.
          4   -1    0    0  501    0  0.00000000000E+00 -0.00000000000E+00 -0.65957096520E+02  0.65957096520E+02  0.00000000000E+00 0. -1.
         23    2    1    2    0    0  0.12220379227E+02  0.38920291024E+02  0.25111765344E+02  0.10208275624E+03  0.90145225278E+02 0.  0.
         13    1    3    3    0    0  0.13586753514E+02  0.66152709198E+01 -0.32599020418E+02  0.35931292944E+02  0.00000000000E+00 0. -1.
        -13    1    3    3    0    0 -0.13663742871E+01  0.32305020104E+02  0.57710785762E+02  0.66151463294E+02  0.00000000000E+00 0.  1.
         22    1    1    2    0    0 -0.12220379227E+02 -0.38920291024E+02 -0.12327537234E+02  0.42615664915E+02  0.00000000000E+00 0.  1.
<mgrwt>
<rscale>  0 0.79286018E+02</rscale>
<asrwt>0</asrwt>
<pdfrwt beam="1">  1        4 0.10147246E-01 0.98945886E+02</pdfrwt>
<pdfrwt beam="2">  1       -4 0.12114050E-01 0.98945886E+02</pdfrwt>
<totfact> 0.60670812E+03</totfact>
</mgrwt>
</event>
<event>
 6    1  0.1828142E-002  0.9222016E+02  0.7546771E-02  0.1414731E+00
          1   -1    0    0  501    0  0.00000000000E+00  0.00000000000E+00  0.14100034748E+02  0.14100034748E+02  0.00000000000E+00 0. -1.
         -1   -1    0    0    0  501 -0.00000000000E+00 -0.00000000000E+00 -0.20240438841E+03  0.20240438841E+03  0.00000000000E+00 0.  1.
         23    2    1    2    0    0 -0.12536040410E+02 -0.18743665278E+01 -0.17670899323E+03  0.19932542603E+03  0.91344904681E+02 0.  0.
         13    1    3    3    0    0 -0.27025074018E+02 -0.16907221565E+02 -0.17554324683E+03  0.17841423787E+03  0.00000000000E+00 0.  1.
        -13    1    3    3    0    0  0.14489033608E+02  0.15032855038E+02 -0.11657464057E+01  0.20911188158E+02  0.00000000000E+00 0. -1.
         22    1    1    2    0    0  0.12536040410E+02  0.18743665278E+01 -0.11595360429E+02  0.17178997134E+02  0.00000000000E+00 0.  1.
<mgrwt>
<rscale>  0 0.56151290E+02</rscale>
<asrwt>0</asrwt>
<pdfrwt beam="1">  1        1 0.21692362E-02 0.92220156E+02</pdfrwt>
<pdfrwt beam="2">  1       -1 0.31139136E-01 0.92220156E+02</pdfrwt>
<totfact> 0.44743307E+04</totfact>
</mgrwt>
</event>
<event>
 6    1  0.1828142E-002  0.9338743E+02  0.7546771E-02  0.1393486E+00
         -2   -1    0    0    0  501 -0.00000000000E+00  0.00000000000E+00  0.32639778515E+03  0.32639778515E+03  0.00000000000E+00 0. -1.
          2   -1    0    0  501    0  0.00000000000E+00 -0.00000000000E+00 -0.10493687436E+02  0.10493687436E+02  0.00000000000E+00 0.  1.
         23    2    1    2    0    0  0.13150794515E+02 -0.10857607598E+02  0.29744372311E+03  0.31175949158E+03  0.91817106953E+02 0.  0.
         13    1    3    3    0    0  0.18524601721E+02  0.20710220673E+02  0.26399675607E+03  0.26545500810E+03  0.00000000000E+00 0. -1.
        -13    1    3    3    0    0 -0.53738072065E+01 -0.31567828271E+02  0.33446967041E+02  0.46304483475E+02  0.00000000000E+00 0.  1.
         22    1    1    2    0    0 -0.13150794515E+02  0.10857607598E+02  0.18460374603E+02  0.25131981012E+02  0.00000000000E+00 0.  1.
<mgrwt>
<rscale>  0 0.61047996E+02</rscale>
<asrwt>0</asrwt>
<pdfrwt beam="1">  1        2 0.16144137E-02 0.93387430E+02</pdfrwt>
<pdfrwt beam="2">  1       -2 0.50215036E-01 0.93387430E+02</pdfrwt>
<totfact> 0.24658519E+04</totfact>
</mgrwt>
</event>
<event>
 6    1  0.1828142E-002  0.9346845E+02  0.7546771E-02  0.1426493E+00
         -2   -1    0    0    0  501 -0.00000000000E+00  0.00000000000E+00  0.86508446459E+02  0.86508446459E+02  0.00000000000E+00 0.  1.
          2   -1    0    0  501    0  0.00000000000E+00 -0.00000000000E+00 -0.46970814254E+02  0.46970814254E+02  0.00000000000E+00 0. -1.
         23    2    1    2    0    0 -0.97663835792E+01  0.28053122335E+01  0.59695632714E+02  0.11090500525E+03  0.92914474655E+02 0.  0.
         11    1    3    3    0    0 -0.50545468478E+02 -0.72453137653E+01  0.27584669832E+02  0.58036651910E+02  0.00000000000E+00 0. -1.
        -11    1    3    3    0    0  0.40779084899E+02  0.10050625999E+02  0.32110962882E+02  0.52868353345E+02  0.00000000000E+00 0.  1.
         22    1    1    2    0    0  0.97663835792E+01 -0.28053122335E+01 -0.20158000509E+02  0.22574255458E+02  0.00000000000E+00 0. -1.
<mgrwt>
<rscale>  0 0.53670558E+02</rscale>
<asrwt>0</asrwt>
<pdfrwt beam="1">  1        2 0.72262791E-02 0.93468453E+02</pdfrwt>
<pdfrwt beam="2">  1       -2 0.13308992E-01 0.93468453E+02</pdfrwt>
<totfact> 0.35271564E+04</totfact>
</mgrwt>
</event>
<event>
 6    1  0.1828142E-002  0.1163465E+03  0.7546771E-02  0.1375667E+00
          2   -1    0    0  501    0  0.00000000000E+00  0.00000000000E+00  0.83477219868E+01  0.83477219868E+01  0.00000000000E+00 0. -1.
         -2   -1    0    0    0  501 -0.00000000000E+00 -0.00000000000E+00 -0.49986270549E+03  0.49986270549E+03  0.00000000000E+00 0.  1.
         23    2    1    2    0    0  0.11306021190E+02  0.32741277581E+01 -0.42381239195E+03  0.43949225717E+03  0.11574953353E+03 0.  0.
         11    1    3    3    0    0 -0.49608621812E+02 -0.12514301979E+02 -0.14804836341E+03  0.15663952573E+03  0.00000000000E+00 0. -1.
        -11    1    3    3    0    0  0.60914643002E+02  0.15788429737E+02 -0.27576402854E+03  0.28285273144E+03  0.00000000000E+00 0.  1.
         22    1    1    2    0    0 -0.11306021190E+02 -0.32741277581E+01 -0.67702591556E+02  0.68718170313E+02  0.00000000000E+00 0.  1.
<mgrwt>
<rscale>  0 0.65616666E+02</rscale>
<asrwt>0</asrwt>
<pdfrwt beam="1">  1        2 0.12842651E-02 0.11634647E+03</pdfrwt>
<pdfrwt beam="2">  1       -2 0.76901941E-01 0.11634647E+03</pdfrwt>
<totfact> 0.14410126E+04</totfact>
</mgrwt>
</event>
<event>
 6    1  0.1828142E-002  0.9563857E+02  0.7546771E-02  0.1357188E+00
          2   -1    0    0  501    0  0.00000000000E+00  0.00000000000E+00  0.10841531763E+03  0.10841531763E+03  0.00000000000E+00 0. -1.
         -2   -1    0    0    0  501 -0.00000000000E+00 -0.00000000000E+00 -0.38726309840E+02  0.38726309840E+02  0.00000000000E+00 0.  1.
         23    2    1    2    0    0  0.28686286001E+02 -0.28036988203E+01  0.34536721860E+02  0.10168343858E+03  0.91191955742E+02 0.  0.
         11    1    3    3    0    0 -0.84390519744E+00 -0.38318177732E+02 -0.77025313830E+01  0.39093783526E+02  0.00000000000E+00 0.  1.
        -11    1    3    3    0    0  0.29530191198E+02  0.35514478912E+02  0.42239253243E+02  0.62589655049E+02  0.00000000000E+00 0. -1.
         22    1    1    2    0    0 -0.28686286001E+02  0.28036988203E+01  0.35152285933E+02  0.45458188898E+02  0.00000000000E+00 0. -1.
<mgrwt>
<rscale>  0 0.70861363E+02</rscale>
<asrwt>0</asrwt>
<pdfrwt beam="1">  1        2 0.16679280E-01 0.95638572E+02</pdfrwt>
<pdfrwt beam="2">  1       -2 0.59578939E-02 0.95638572E+02</pdfrwt>
<totfact> 0.44874749E+04</totfact>
</mgrwt>
</event>
<event>
 6    1  0.1828142E-002  0.9854570E+02  0.7546771E-02  0.1342514E+00
         -2   -1    0    0    0  501 -0.00000000000E+00  0.00000000000E+00  0.82356307597E+02  0.82356307597E+02  0.00000000000E+00 0.  1.
          2   -1    0    0  501    0  0.00000000000E+00 -0.00000000000E+00 -0.54741079278E+02  0.54741079278E+02  0.00000000000E+00 0. -1.
         23    2    1    2    0    0  0.71386584762E+01  0.33083349847E+02  0.30426767857E+02  0.10313603772E+03  0.92551529388E+02 0.  0.
         13    1    3    3    0    0 -0.18450700969E+02  0.54613056237E+02  0.37744291718E+02  0.68903162736E+02  0.00000000000E+00 0. -1.
        -13    1    3    3    0    0  0.25589359446E+02 -0.21529706390E+02 -0.73175238612E+01  0.34232874982E+02  0.00000000000E+00 0.  1.
         22    1    1    2    0    0 -0.71386584762E+01 -0.33083349847E+02 -0.28115395376E+01  0.33961349156E+02  0.00000000000E+00 0.  1.
<mgrwt>
<rscale>  0 0.75439906E+02</rscale>
<asrwt>0</asrwt>
<pdfrwt beam="1">  1        2 0.84217045E-02 0.98545695E+02</pdfrwt>
<pdfrwt beam="2">  1       -2 0.12670201E-01 0.98545695E+02</pdfrwt>
<totfact> 0.31743046E+04</totfact>
</mgrwt>
</event>
<event>
 6    1  0.1828142E-002  0.1070260E+03  0.7546771E-02  0.1379707E+00
         -4   -1    0    0    0  501 -0.00000000000E+00  0.00000000000E+00  0.16426594837E+02  0.16426594837E+02  0.00000000000E+00 0.  1.
          4   -1    0    0  501    0  0.00000000000E+00 -0.00000000000E+00 -0.25290124989E+03  0.25290124989E+03  0.00000000000E+00 0. -1.
         23    2    1    2    0    0 -0.22832833709E+01  0.13968451528E+02 -0.16646567447E+03  0.19790244040E+03  0.10608592799E+03 0.  0.
         11    1    3    3    0    0 -0.14236882202E+02 -0.42727439064E+02 -0.46820088790E+02  0.64964941146E+02  0.00000000000E+00 0. -1.
        -11    1    3    3    0    0  0.11953598831E+02  0.56695890592E+02 -0.11964558568E+03  0.13293749925E+03  0.00000000000E+00 0.  1.
         22    1    1    2    0    0  0.22832833709E+01 -0.13968451528E+02 -0.70008980581E+02  0.71425404325E+02  0.00000000000E+00 0. -1.
<mgrwt>
<rscale>  0 0.64540951E+02</rscale>
<asrwt>0</asrwt>
<pdfrwt beam="1">  1        4 0.38907885E-01 0.10702596E+03</pdfrwt>
<pdfrwt beam="2">  1       -4 0.25271684E-02 0.10702596E+03</pdfrwt>
<totfact> 0.69562616E+03</totfact>
</mgrwt>
</event>
<event>
 6    1  0.1828142E-002  0.9888309E+02  0.7546771E-02  0.1341437E+00
         -4   -1    0    0    0  501 -0.00000000000E+00  0.00000000000E+00  0.15451760275E+03  0.15451760275E+03  0.00000000000E+00 0.  1.
          4   -1    0    0  501    0  0.00000000000E+00 -0.00000000000E+00 -0.29169298144E+02  0.29169298144E+02  0.00000000000E+00 0. -1.
         23    2    1    2    0    0  0.13658940195E+02  0.31275873992E+02  0.10361045033E+03  0.14322356873E+03  0.92806887033E+02 0.  0.
         11    1    3    3    0    0  0.44323454363E+01 -0.10990085071E+02 -0.13745084131E+02  0.18148140228E+02  0.00000000000E+00 0. -1.
        -11    1    3    3    0    0  0.92265947591E+01  0.42265959063E+02  0.11735553446E+03  0.12507542850E+03  0.00000000000E+00 0.  1.
         22    1    1    2    0    0 -0.13658940195E+02 -0.31275873992E+02  0.21737854275E+02  0.40463332162E+02  0.00000000000E+00 0.  1.
<mgrwt>
<rscale>  0 0.75791493E+02</rscale>
<asrwt>0</asrwt>
<pdfrwt beam="1">  1        4 0.44875844E-02 0.98883089E+02</pdfrwt>
<pdfrwt beam="2">  1       -4 0.23771938E-01 0.98883089E+02</pdfrwt>
<totfact> 0.70016117E+03</totfact>
</mgrwt>
</event>
<event>
 6    1  0.1828142E-002  0.9225503E+02  0.7546771E-02  0.1429474E+00
          1   -1    0    0  501    0  0.00000000000E+00  0.00000000000E+00  0.62590799924E+02  0.62590799924E+02  0.00000000000E+00 0. -1.
         -1   -1    0    0    0  501 -0.00000000000E+00 -0.00000000000E+00 -0.43320388450E+02  0.43320388450E+02  0.00000000000E+00 0.  1.
         23    2    1    2    0    0  0.99621563364E+01  0.16579510841E+01  0.11099121923E+02  0.92920294117E+02  0.91700584462E+02 0.  0.
         13    1    3    3    0    0  0.18362812709E+02  0.17195134592E+02 -0.35257729685E+02  0.43312504508E+02  0.00000000000E+00 0.  1.
        -13    1    3    3    0    0 -0.84006563725E+01 -0.15537183508E+02  0.46356851608E+02  0.49607789609E+02  0.00000000000E+00 0. -1.
         22    1    1    2    0    0 -0.99621563364E+01 -0.16579510841E+01  0.81712895500E+01  0.12990894256E+02  0.00000000000E+00 0.  1.
<mgrwt>
<rscale>  0 0.53065716E+02</rscale>
<asrwt>0</asrwt>
<pdfrwt beam="1">  1        1 0.96293539E-02 0.92255030E+02</pdfrwt>
<pdfrwt beam="2">  1       -1 0.66646751E-02 0.92255030E+02</pdfrwt>
<totfact> 0.65684164E+04</totfact>
</mgrwt>
</event>
<event>
 6    1  0.1828142E-002  0.9154505E+02  0.7546771E-02  0.1405717E+00
         -1   -1    0    0    0  501 -0.00000000000E+00  0.00000000000E+00  0.88207971619E+01  0.88207971619E+01  0.00000000000E+00 0.  1.
          1   -1    0    0  501    0  0.00000000000E+00 -0.00000000000E+00 -0.32680651477E+03  0.32680651477E+03  0.00000000000E+00 0. -1.
         23    2    1    2    0    0  0.11779452310E+02 -0.91481044908E+01 -0.28685165809E+03  0.30110524690E+03  0.90321938889E+02 0.  0.
         13    1    3    3    0    0 -0.89314650589E+01 -0.24909206510E+02 -0.26716461525E+03  0.26847191898E+03  0.00000000000E+00 0. -1.
        -13    1    3    3    0    0  0.20710917369E+02  0.15761102019E+02 -0.19687042840E+02  0.32633327917E+02  0.00000000000E+00 0.  1.
         22    1    1    2    0    0 -0.11779452310E+02  0.91481044908E+01 -0.31134059517E+02  0.34522065038E+02  0.00000000000E+00 0. -1.
<mgrwt>
<rscale>  0 0.58160558E+02</rscale>
<asrwt>0</asrwt>
<pdfrwt beam="1">  1        1 0.50277924E-01 0.91545049E+02</pdfrwt>
<pdfrwt beam="2">  1       -1 0.13570458E-02 0.91545049E+02</pdfrwt>
<totfact> 0.82038165E+04</totfact>
</mgrwt>
</event>
<event>
 6    1  0.1828142E-002  0.9271991E+02  0.7546771E-02  0.1399868E+00
         -2   -1    0    0    0  501 -0.00000000000E+00  0.00000000000E+00  0.16456124045E+02  0.16456124045E+02  0.00000000000E+00 0.  1.
          2   -1    0    0  501    0  0.00000000000E+00 -0.00000000000E+00 -0.18425660761E+03  0.18425660761E+03  0.00000000000E+00 0. -1.
         23    2    1    2    0    0 -0.10239164708E+02 -0.11957049597E+02 -0.12921243963E+03  0.15903721530E+03  0.91373791458E+02 0.  0.
         11    1    3    3    0    0  0.28205261317E+01  0.31577200500E+02 -0.13021474825E+02  0.34272930509E+02  0.00000000000E+00 0.  1.
        -11    1    3    3    0    0 -0.13059690840E+02 -0.43534250097E+02 -0.11619096480E+03  0.12476428479E+03  0.00000000000E+00 0. -1.
         22    1    1    2    0    0  0.10239164708E+02  0.11957049597E+02 -0.38588043936E+02  0.41675516359E+02  0.00000000000E+00 0.  1.
<mgrwt>
<rscale>  0 0.59517534E+02</rscale>
<asrwt>0</asrwt>
<pdfrwt beam="1">  1        2 0.28347170E-01 0.92719908E+02</pdfrwt>
<pdfrwt beam="2">  1       -2 0.25317114E-02 0.92719908E+02</pdfrwt>
<totfact> 0.87449259E+04</totfact>
</mgrwt>
</event>
<event>
 6    1  0.1828142E-002  0.9230226E+02  0.7546771E-02  0.1429545E+00
          1   -1    0    0  501    0  0.00000000000E+00  0.00000000000E+00  0.15352277838E+02  0.15352277838E+02  0.00000000000E+00 0. -1.
         -1   -1    0    0    0  501 -0.00000000000E+00 -0.00000000000E+00 -0.17129630257E+03  0.17129630257E+03  0.00000000000E+00 0.  1.
         23    2    1    2    0    0 -0.91278505905E+01  0.42594928786E+01 -0.14374585202E+03  0.17082908757E+03  0.91751001369E+02 0.  0.
         11    1    3    3    0    0 -0.58169354346E+01 -0.53785247289E+01  0.12202152131E+02  0.14548463243E+02  0.00000000000E+00 0. -1.
        -11    1    3    3    0    0 -0.33109151559E+01  0.96380176075E+01 -0.15594800415E+03  0.15628062433E+03  0.00000000000E+00 0.  1.
         22    1    1    2    0    0  0.91278505905E+01 -0.42594928786E+01 -0.12198172711E+02  0.15819492832E+02  0.00000000000E+00 0.  1.
<mgrwt>
<rscale>  0 0.53051371E+02</rscale>
<asrwt>0</asrwt>
<pdfrwt beam="1">  1        1 0.23618891E-02 0.92302260E+02</pdfrwt>
<pdfrwt beam="2">  1       -1 0.26353275E-01 0.92302260E+02</pdfrwt>
<totfact> 0.52446684E+04</totfact>
</mgrwt>
</event>
<event>
 6    1  0.1828142E-002  0.8962219E+02  0.7546771E-02  0.1435245E+00
         -1   -1    0    0    0  501 -0.00000000000E+00  0.00000000000E+00  0.12449599757E+02  0.12449599757E+02  0.00000000000E+00 0.  1.
          1   -1    0    0  501    0  0.00000000000E+00 -0.00000000000E+00 -0.20279382135E+03  0.20279382135E+03  0.00000000000E+00 0. -1.
         23    2    1    2    0    0  0.92668498599E+01  0.40064496215E+01 -0.16175286035E+03  0.18492194221E+03  0.89051730661E+02 0.  0.
         13    1    3    3    0    0  0.51455188505E+01  0.28224105463E+02 -0.15737552546E+03  0.15996916111E+03  0.00000000000E+00 0. -1.
        -13    1    3    3    0    0  0.41213310094E+01 -0.24217655841E+02 -0.43773348916E+01  0.24952781097E+02  0.00000000000E+00 0.  1.
         22    1    1    2    0    0 -0.92668498599E+01 -0.40064496215E+01 -0.28591361246E+02  0.30321478902E+02  0.00000000000E+00 0.  1.
<mgrwt>
<rscale>  0 0.51921516E+02</rscale>
<asrwt>0</asrwt>
<pdfrwt beam="1">  1        1 0.31199049E-01 0.89622190E+02</pdfrwt>
<pdfrwt beam="2">  1       -1 0.19153231E-02 0.89622190E+02</pdfrwt>
<totfact> 0.89771799E+04</totfact>
</mgrwt>
</event>
<event>
 6    1  0.1828142E-002  0.9226986E+02  0.7546771E-02  0.1423822E+00
         -2   -1    0    0    0  501 -0.00000000000E+00  0.00000000000E+00  0.79693240005E+01  0.79693240005E+01  0.00000000000E+00 0.  1.
          2   -1    0    0  501    0  0.00000000000E+00 -0.00000000000E+00 -0.35072670754E+03  0.35072670754E+03  0.00000000000E+00 0. -1.
         23    2    1    2    0    0  0.94627327633E+01 -0.56126770328E+01 -0.32465631781E+03  0.33751363235E+03  0.91611581555E+02 0.  0.
         13    1    3    3    0    0  0.17368986903E+01 -0.35649436582E+02 -0.51832137008E+02  0.62932261778E+02  0.00000000000E+00 0.  1.
        -13    1    3    3    0    0  0.77258340730E+01  0.30036759549E+02 -0.27282418080E+03  0.27458137057E+03  0.00000000000E+00 0. -1.
         22    1    1    2    0    0 -0.94627327633E+01  0.56126770328E+01 -0.18101065732E+02  0.21182399190E+02  0.00000000000E+00 0. -1.
<mgrwt>
<rscale>  0 0.54220493E+02</rscale>
<asrwt>0</asrwt>
<pdfrwt beam="1">  1        2 0.53957952E-01 0.92269861E+02</pdfrwt>
<pdfrwt beam="2">  1       -2 0.12260499E-02 0.92269861E+02</pdfrwt>
<totfact> 0.12530885E+05</totfact>
</mgrwt>
</event>
<event>
 6    1  0.1828142E-002  0.1009790E+03  0.7546771E-02  0.1376395E+00
          3   -1    0    0  501    0  0.00000000000E+00  0.00000000000E+00  0.54842427797E+02  0.54842427797E+02  0.00000000000E+00 0. -1.
         -3   -1    0    0    0  501 -0.00000000000E+00 -0.00000000000E+00 -0.81923986639E+02  0.81923986639E+02  0.00000000000E+00 0.  1.
         23    2    1    2    0    0 -0.16198538731E+02 -0.73548087612E+01 -0.45854964411E+02  0.11090279857E+03  0.99399532700E+02 0.  0.
         13    1    3    3    0    0  0.27914216811E+02  0.13138936474E+02  0.13912682681E+02  0.33843727502E+02  0.00000000000E+00 0. -1.
        -13    1    3    3    0    0 -0.44112755542E+02 -0.20493745235E+02 -0.59767647092E+02  0.77059071070E+02  0.00000000000E+00 0.  1.
         22    1    1    2    0    0  0.16198538731E+02  0.73548087612E+01  0.18773405568E+02  0.25863615864E+02  0.00000000000E+00 0. -1.
<mgrwt>
<rscale>  0 0.65421049E+02</rscale>
<asrwt>0</asrwt>
<pdfrwt beam="1">  1        3 0.84372966E-02 0.10097897E+03</pdfrwt>
<pdfrwt beam="2">  1       -3 0.12603690E-01 0.10097897E+03</pdfrwt>
<totfact> 0.10341177E+04</totfact>
</mgrwt>
</event>
<event>
 6    1  0.1828142E-002  0.9143870E+02  0.7546771E-02  0.1411028E+00
         -2   -1    0    0    0  501 -0.00000000000E+00  0.00000000000E+00  0.34801630744E+02  0.34801630744E+02  0.00000000000E+00 0.  1.
          2   -1    0    0  501    0  0.00000000000E+00 -0.00000000000E+00 -0.92666369262E+02  0.92666369262E+02  0.00000000000E+00 0. -1.
         23    2    1    2    0    0  0.13566639191E+02 -0.23788018891E+01 -0.29743205386E+02  0.96154536079E+02  0.90395376787E+02 0.  0.
         11    1    3    3    0    0  0.12251400738E+02  0.42448278967E+02 -0.25734345432E+02  0.51129343259E+02  0.00000000000E+00 0. -1.
        -11    1    3    3    0    0  0.13152384528E+01 -0.44827080856E+02 -0.40088599539E+01  0.45025192819E+02  0.00000000000E+00 0.  1.
         22    1    1    2    0    0 -0.13566639191E+02  0.23788018891E+01 -0.28121533133E+02  0.31313463927E+02  0.00000000000E+00 0. -1.
<mgrwt>
<rscale>  0 0.56965185E+02</rscale>
<asrwt>0</asrwt>
<pdfrwt beam="1">  1        2 0.14256364E-01 0.91438704E+02</pdfrwt>
<pdfrwt beam="2">  1       -2 0.53540972E-02 0.91438704E+02</pdfrwt>
<totfact> 0.62723775E+04</totfact>
</mgrwt>
</event>
<event>
 6    1  0.1828142E-002  0.8960861E+02  0.7546771E-02  0.1412009E+00
         -4   -1    0    0    0  501 -0.00000000000E+00  0.00000000000E+00  0.25740797931E+02  0.25740797931E+02  0.00000000000E+00 0.  1.
          4   -1    0    0  501    0  0.00000000000E+00 -0.00000000000E+00 -0.10576315532E+03  0.10576315532E+03  0.00000000000E+00 0. -1.
         23    2    1    2    0    0 -0.10838315770E+02 -0.95005625418E+01 -0.72386406352E+02  0.11519329644E+03  0.88441924127E+02 0.  0.
         13    1    3    3    0    0  0.79583687448E+01  0.36710675978E+02 -0.43778192761E+02  0.57684829247E+02  0.00000000000E+00 0. -1.
        -13    1    3    3    0    0 -0.18796684515E+02 -0.46211238519E+02 -0.28608213591E+02  0.57508467195E+02  0.00000000000E+00 0.  1.
         22    1    1    2    0    0  0.10838315770E+02  0.95005625418E+01 -0.76359510391E+01  0.16310656811E+02  0.00000000000E+00 0. -1.
<mgrwt>
<rscale>  0 0.56747883E+02</rscale>
<asrwt>0</asrwt>
<pdfrwt beam="1">  1        4 0.16271254E-01 0.89608614E+02</pdfrwt>
<pdfrwt beam="2">  1       -4 0.39601228E-02 0.89608614E+02</pdfrwt>
<totfact> 0.16282528E+04</totfact>
</mgrwt>
</event>
<event>
 6    1  0.1828142E-002  0.9396732E+02  0.7546771E-02  0.1373702E+00
         -3   -1    0    0    0  501 -0.00000000000E+00  0.00000000000E+00  0.14911886112E+04  0.14911886112E+04  0.00000000000E+00 0.  1.
          3   -1    0    0  501    0  0.00000000000E+00 -0.00000000000E+00 -0.35696578307E+01  0.35696578307E+01  0.00000000000E+00 0. -1.
         23    2    1    2    0    0  0.14443063722E+02  0.17996793129E+02  0.14237675125E+04  0.14268650209E+04  0.91089907853E+02 0.  0.
         11    1    3    3    0    0  0.83678015569E+01  0.42529553035E+02  0.33354487468E+03  0.33634947066E+03  0.00000000000E+00 0. -1.
        -11    1    3    3    0    0  0.60752621649E+01 -0.24532759907E+02  0.10902226379E+04  0.10905155502E+04  0.00000000000E+00 0.  1.
         22    1    1    2    0    0 -0.14443063722E+02 -0.17996793129E+02  0.63851440859E+02  0.67893248209E+02  0.00000000000E+00 0. -1.
<mgrwt>
<rscale>  0 0.66148688E+02</rscale>
<asrwt>0</asrwt>
<pdfrwt beam="1">  1        3 0.54917932E-03 0.93967324E+02</pdfrwt>
<pdfrwt beam="2">  1       -3 0.22941314E+00 0.93967324E+02</pdfrwt>
<totfact> 0.15725447E+03</totfact>
</mgrwt>
</event>
<event>
 6    1  0.1828142E-002  0.9193898E+02  0.7546771E-02  0.1418331E+00
          4   -1    0    0  501    0  0.00000000000E+00  0.00000000000E+00  0.83487790927E+02  0.83487790927E+02  0.00000000000E+00 0. -1.
         -4   -1    0    0    0  501 -0.00000000000E+00 -0.00000000000E+00 -0.47445157176E+02  0.47445157176E+02  0.00000000000E+00 0.  1.
         23    2    1    2    0    0  0.25681004734E+01  0.11824017734E+02 -0.10206259107E+01  0.91944645341E+02  0.91139308722E+02 0.  0.
         13    1    3    3    0    0 -0.81597191356E+01  0.48894626410E+02 -0.13516123048E+02  0.51380454361E+02  0.00000000000E+00 0.  1.
        -13    1    3    3    0    0  0.10727819609E+02 -0.37070608676E+02  0.12495497137E+02  0.40564190980E+02  0.00000000000E+00 0. -1.
         22    1    1    2    0    0 -0.25681004734E+01 -0.11824017734E+02  0.37063259662E+02  0.38988302761E+02  0.00000000000E+00 0. -1.
<mgrwt>
<rscale>  0 0.55375586E+02</rscale>
<asrwt>0</asrwt>
<pdfrwt beam="1">  1        4 0.12844275E-01 0.91938980E+02</pdfrwt>
<pdfrwt beam="2">  1       -4 0.72992550E-02 0.91938980E+02</pdfrwt>
<totfact> 0.92703719E+03</totfact>
</mgrwt>
</event>
<event>
 6    1  0.1828142E-002  0.9267255E+02  0.7546771E-02  0.1397692E+00
          2   -1    0    0  501    0  0.00000000000E+00  0.00000000000E+00  0.60317578860E+02  0.60317578860E+02  0.00000000000E+00 0. -1.
         -2   -1    0    0    0  501 -0.00000000000E+00 -0.00000000000E+00 -0.62693268144E+02  0.62693268144E+02  0.00000000000E+00 0.  1.
         23    2    1    2    0    0 -0.97282500723E+01  0.13103226690E+02 -0.24180403573E+02  0.95775227599E+02  0.91224278049E+02 0.  0.
         11    1    3    3    0    0  0.83733864771E+01  0.46543161314E+02  0.54025252717E+01  0.47597969972E+02  0.00000000000E+00 0. -1.
        -11    1    3    3    0    0 -0.18101636549E+02 -0.33439934623E+02 -0.29582928844E+02  0.48177257626E+02  0.00000000000E+00 0.  1.
         22    1    1    2    0    0  0.97282500723E+01 -0.13103226690E+02  0.21804714289E+02  0.27235619405E+02  0.00000000000E+00 0. -1.
<mgrwt>
<rscale>  0 0.60033208E+02</rscale>
<asrwt>0</asrwt>
<pdfrwt beam="1">  1        2 0.92796275E-02 0.92672554E+02</pdfrwt>
<pdfrwt beam="2">  1       -2 0.96451181E-02 0.92672554E+02</pdfrwt>
<totfact> 0.42908216E+04</totfact>
</mgrwt>
</event>
<event>
 6    1  0.1828142E-002  0.8797068E+02  0.7546771E-02  0.1408174E+00
          1   -1    0    0  501    0  0.00000000000E+00  0.00000000000E+00  0.22605769118E+02  0.22605769118E+02  0.00000000000E+00 0. -1.
         -1   -1    0    0    0  501 -0.00000000000E+00 -0.00000000000E+00 -0.15700956262E+03  0.15700956262E+03  0.00000000000E+00 0.  1.
         23    2    1    2    0    0 -0.33646798393E+01  0.15818613939E+02 -0.13741816333E+03  0.16316431223E+03  0.86471333725E+02 0.  0.
         13    1    3    3    0    0 -0.24601438201E+02 -0.26871581867E+02 -0.84006631613E+02  0.91566515870E+02  0.00000000000E+00 0.  1.
        -13    1    3    3    0    0  0.21236758362E+02  0.42690195807E+02 -0.53411531718E+02  0.71597796364E+02  0.00000000000E+00 0. -1.
         22    1    1    2    0    0  0.33646798393E+01 -0.15818613939E+02  0.30143698250E+01  0.16451019507E+02  0.00000000000E+00 0.  1.
<mgrwt>
<rscale>  0 0.57603349E+02</rscale>
<asrwt>0</asrwt>
<pdfrwt beam="1">  1        1 0.34778105E-02 0.87970684E+02</pdfrwt>
<pdfrwt beam="2">  1       -1 0.24155318E-01 0.87970684E+02</pdfrwt>
<totfact> 0.35321981E+04</totfact>
</mgrwt>
</event>
<event>
 6    1  0.1828142E-002  0.9734718E+02  0.7546771E-02  0.1395381E+00
          2   -1    0    0  501    0  0.00000000000E+00  0.00000000000E+00  0.18749842808E+03  0.18749842808E+03  0.00000000000E+00 0. -1.
         -2   -1    0    0    0  501 -0.00000000000E+00 -0.00000000000E+00 -0.19199491556E+02  0.19199491556E+02  0.00000000000E+00 0.  1.
         23    2    1    2    0    0 -0.14354860221E+02 -0.27040005200E+01  0.11133863375E+03  0.14789443570E+03  0.96244995272E+02 0.  0.
         13    1    3    3    0    0  0.23469200300E+02  0.15373046711E+02  0.10085089585E+03  0.10468064349E+03  0.00000000000E+00 0. -1.
        -13    1    3    3    0    0 -0.37824060521E+02 -0.18077047231E+02  0.10487737901E+02  0.43213792210E+02  0.00000000000E+00 0.  1.
         22    1    1    2    0    0  0.14354860221E+02  0.27040005200E+01  0.56960302774E+02  0.58803483935E+02  0.00000000000E+00 0. -1.
<mgrwt>
<rscale>  0 0.60587790E+02</rscale>
<asrwt>0</asrwt>
<pdfrwt beam="1">  1        2 0.28845911E-01 0.97347176E+02</pdfrwt>
<pdfrwt beam="2">  1       -2 0.29537681E-02 0.97347176E+02</pdfrwt>
<totfact> 0.69096680E+04</totfact>
</mgrwt>
</event>
<event>
 6    1  0.1828142E-002  0.9521219E+02  0.7546771E-02  0.1404293E+00
          2   -1    0    0  501    0  0.00000000000E+00  0.00000000000E+00  0.10801260435E+03  0.10801260435E+03  0.00000000000E+00 0. -1.
         -2   -1    0    0    0  501 -0.00000000000E+00 -0.00000000000E+00 -0.44535539899E+02  0.44535539899E+02  0.00000000000E+00 0.  1.
         23    2    1    2    0    0  0.43542088743E+01  0.12838594042E+02  0.81229240048E+01  0.95558061809E+02  0.94242095957E+02 0.  0.
         13    1    3    3    0    0 -0.20999801269E+01  0.53399346212E+02 -0.11509049397E+01  0.53453013709E+02  0.00000000000E+00 0.  1.
        -13    1    3    3    0    0  0.64541890011E+01 -0.40560752170E+02  0.92738289446E+01  0.42105048100E+02  0.00000000000E+00 0. -1.
         22    1    1    2    0    0 -0.43542088743E+01 -0.12838594042E+02  0.55354140444E+02  0.56990082437E+02  0.00000000000E+00 0.  1.
<mgrwt>
<rscale>  0 0.58486987E+02</rscale>
<asrwt>0</asrwt>
<pdfrwt beam="1">  1        2 0.16617324E-01 0.95212191E+02</pdfrwt>
<pdfrwt beam="2">  1       -2 0.68516216E-02 0.95212191E+02</pdfrwt>
<totfact> 0.36480833E+04</totfact>
</mgrwt>
</event>
<event>
 6    1  0.1828142E-002  0.9502017E+02  0.7546771E-02  0.1389340E+00
          2   -1    0    0  501    0  0.00000000000E+00  0.00000000000E+00  0.70200071350E+02  0.70200071350E+02  0.00000000000E+00 0. -1.
         -2   -1    0    0    0  501 -0.00000000000E+00 -0.00000000000E+00 -0.48433183538E+02  0.48433183538E+02  0.00000000000E+00 0.  1.
         23    2    1    2    0    0  0.14082202851E+02  0.10053410819E+02  0.59754601016E+01  0.95207869183E+02  0.93431540311E+02 0.  0.
         11    1    3    3    0    0  0.52517640413E+02 -0.63881797430E+01  0.71577257797E+01  0.53386743985E+02  0.00000000000E+00 0. -1.
        -11    1    3    3    0    0 -0.38435437562E+02  0.16441590562E+02 -0.11822656781E+01  0.41821125199E+02  0.00000000000E+00 0.  1.
         22    1    1    2    0    0 -0.14082202851E+02 -0.10053410819E+02  0.15791427711E+02  0.23425385704E+02  0.00000000000E+00 0. -1.
<mgrwt>
<rscale>  0 0.62071123E+02</rscale>
<asrwt>0</asrwt>
<pdfrwt beam="1">  1        2 0.10800011E-01 0.95020167E+02</pdfrwt>
<pdfrwt beam="2">  1       -2 0.74512590E-02 0.95020167E+02</pdfrwt>
<totfact> 0.53245546E+04</totfact>
</mgrwt>
</event>
<event>
 6    1  0.1828142E-002  0.1054613E+03  0.7546771E-02  0.1313024E+00
         -2   -1    0    0    0  501 -0.00000000000E+00  0.00000000000E+00  0.12484244486E+02  0.12484244486E+02  0.00000000000E+00 0.  1.
          2   -1    0    0  501    0  0.00000000000E+00 -0.00000000000E+00 -0.56214013752E+03  0.56214013752E+03  0.00000000000E+00 0. -1.
         23    2    1    2    0    0  0.40164963433E+02  0.23389257718E+02 -0.47589933738E+03  0.48744461849E+03  0.94666758238E+02 0.  0.
         13    1    3    3    0    0 -0.21485297553E+02  0.35854224766E+02 -0.16198645699E+03  0.16729242569E+03  0.00000000000E+00 0.  1.
        -13    1    3    3    0    0  0.61650260986E+02 -0.12464967048E+02 -0.31391288039E+03  0.32015219280E+03  0.00000000000E+00 0. -1.
         22    1    1    2    0    0 -0.40164963433E+02 -0.23389257718E+02 -0.73756555656E+02  0.87179763514E+02  0.00000000000E+00 0.  1.
<mgrwt>
<rscale>  0 0.85927763E+02</rscale>
<asrwt>0</asrwt>
<pdfrwt beam="1">  1        2 0.86483091E-01 0.10546126E+03</pdfrwt>
<pdfrwt beam="2">  1       -2 0.19206531E-02 0.10546126E+03</pdfrwt>
<totfact> 0.40494680E+04</totfact>
</mgrwt>
</event>
<event>
 6    1  0.1828142E-002  0.1031377E+03  0.7546771E-02  0.1310297E+00
         -2   -1    0    0    0  501 -0.00000000000E+00  0.00000000000E+00  0.83111660654E+01  0.83111660654E+01  0.00000000000E+00 0.  1.
          2   -1    0    0  501    0  0.00000000000E+00 -0.00000000000E+00 -0.73772739305E+03  0.73772739305E+03  0.00000000000E+00 0. -1.
         23    2    1    2    0    0 -0.52082293473E+02  0.35879362875E+01 -0.52706790875E+03  0.53706420549E+03  0.88949096712E+02 0.  0.
         11    1    3    3    0    0 -0.37209492543E+02  0.12949883396E+02 -0.51311336055E+03  0.51462371359E+03  0.00000000000E+00 0. -1.
        -11    1    3    3    0    0 -0.14872800930E+02 -0.93619471085E+01 -0.13954548194E+02  0.22440491895E+02  0.00000000000E+00 0.  1.
         22    1    1    2    0    0  0.52082293473E+02 -0.35879362875E+01 -0.20234831824E+03  0.20897435363E+03  0.00000000000E+00 0. -1.
<mgrwt>
<rscale>  0 0.86994653E+02</rscale>
<asrwt>0</asrwt>
<pdfrwt beam="1">  1        2 0.11349652E+00 0.10313768E+03</pdfrwt>
<pdfrwt beam="2">  1       -2 0.12786410E-02 0.10313768E+03</pdfrwt>
<totfact> 0.52977313E+04</totfact>
</mgrwt>
</event>
<event>
 6    1  0.1828142E-002  0.9688985E+02  0.7546771E-02  0.1363145E+00
         -2   -1    0    0    0  501 -0.00000000000E+00  0.00000000000E+00  0.69792843807E+01  0.69792843807E+01  0.00000000000E+00 0.  1.
          2   -1    0    0  501    0  0.00000000000E+00 -0.00000000000E+00 -0.53759296564E+03  0.53759296564E+03  0.00000000000E+00 0. -1.
         23    2    1    2    0    0 -0.21597972092E+02 -0.12750149193E+02 -0.39950765075E+03  0.41108880558E+03  0.93587415636E+02 0.  0.
         13    1    3    3    0    0 -0.28448422740E+02 -0.50651235538E+02 -0.22467767793E+03  0.23206662702E+03  0.00000000000E+00 0.  1.
        -13    1    3    3    0    0  0.68504506482E+01  0.37901086345E+02 -0.17482997282E+03  0.17902217856E+03  0.00000000000E+00 0. -1.
         22    1    1    2    0    0  0.21597972092E+02  0.12750149193E+02 -0.13110603051E+03  0.13348344444E+03  0.00000000000E+00 0.  1.
<mgrwt>
<rscale>  0 0.69110396E+02</rscale>
<asrwt>0</asrwt>
<pdfrwt beam="1">  1        2 0.82706624E-01 0.96889850E+02</pdfrwt>
<pdfrwt beam="2">  1       -2 0.10737359E-02 0.96889850E+02</pdfrwt>
<totfact> 0.96654712E+04</totfact>
</mgrwt>
</event>
<event>
 6    1  0.1828142E-002  0.9456237E+02  0.7546771E-02  0.1363677E+00
         -4   -1    0    0    0  501 -0.00000000000E+00  0.00000000000E+00  0.33036881635E+02  0.33036881635E+02  0.00000000000E+00 0.  1.
          4   -1    0    0  501    0  0.00000000000E+00 -0.00000000000E+00 -0.14061595660E+03  0.14061595660E+03  0.00000000000E+00 0. -1.
         23    2    1    2    0    0 -0.26659909701E+02 -0.20632153526E+01 -0.43242154221E+02  0.10398041174E+03  0.90703001500E+02 0.  0.
         11    1    3    3    0    0 -0.25460949813E+02  0.38729212481E+02 -0.26567010076E+01  0.46424884760E+02  0.00000000000E+00 0. -1.
        -11    1    3    3    0    0 -0.11989598882E+01 -0.40792427833E+02 -0.40585453213E+02  0.57555526979E+02  0.00000000000E+00 0.  1.
         22    1    1    2    0    0  0.26659909701E+02  0.20632153526E+01 -0.64336920749E+02  0.69672426500E+02  0.00000000000E+00 0. -1.
<mgrwt>
<rscale>  0 0.68956880E+02</rscale>
<asrwt>0</asrwt>
<pdfrwt beam="1">  1        4 0.21633224E-01 0.94562372E+02</pdfrwt>
<pdfrwt beam="2">  1       -4 0.50825973E-02 0.94562372E+02</pdfrwt>
<totfact> 0.67268847E+03</totfact>
</mgrwt>
</event>
<event>
 6    1  0.1828142E-002  0.9467270E+02  0.7546771E-02  0.1373475E+00
          1   -1    0    0  501    0  0.00000000000E+00  0.00000000000E+00  0.17368217462E+03  0.17368217462E+03  0.00000000000E+00 0. -1.
         -1   -1    0    0    0  501 -0.00000000000E+00 -0.00000000000E+00 -0.19861709053E+02  0.19861709053E+02  0.00000000000E+00 0.  1.
         23    2    1    2    0    0  0.14724312731E+02 -0.17208381312E+02  0.12782264729E+03  0.15906460979E+03  0.91923811671E+02 0.  0.
         13    1    3    3    0    0 -0.31172723395E+02 -0.12667341479E+02  0.14356185079E+02  0.36582786581E+02  0.00000000000E+00 0.  1.
        -13    1    3    3    0    0  0.45897036126E+02 -0.45410398330E+01  0.11346646222E+03  0.12248182320E+03  0.00000000000E+00 0. -1.
         22    1    1    2    0    0 -0.14724312731E+02  0.17208381312E+02  0.25997818270E+02  0.34479273884E+02  0.00000000000E+00 0.  1.
<mgrwt>
<rscale>  0 0.66210406E+02</rscale>
<asrwt>0</asrwt>
<pdfrwt beam="1">  1        1 0.26720334E-01 0.94672704E+02</pdfrwt>
<pdfrwt beam="2">  1       -1 0.30556477E-02 0.94672704E+02</pdfrwt>
<totfact> 0.56055547E+04</totfact>
</mgrwt>
</event>
<event>
 6    1  0.1828142E-002  0.9397870E+02  0.7546771E-02  0.1353652E+00
         -4   -1    0    0    0  501 -0.00000000000E+00  0.00000000000E+00  0.23400068767E+02  0.23400068767E+02  0.00000000000E+00 0.  1.
          4   -1    0    0  501    0  0.00000000000E+00 -0.00000000000E+00 -0.17244859002E+03  0.17244859002E+03  0.00000000000E+00 0. -1.
         23    2    1    2    0    0 -0.15049394410E+02 -0.28524184858E+02 -0.12020021746E+03  0.15257813735E+03  0.88271639416E+02 0.  0.
         11    1    3    3    0    0  0.28730679467E+02  0.10036109541E+02 -0.19333935739E+02  0.36055186985E+02  0.00000000000E+00 0.  1.
        -11    1    3    3    0    0 -0.43780073877E+02 -0.38560294400E+02 -0.10086628172E+03  0.11652295036E+03  0.00000000000E+00 0. -1.
         22    1    1    2    0    0  0.15049394410E+02  0.28524184858E+02 -0.28848303795E+02  0.43270521441E+02  0.00000000000E+00 0.  1.
<mgrwt>
<rscale>  0 0.71929519E+02</rscale>
<asrwt>0</asrwt>
<pdfrwt beam="1">  1        4 0.26530552E-01 0.93978698E+02</pdfrwt>
<pdfrwt beam="2">  1       -4 0.36000106E-02 0.93978698E+02</pdfrwt>
<totfact> 0.79878306E+03</totfact>
</mgrwt>
</event>
<event>
 6    1  0.1828142E-002  0.9231469E+02  0.7546771E-02  0.1402620E+00
         -2   -1    0    0    0  501 -0.00000000000E+00  0.00000000000E+00  0.23778723431E+02  0.23778723431E+02  0.00000000000E+00 0.  1.
          2   -1    0    0  501    0  0.00000000000E+00 -0.00000000000E+00 -0.18348561669E+03  0.18348561669E+03  0.00000000000E+00 0. -1.
         23    2    1    2    0    0  0.15242375587E+02  0.93648086373E+00 -0.68925127844E+02  0.11520709738E+03  0.91042819748E+02 0.  0.
         13    1    3    3    0    0  0.15930006046E+02  0.32999843256E+02 -0.74153157575E+02  0.82713031173E+02  0.00000000000E+00 0.  1.
        -13    1    3    3    0    0 -0.68763045941E+00 -0.32063362393E+02  0.52280297306E+01  0.32494066203E+02  0.00000000000E+00 0. -1.
         22    1    1    2    0    0 -0.15242375587E+02 -0.93648086373E+00 -0.90781765412E+02  0.92057242741E+02  0.00000000000E+00 0. -1.
<mgrwt>
<rscale>  0 0.58873630E+02</rscale>
<asrwt>0</asrwt>
<pdfrwt beam="1">  1        2 0.28228557E-01 0.92314690E+02</pdfrwt>
<pdfrwt beam="2">  1       -2 0.36582651E-02 0.92314690E+02</pdfrwt>
<totfact> 0.51373641E+04</totfact>
</mgrwt>
</event>
<event>
 6    1  0.1828142E-002  0.9285686E+02  0.7546771E-02  0.1356722E+00
          2   -1    0    0  501    0  0.00000000000E+00  0.00000000000E+00  0.13474684296E+02  0.13474684296E+02  0.00000000000E+00 0. -1.
         -2   -1    0    0    0  501 -0.00000000000E+00 -0.00000000000E+00 -0.76379182694E+03  0.76379182694E+03  0.00000000000E+00 0.  1.
         23    2    1    2    0    0 -0.10612123497E+02  0.29913927165E+02 -0.73703115085E+03  0.74285753302E+03  0.87263605502E+02 0.  0.
         13    1    3    3    0    0 -0.40772446659E+02  0.28824605166E+02 -0.25264080578E+03  0.25752791502E+03  0.00000000000E+00 0. -1.
        -13    1    3    3    0    0  0.30160323162E+02  0.10893219998E+01 -0.48439034507E+03  0.48532961800E+03  0.00000000000E+00 0.  1.
         22    1    1    2    0    0  0.10612123497E+02 -0.29913927165E+02 -0.13285991795E+02  0.34408978211E+02  0.00000000000E+00 0. -1.
<mgrwt>
<rscale>  0 0.71000923E+02</rscale>
<asrwt>0</asrwt>
<pdfrwt beam="1">  1        2 0.20730281E-02 0.92856863E+02</pdfrwt>
<pdfrwt beam="2">  1       -2 0.11750645E+00 0.92856863E+02</pdfrwt>
<totfact> 0.28060823E+03</totfact>
</mgrwt>
</event>
<event>
 6    1  0.1828142E-002  0.1030158E+03  0.7546771E-02  0.1347139E+00
          2   -1    0    0  501    0  0.00000000000E+00  0.00000000000E+00  0.21093435870E+02  0.21093435870E+02  0.00000000000E+00 0.  1.
         -2   -1    0    0    0  501 -0.00000000000E+00 -0.00000000000E+00 -0.20326706564E+03  0.20326706564E+03  0.00000000000E+00 0. -1.
         23    2    1    2    0    0  0.21492643740E+02 -0.16934200113E+02 -0.15209105680E+03  0.18369525757E+03  0.99315443040E+02 0.  0.
         11    1    3    3    0    0 -0.30270245669E+02 -0.36672230941E+02 -0.66980655749E+02  0.82143463158E+02  0.00000000000E+00 0. -1.
        -11    1    3    3    0    0  0.51762889408E+02  0.19738030829E+02 -0.85110401054E+02  0.10155179441E+03  0.00000000000E+00 0.  1.
         22    1    1    2    0    0 -0.21492643740E+02  0.16934200113E+02 -0.30082572970E+02  0.40665243942E+02  0.00000000000E+00 0. -1.
<mgrwt>
<rscale>  0 0.73954817E+02</rscale>
<asrwt>0</asrwt>
<pdfrwt beam="1">  1        2 0.32451440E-02 0.10301581E+03</pdfrwt>
<pdfrwt beam="2">  1       -2 0.31271856E-01 0.10301581E+03</pdfrwt>
<totfact> 0.23776572E+04</totfact>
</mgrwt>
</event>
<event>
 6    1  0.1828142E-002  0.9254393E+02  0.7546771E-02  0.1411942E+00
          2   -1    0    0  501    0  0.00000000000E+00  0.00000000000E+00  0.67656121147E+02  0.67656121147E+02  0.00000000000E+00 0. -1.
         -2   -1    0    0    0  501 -0.00000000000E+00 -0.00000000000E+00 -0.83146873007E+02  0.83146873007E+02  0.00000000000E+00 0.  1.
         23    2    1    2    0    0 -0.32713687790E+01 -0.12683115837E+02 -0.56041175712E+02  0.10818961415E+03  0.91612313327E+02 0.  0.
         13    1    3    3    0    0 -0.43969274604E+02  0.64863595418E+01 -0.13951606750E+02  0.46583444487E+02  0.00000000000E+00 0. -1.
        -13    1    3    3    0    0  0.40697905825E+02 -0.19169475379E+02 -0.42089568962E+02  0.61606169661E+02  0.00000000000E+00 0.  1.
         22    1    1    2    0    0  0.32713687790E+01  0.12683115837E+02  0.40550423852E+02  0.42613380007E+02  0.00000000000E+00 0. -1.
<mgrwt>
<rscale>  0 0.56762825E+02</rscale>
<asrwt>0</asrwt>
<pdfrwt beam="1">  1        2 0.10408634E-01 0.92543931E+02</pdfrwt>
<pdfrwt beam="2">  1       -2 0.12791827E-01 0.92543931E+02</pdfrwt>
<totfact> 0.23950046E+04</totfact>
</mgrwt>
</event>
<event>
 6    1  0.1828142E-002  0.9124615E+02  0.7546771E-02  0.1418625E+00
         -2   -1    0    0    0  501 -0.00000000000E+00  0.00000000000E+00  0.61012051529E+01  0.61012051529E+01  0.00000000000E+00 0.  1.
          2   -1    0    0  501    0  0.00000000000E+00 -0.00000000000E+00 -0.43960308384E+03  0.43960308384E+03  0.00000000000E+00 0. -1.
         23    2    1    2    0    0  0.67595173627E+01  0.10301780984E+02 -0.37983247255E+03  0.39063866522E+03  0.90410407558E+02 0.  0.
         13    1    3    3    0    0 -0.21457957094E+02 -0.72208616280E+01 -0.23035312741E+02  0.32298767753E+02  0.00000000000E+00 0.  1.
        -13    1    3    3    0    0  0.28217474456E+02  0.17522642612E+02 -0.35679715981E+03  0.35833989747E+03  0.00000000000E+00 0. -1.
         22    1    1    2    0    0 -0.67595173627E+01 -0.10301780984E+02 -0.53669406141E+02  0.55065623777E+02  0.00000000000E+00 0. -1.
<mgrwt>
<rscale>  0 0.55312875E+02</rscale>
<asrwt>0</asrwt>
<pdfrwt beam="1">  1        2 0.67631252E-01 0.91246148E+02</pdfrwt>
<pdfrwt beam="2">  1       -2 0.93864683E-03 0.91246148E+02</pdfrwt>
<totfact> 0.14400726E+05</totfact>
</mgrwt>
</event>
<event>
 6    1  0.1828142E-002  0.8979752E+02  0.7546771E-02  0.1416529E+00
         -2   -1    0    0    0  501 -0.00000000000E+00  0.00000000000E+00  0.45289994190E+02  0.45289994190E+02  0.00000000000E+00 0.  1.
          2   -1    0    0  501    0  0.00000000000E+00 -0.00000000000E+00 -0.59315720740E+02  0.59315720740E+02  0.00000000000E+00 0. -1.
         23    2    1    2    0    0  0.10530026252E+02  0.82100961850E+01 -0.86550728642E+01  0.90213666666E+02  0.88799258075E+02 0.  0.
         11    1    3    3    0    0  0.31163842873E+02  0.26989870762E+02 -0.33293561214E+02  0.52991503514E+02  0.00000000000E+00 0. -1.
        -11    1    3    3    0    0 -0.20633816621E+02 -0.18779774577E+02  0.24638488350E+02  0.37222163152E+02  0.00000000000E+00 0.  1.
         22    1    1    2    0    0 -0.10530026252E+02 -0.82100961850E+01 -0.53706536863E+01  0.14392048265E+02  0.00000000000E+00 0. -1.
<mgrwt>
<rscale>  0 0.55761991E+02</rscale>
<asrwt>0</asrwt>
<pdfrwt beam="1">  1        2 0.91254955E-02 0.89797524E+02</pdfrwt>
<pdfrwt beam="2">  1       -2 0.69676914E-02 0.89797524E+02</pdfrwt>
<totfact> 0.71742040E+04</totfact>
</mgrwt>
</event>
<event>
 6    1  0.1828142E-002  0.9494605E+02  0.7546771E-02  0.1398196E+00
         -1   -1    0    0    0  501 -0.00000000000E+00  0.00000000000E+00  0.51438698652E+02  0.51438698652E+02  0.00000000000E+00 0.  1.
          1   -1    0    0  501    0  0.00000000000E+00 -0.00000000000E+00 -0.65716704560E+02  0.65716704560E+02  0.00000000000E+00 0. -1.
         23    2    1    2    0    0  0.29109199861E+00  0.15051618957E+02  0.20212079112E+01  0.94967561071E+02  0.93744954032E+02 0.  0.
         11    1    3    3    0    0  0.27228332009E+02 -0.16522666858E+02 -0.29061083823E+02  0.43115277769E+02  0.00000000000E+00 0.  1.
        -11    1    3    3    0    0 -0.26937240010E+02  0.31574285815E+02  0.31082291735E+02  0.51852283302E+02  0.00000000000E+00 0. -1.
         22    1    1    2    0    0 -0.29109199861E+00 -0.15051618957E+02 -0.16299213819E+02  0.22187842142E+02  0.00000000000E+00 0.  1.
<mgrwt>
<rscale>  0 0.59913374E+02</rscale>
<asrwt>0</asrwt>
<pdfrwt beam="1">  1        1 0.10110262E-01 0.94946050E+02</pdfrwt>
<pdfrwt beam="2">  1       -1 0.79136460E-02 0.94946050E+02</pdfrwt>
<totfact> 0.47922513E+04</totfact>
</mgrwt>
</event>
<event>
 6    1  0.1828142E-002  0.9807756E+02  0.7546771E-02  0.1337639E+00
          1   -1    0    0  501    0  0.00000000000E+00  0.00000000000E+00  0.45031817461E+03  0.45031817461E+03  0.00000000000E+00 0. -1.
         -1   -1    0    0    0  501 -0.00000000000E+00 -0.00000000000E+00 -0.10313787429E+02  0.10313787429E+02  0.00000000000E+00 0.  1.
         23    2    1    2    0    0  0.74187575741E+01 -0.36612950962E+02  0.29417588868E+03  0.31009460084E+03  0.90684407954E+02 0.  0.
         13    1    3    3    0    0  0.29751930386E+02 -0.26354933654E+02  0.27764591274E+03  0.28047640319E+03  0.00000000000E+00 0. -1.
        -13    1    3    3    0    0 -0.22333172812E+02 -0.10258017308E+02  0.16529975944E+02  0.29618197643E+02  0.00000000000E+00 0.  1.
         22    1    1    2    0    0 -0.74187575741E+01  0.36612950962E+02  0.14582849850E+03  0.15053736120E+03  0.00000000000E+00 0. -1.
<mgrwt>
<rscale>  0 0.77049579E+02</rscale>
<asrwt>0</asrwt>
<pdfrwt beam="1">  1        1 0.69279704E-01 0.98077561E+02</pdfrwt>
<pdfrwt beam="2">  1       -1 0.15867369E-02 0.98077561E+02</pdfrwt>
<totfact> 0.44529095E+04</totfact>
</mgrwt>
</event>
<event>
 6    1  0.1828142E-002  0.9072841E+02  0.7546771E-02  0.1429937E+00
         -1   -1    0    0    0  501 -0.00000000000E+00  0.00000000000E+00  0.29877226255E+03  0.29877226255E+03  0.00000000000E+00 0.  1.
          1   -1    0    0  501    0  0.00000000000E+00 -0.00000000000E+00 -0.87841073180E+01  0.87841073180E+01  0.00000000000E+00 0. -1.
         23    2    1    2    0    0 -0.10366940578E+02 -0.19207218158E+01  0.27168218400E+03  0.28643123763E+03  0.90113717928E+02 0.  0.
         13    1    3    3    0    0  0.39862329932E+02 -0.60679176852E+01  0.11902178298E+03  0.12566626356E+03  0.00000000000E+00 0. -1.
        -13    1    3    3    0    0 -0.50229270510E+02  0.41471958694E+01  0.15266040102E+03  0.16076497407E+03  0.00000000000E+00 0.  1.
         22    1    1    2    0    0  0.10366940578E+02  0.19207218158E+01  0.18305971227E+02  0.21125132232E+02  0.00000000000E+00 0. -1.
<mgrwt>
<rscale>  0 0.52972727E+02</rscale>
<asrwt>0</asrwt>
<pdfrwt beam="1">  1        1 0.13514014E-02 0.90728412E+02</pdfrwt>
<pdfrwt beam="2">  1       -1 0.45964956E-01 0.90728412E+02</pdfrwt>
<totfact> 0.43901788E+04</totfact>
</mgrwt>
</event>
<event>
 6    1  0.1828142E-002  0.8978612E+02  0.7546771E-02  0.1418967E+00
         -2   -1    0    0    0  501 -0.00000000000E+00  0.00000000000E+00  0.31034530861E+02  0.31034530861E+02  0.00000000000E+00 0. -1.
          2   -1    0    0  501    0  0.00000000000E+00 -0.00000000000E+00 -0.85745622166E+02  0.85745622166E+02  0.00000000000E+00 0.  1.
         23    2    1    2    0    0 -0.29729034267E+01 -0.12516184944E+02 -0.43743655776E+02  0.99875192737E+02  0.88859741522E+02 0.  0.
         11    1    3    3    0    0  0.36196863761E+02  0.43884857144E+01 -0.44087744445E+02  0.57211895295E+02  0.00000000000E+00 0.  1.
        -11    1    3    3    0    0 -0.39169767188E+02 -0.16904670659E+02  0.34408866874E+00  0.42663297442E+02  0.00000000000E+00 0. -1.
         22    1    1    2    0    0  0.29729034267E+01  0.12516184944E+02 -0.10967435529E+02  0.16904960291E+02  0.00000000000E+00 0.  1.
<mgrwt>
<rscale>  0 0.55240087E+02</rscale>
<asrwt>0</asrwt>
<pdfrwt beam="1">  1        2 0.13191634E-01 0.89786116E+02</pdfrwt>
<pdfrwt beam="2">  1       -2 0.47745433E-02 0.89786116E+02</pdfrwt>
<totfact> 0.81208106E+04</totfact>
</mgrwt>
</event>
<event>
 6    1  0.1828142E-002  0.9341122E+02  0.7546771E-02  0.1372575E+00
         -2   -1    0    0    0  501 -0.00000000000E+00  0.00000000000E+00  0.68289238069E+02  0.68289238069E+02  0.00000000000E+00 0.  1.
          2   -1    0    0  501    0  0.00000000000E+00 -0.00000000000E+00 -0.51484839109E+02  0.51484839109E+02  0.00000000000E+00 0. -1.
         23    2    1    2    0    0  0.17949347569E+02  0.15827209001E+02  0.20293946731E+02  0.95590269236E+02  0.90293829666E+02 0.  0.
         13    1    3    3    0    0 -0.16712244457E+01  0.25438950520E+02  0.51518313069E+02  0.57481038406E+02  0.00000000000E+00 0.  1.
        -13    1    3    3    0    0  0.19620572015E+02 -0.96117415197E+01 -0.31224366338E+02  0.38109230830E+02  0.00000000000E+00 0. -1.
         22    1    1    2    0    0 -0.17949347569E+02 -0.15827209001E+02 -0.34895477714E+01  0.24183807942E+02  0.00000000000E+00 0.  1.
<mgrwt>
<rscale>  0 0.66456618E+02</rscale>
<asrwt>0</asrwt>
<pdfrwt beam="1">  1        2 0.79207445E-02 0.93411216E+02</pdfrwt>
<pdfrwt beam="2">  1       -2 0.10506037E-01 0.93411216E+02</pdfrwt>
<totfact> 0.45701751E+04</totfact>
</mgrwt>
</event>
<event>
 6    1  0.1828142E-002  0.9441918E+02  0.7546771E-02  0.1371938E+00
          2   -1    0    0  501    0  0.00000000000E+00  0.00000000000E+00  0.14791783177E+03  0.14791783177E+03  0.00000000000E+00 0.  1.
         -2   -1    0    0    0  501 -0.00000000000E+00 -0.00000000000E+00 -0.25014826189E+02  0.25014826189E+02  0.00000000000E+00 0. -1.
         23    2    1    2    0    0 -0.20919574347E+02 -0.10523348656E+02  0.11364836983E+03  0.14775294905E+03  0.91469188963E+02 0.  0.
         13    1    3    3    0    0 -0.34481787836E+02 -0.32295587072E+02  0.11256719142E+03  0.12207936443E+03  0.00000000000E+00 0.  1.
        -13    1    3    3    0    0  0.13562213489E+02  0.21772238415E+02  0.10811784154E+01  0.25673584617E+02  0.00000000000E+00 0. -1.
         22    1    1    2    0    0  0.20919574347E+02  0.10523348656E+02  0.92546357466E+01  0.25179708906E+02  0.00000000000E+00 0. -1.
<mgrwt>
<rscale>  0 0.66631461E+02</rscale>
<asrwt>0</asrwt>
<pdfrwt beam="1">  1        2 0.22756589E-01 0.94419182E+02</pdfrwt>
<pdfrwt beam="2">  1       -2 0.38484349E-02 0.94419182E+02</pdfrwt>
<totfact> 0.60485012E+04</totfact>
</mgrwt>
</event>
<event>
 6    1  0.1828142E-002  0.1018185E+03  0.7546771E-02  0.1359996E+00
          4   -1    0    0  501    0  0.00000000000E+00  0.00000000000E+00  0.30033563099E+02  0.30033563099E+02  0.00000000000E+00 0. -1.
         -4   -1    0    0    0  501 -0.00000000000E+00 -0.00000000000E+00 -0.22579099715E+03  0.22579099715E+03  0.00000000000E+00 0.  1.
         23    2    1    2    0    0  0.12767967140E+02  0.18869809280E+02 -0.20679963138E+03  0.23050617150E+03  0.99236670994E+02 0.  0.
         13    1    3    3    0    0 -0.47160520694E+01  0.36867459527E+02 -0.20145026132E+03  0.20485033196E+03  0.00000000000E+00 0.  1.
        -13    1    3    3    0    0  0.17484019210E+02 -0.17997650247E+02 -0.53493700647E+01  0.25655839534E+02  0.00000000000E+00 0. -1.
         22    1    1    2    0    0 -0.12767967140E+02 -0.18869809280E+02  0.11042197332E+02  0.25318388753E+02  0.00000000000E+00 0. -1.
<mgrwt>
<rscale>  0 0.70028599E+02</rscale>
<asrwt>0</asrwt>
<pdfrwt beam="1">  1        4 0.46205483E-02 0.10181850E+03</pdfrwt>
<pdfrwt beam="2">  1       -4 0.34737076E-01 0.10181850E+03</pdfrwt>
<totfact> 0.33178866E+03</totfact>
</mgrwt>
</event>
<event>
 6    1  0.1828142E-002  0.1217618E+03  0.7546771E-02  0.1333201E+00
         -2   -1    0    0    0  501 -0.00000000000E+00  0.00000000000E+00  0.74959468227E+03  0.74959468227E+03  0.00000000000E+00 0.  1.
          2   -1    0    0  501    0  0.00000000000E+00 -0.00000000000E+00 -0.78329406770E+01  0.78329406770E+01  0.00000000000E+00 0. -1.
         23    2    1    2    0    0 -0.12163749279E+02 -0.17234668262E+02  0.70135338451E+03  0.71184444723E+03  0.11992062582E+03 0.  0.
         13    1    3    3    0    0 -0.11836905575E+02 -0.55051303334E+02  0.61500621566E+03  0.61757866190E+03  0.00000000000E+00 0.  1.
        -13    1    3    3    0    0 -0.32684370354E+00  0.37816635072E+02  0.86347168846E+02  0.94265785324E+02  0.00000000000E+00 0. -1.
         22    1    1    2    0    0  0.12163749279E+02  0.17234668262E+02  0.40408357083E+02  0.45583175720E+02  0.00000000000E+00 0.  1.
<mgrwt>
<rscale>  0 0.78555622E+02</rscale>
<asrwt>0</asrwt>
<pdfrwt beam="1">  1        2 0.12050684E-02 0.12176185E+03</pdfrwt>
<pdfrwt beam="2">  1       -2 0.11532220E+00 0.12176185E+03</pdfrwt>
<totfact> 0.63136291E+03</totfact>
</mgrwt>
</event>
<event>
 6    1  0.1828142E-002  0.9442248E+02  0.7546771E-02  0.1400092E+00
         -2   -1    0    0    0  501 -0.00000000000E+00  0.00000000000E+00  0.21213211873E+02  0.21213211873E+02  0.00000000000E+00 0. -1.
          2   -1    0    0  501    0  0.00000000000E+00 -0.00000000000E+00 -0.17281973735E+03  0.17281973735E+03  0.00000000000E+00 0.  1.
         23    2    1    2    0    0 -0.11917797636E+02  0.88643388855E+01 -0.89234824845E+02  0.12991712088E+03  0.93246951309E+02 0.  0.
         13    1    3    3    0    0 -0.11447562373E+02  0.35245667481E+02 -0.95807932468E+02  0.10272518525E+03  0.00000000000E+00 0.  1.
        -13    1    3    3    0    0 -0.47023526307E+00 -0.26381328595E+02  0.65731076225E+01  0.27191935633E+02  0.00000000000E+00 0. -1.
         22    1    1    2    0    0  0.11917797636E+02 -0.88643388855E+01 -0.62371700627E+02  0.64115828338E+02  0.00000000000E+00 0.  1.
<mgrwt>
<rscale>  0 0.59464777E+02</rscale>
<asrwt>0</asrwt>
<pdfrwt beam="1">  1        2 0.26587651E-01 0.94422478E+02</pdfrwt>
<pdfrwt beam="2">  1       -2 0.32635712E-02 0.94422478E+02</pdfrwt>
<totfact> 0.64963260E+04</totfact>
</mgrwt>
</event>
<event>
 6    1  0.1828142E-002  0.8964677E+02  0.7546771E-02  0.1385542E+00
         -2   -1    0    0    0  501 -0.00000000000E+00  0.00000000000E+00  0.21060209013E+03  0.21060209013E+03  0.00000000000E+00 0.  1.
          2   -1    0    0  501    0  0.00000000000E+00 -0.00000000000E+00 -0.15020846058E+02  0.15020846058E+02  0.00000000000E+00 0. -1.
         23    2    1    2    0    0 -0.21806626008E+02  0.20834330619E+01  0.16778384777E+03  0.19023134294E+03  0.86929135704E+02 0.  0.
         11    1    3    3    0    0 -0.31227895551E+02 -0.57278846479E+01  0.17374249566E+03  0.17661949190E+03  0.00000000000E+00 0.  1.
        -11    1    3    3    0    0  0.94212695429E+01  0.78113177098E+01 -0.59586478848E+01  0.13611851042E+02  0.00000000000E+00 0. -1.
         22    1    1    2    0    0  0.21806626008E+02 -0.20834330619E+01  0.27797396298E+02  0.35391593241E+02  0.00000000000E+00 0. -1.
<mgrwt>
<rscale>  0 0.63029144E+02</rscale>
<asrwt>0</asrwt>
<pdfrwt beam="1">  1        2 0.23108996E-02 0.89646775E+02</pdfrwt>
<pdfrwt beam="2">  1       -2 0.32400319E-01 0.89646775E+02</pdfrwt>
<totfact> 0.34452006E+04</totfact>
</mgrwt>
</event>
<event>
 6    1  0.1828142E-002  0.9333536E+02  0.7546771E-02  0.1421088E+00
         -2   -1    0    0    0  501 -0.00000000000E+00  0.00000000000E+00  0.78989471689E+02  0.78989471689E+02  0.00000000000E+00 0.  1.
          2   -1    0    0  501    0  0.00000000000E+00 -0.00000000000E+00 -0.55463895623E+02  0.55463895623E+02  0.00000000000E+00 0. -1.
         23    2    1    2    0    0 -0.10155108356E+02  0.44427921827E+01  0.49905190496E+02  0.10583958243E+03  0.92674832298E+02 0.  0.
         11    1    3    3    0    0  0.23401004330E+02 -0.17117803617E+02  0.58271313537E+02  0.65085883151E+02  0.00000000000E+00 0.  1.
        -11    1    3    3    0    0 -0.33556112686E+02  0.21560595799E+02 -0.83661230409E+01  0.40753699274E+02  0.00000000000E+00 0. -1.
         22    1    1    2    0    0  0.10155108356E+02 -0.44427921827E+01 -0.26379614429E+02  0.28613784887E+02  0.00000000000E+00 0. -1.
<mgrwt>
<rscale>  0 0.54791477E+02</rscale>
<asrwt>0</asrwt>
<pdfrwt beam="1">  1        2 0.85329071E-02 0.93335359E+02</pdfrwt>
<pdfrwt beam="2">  1       -2 0.12152226E-01 0.93335359E+02</pdfrwt>
<totfact> 0.33145829E+04</totfact>
</mgrwt>
</event>
<event>
 6    1  0.1828142E-002  0.9328946E+02  0.7546771E-02  0.1417312E+00
         -2   -1    0    0    0  501 -0.00000000000E+00  0.00000000000E+00  0.24865923300E+03  0.24865923300E+03  0.00000000000E+00 0.  1.
          2   -1    0    0  501    0  0.00000000000E+00 -0.00000000000E+00 -0.22662012764E+02  0.22662012764E+02  0.00000000000E+00 0. -1.
         23    2    1    2    0    0  0.90883493635E+01  0.74716058301E+01  0.23731693627E+03  0.25499461235E+03  0.92544589793E+02 0.  0.
         13    1    3    3    0    0  0.40349751687E+02  0.26190758531E+02  0.78627242255E+02  0.92175384557E+02  0.00000000000E+00 0. -1.
        -13    1    3    3    0    0 -0.31261402323E+02 -0.18719152701E+02  0.15868969401E+03  0.16281922779E+03  0.00000000000E+00 0.  1.
         22    1    1    2    0    0 -0.90883493635E+01 -0.74716058301E+01 -0.11319716028E+02  0.16326633419E+02  0.00000000000E+00 0. -1.
<mgrwt>
<rscale>  0 0.55593687E+02</rscale>
<asrwt>0</asrwt>
<pdfrwt beam="1">  1        2 0.34864637E-02 0.93289464E+02</pdfrwt>
<pdfrwt beam="2">  1       -2 0.38255265E-01 0.93289464E+02</pdfrwt>
<totfact> 0.14774364E+04</totfact>
</mgrwt>
</event>
<event>
 6    1  0.1828142E-002  0.9316051E+02  0.7546771E-02  0.1378426E+00
          2   -1    0    0  501    0  0.00000000000E+00  0.00000000000E+00  0.53476142601E+03  0.53476142601E+03  0.00000000000E+00 0. -1.
         -2   -1    0    0    0  501 -0.00000000000E+00 -0.00000000000E+00 -0.62416729336E+01  0.62416729336E+01  0.00000000000E+00 0.  1.
         23    2    1    2    0    0 -0.20611806499E+02 -0.74428137588E+01  0.44577555615E+03  0.45540611203E+03  0.90546332720E+02 0.  0.
         13    1    3    3    0    0 -0.46228195334E+02 -0.88523192442E+01  0.12437537325E+03  0.13298361956E+03  0.00000000000E+00 0.  1.
        -13    1    3    3    0    0  0.25616388836E+02  0.14095054854E+01  0.32140018291E+03  0.32242249248E+03  0.00000000000E+00 0. -1.
         22    1    1    2    0    0  0.20611806499E+02  0.74428137588E+01  0.82744196918E+02  0.85596986906E+02  0.00000000000E+00 0.  1.
<mgrwt>
<rscale>  0 0.64879338E+02</rscale>
<asrwt>0</asrwt>
<pdfrwt beam="1">  1        2 0.82270952E-01 0.93160509E+02</pdfrwt>
<pdfrwt beam="2">  1       -2 0.96025780E-03 0.93160509E+02</pdfrwt>
<totfact> 0.11326347E+05</totfact>
</mgrwt>
</event>
<event>
 6    1  0.1828142E-002  0.1068589E+03  0.7546771E-02  0.1367176E+00
         -2   -1    0    0    0  501 -0.00000000000E+00  0.00000000000E+00  0.32906170920E+02  0.32906170920E+02  0.00000000000E+00 0.  1.
          2   -1    0    0  501    0  0.00000000000E+00 -0.00000000000E+00 -0.12092286138E+03  0.12092286138E+03  0.00000000000E+00 0. -1.
         23    2    1    2    0    0  0.17283763467E+02 -0.26128673895E+01 -0.65545773308E+02  0.12535979147E+03  0.10541951131E+03 0.  0.
         11    1    3    3    0    0  0.15105595118E+02  0.12171957403E+02  0.26090844185E+02  0.32512577584E+02  0.00000000000E+00 0.  1.
        -11    1    3    3    0    0  0.21781683498E+01 -0.14784824792E+02 -0.91636617492E+02  0.92847213889E+02  0.00000000000E+00 0. -1.
         22    1    1    2    0    0 -0.17283763467E+02  0.26128673895E+01 -0.22470917147E+02  0.28469240823E+02  0.00000000000E+00 0. -1.
<mgrwt>
<rscale>  0 0.67958590E+02</rscale>
<asrwt>0</asrwt>
<pdfrwt beam="1">  1        2 0.18603517E-01 0.10685892E+03</pdfrwt>
<pdfrwt beam="2">  1       -2 0.50624878E-02 0.10685892E+03</pdfrwt>
<totfact> 0.51316511E+04</totfact>
</mgrwt>
</event>
<event>
 6    1  0.1828142E-002  0.9229699E+02  0.7546771E-02  0.1409134E+00
          1   -1    0    0  501    0  0.00000000000E+00  0.00000000000E+00  0.81351834870E+02  0.81351834870E+02  0.00000000000E+00 0. -1.
         -1   -1    0    0    0  501 -0.00000000000E+00 -0.00000000000E+00 -0.54186237190E+02  0.54186237190E+02  0.00000000000E+00 0.  1.
         23    2    1    2    0    0 -0.11546794341E+02 -0.75472307325E+01 -0.12872429105E+02  0.93190312496E+02  0.91260318654E+02 0.  0.
         13    1    3    3    0    0 -0.14202818587E+02 -0.43047560541E+02 -0.29308568103E+02  0.53979669215E+02  0.00000000000E+00 0.  1.
        -13    1    3    3    0    0  0.26560242454E+01  0.35500329809E+02  0.16436138999E+02  0.39210643281E+02  0.00000000000E+00 0. -1.
         22    1    1    2    0    0  0.11546794341E+02  0.75472307325E+01  0.40038026784E+02  0.42347759564E+02  0.00000000000E+00 0. -1.
<mgrwt>
<rscale>  0 0.57387515E+02</rscale>
<asrwt>0</asrwt>
<pdfrwt beam="1">  1        1 0.12515667E-01 0.92296993E+02</pdfrwt>
<pdfrwt beam="2">  1       -1 0.83363442E-02 0.92296993E+02</pdfrwt>
<totfact> 0.33453120E+04</totfact>
</mgrwt>
</event>
<event>
 6    1  0.1828142E-002  0.8859179E+02  0.7546771E-02  0.1434600E+00
          4   -1    0    0  501    0  0.00000000000E+00  0.00000000000E+00  0.89299328186E+01  0.89299328186E+01  0.00000000000E+00 0.  1.
         -4   -1    0    0    0  501 -0.00000000000E+00 -0.00000000000E+00 -0.28524340508E+03  0.28524340508E+03  0.00000000000E+00 0. -1.
         23    2    1    2    0    0  0.66039985871E+01 -0.82326451784E+01 -0.26057890851E+03  0.27522694668E+03  0.87960874093E+02 0.  0.
         11    1    3    3    0    0  0.30185578699E+02 -0.17928064624E+00 -0.24266988871E+03  0.24454013206E+03  0.00000000000E+00 0. -1.
        -11    1    3    3    0    0 -0.23581580112E+02 -0.80533645322E+01 -0.17909019805E+02  0.30686814615E+02  0.00000000000E+00 0.  1.
         22    1    1    2    0    0 -0.66039985871E+01  0.82326451784E+01 -0.15734563747E+02  0.18946391221E+02  0.00000000000E+00 0. -1.
<mgrwt>
<rscale>  0 0.52047575E+02</rscale>
<asrwt>0</asrwt>
<pdfrwt beam="1">  1        4 0.13738362E-02 0.88591786E+02</pdfrwt>
<pdfrwt beam="2">  1       -4 0.43883589E-01 0.88591786E+02</pdfrwt>
<totfact> 0.13177416E+04</totfact>
</mgrwt>
</event>
<event>
 6    1  0.1828142E-002  0.9308425E+02  0.7546771E-02  0.1360596E+00
          4   -1    0    0  501    0  0.00000000000E+00  0.00000000000E+00  0.37747125036E+02  0.37747125036E+02  0.00000000000E+00 0. -1.
         -4   -1    0    0    0  501 -0.00000000000E+00 -0.00000000000E+00 -0.99747791487E+02  0.99747791487E+02  0.00000000000E+00 0.  1.
         23    2    1    2    0    0 -0.24007345602E+02  0.17175031141E+02 -0.49638454522E+02  0.10549243816E+03  0.88279918466E+02 0.  0.
         11    1    3    3    0    0 -0.11910297608E+01  0.47039061693E+02 -0.52735303612E+01  0.47348727537E+02  0.00000000000E+00 0. -1.
        -11    1    3    3    0    0 -0.22816315841E+02 -0.29864030552E+02 -0.44364924161E+02  0.58143710625E+02  0.00000000000E+00 0.  1.
         22    1    1    2    0    0  0.24007345602E+02 -0.17175031141E+02 -0.12362211928E+02  0.32002478362E+02  0.00000000000E+00 0. -1.
<mgrwt>
<rscale>  0 0.69852229E+02</rscale>
<asrwt>0</asrwt>
<pdfrwt beam="1">  1        4 0.58072502E-02 0.93084254E+02</pdfrwt>
<pdfrwt beam="2">  1       -4 0.15345814E-01 0.93084254E+02</pdfrwt>
<totfact> 0.99217071E+03</totfact>
</mgrwt>
</event>
<event>
 6    1  0.1828142E-002  0.9464249E+02  0.7546771E-02  0.1368774E+00
          2   -1    0    0  501    0  0.00000000000E+00  0.00000000000E+00  0.87013813131E+02  0.87013813131E+02  0.00000000000E+00 0. -1.
         -2   -1    0    0    0  501 -0.00000000000E+00 -0.00000000000E+00 -0.40834249969E+02  0.40834249969E+02  0.00000000000E+00 0.  1.
         23    2    1    2    0    0 -0.19192760726E+02 -0.15230153459E+02  0.38470002107E+02  0.10216232834E+03  0.91415975794E+02 0.  0.
         11    1    3    3    0    0 -0.30049299619E+02  0.21751606133E+02  0.49699669800E+02  0.62017335925E+02  0.00000000000E+00 0. -1.
        -11    1    3    3    0    0  0.10856538893E+02 -0.36981759592E+02 -0.11229667693E+02  0.40144992412E+02  0.00000000000E+00 0.  1.
         22    1    1    2    0    0  0.19192760726E+02  0.15230153459E+02  0.77095610557E+01  0.25685734763E+02  0.00000000000E+00 0. -1.
<mgrwt>
<rscale>  0 0.67509117E+02</rscale>
<asrwt>0</asrwt>
<pdfrwt beam="1">  1        2 0.13386740E-01 0.94642487E+02</pdfrwt>
<pdfrwt beam="2">  1       -2 0.62821923E-02 0.94642487E+02</pdfrwt>
<totfact> 0.53385926E+04</totfact>
</mgrwt>
</event>
<event>
 6    1  0.1828142E-002  0.9221411E+02  0.7546771E-02  0.1397596E+00
         -2   -1    0    0    0  501 -0.00000000000E+00  0.00000000000E+00  0.29763650998E+02  0.29763650998E+02  0.00000000000E+00 0. -1.
          2   -1    0    0  501    0  0.00000000000E+00 -0.00000000000E+00 -0.11484794039E+03  0.11484794039E+03  0.00000000000E+00 0.  1.
         23    2    1    2    0    0 -0.79073349172E+01  0.14583906694E+02 -0.47940467342E+02  0.10393137757E+03  0.90709572562E+02 0.  0.
         13    1    3    3    0    0  0.19552408566E+02  0.42685090898E+02 -0.74962811798E+01  0.47544798845E+02  0.00000000000E+00 0. -1.
        -13    1    3    3    0    0 -0.27459743483E+02 -0.28101184204E+02 -0.40444186162E+02  0.56386578723E+02  0.00000000000E+00 0.  1.
         22    1    1    2    0    0  0.79073349172E+01 -0.14583906694E+02 -0.37143822053E+02  0.40680213822E+02  0.00000000000E+00 0. -1.
<mgrwt>
<rscale>  0 0.60056126E+02</rscale>
<asrwt>0</asrwt>
<pdfrwt beam="1">  1        2 0.17668914E-01 0.92214114E+02</pdfrwt>
<pdfrwt beam="2">  1       -2 0.45790231E-02 0.92214114E+02</pdfrwt>
<totfact> 0.61906388E+04</totfact>
</mgrwt>
</event>
<event>
 6    1  0.1828142E-002  0.9202779E+02  0.7546771E-02  0.1420142E+00
         -1   -1    0    0    0  501 -0.00000000000E+00  0.00000000000E+00  0.18470261435E+03  0.18470261435E+03  0.00000000000E+00 0.  1.
          1   -1    0    0  501    0  0.00000000000E+00 -0.00000000000E+00 -0.29025798687E+02  0.29025798687E+02  0.00000000000E+00 0. -1.
         23    2    1    2    0    0 -0.10131866025E+02 -0.59164672261E+01  0.17114217676E+03  0.19431613117E+03  0.91276803594E+02 0.  0.
         11    1    3    3    0    0 -0.23353174888E+02  0.20352020118E+02  0.15983511193E+03  0.16280920891E+03  0.00000000000E+00 0.  1.
        -11    1    3    3    0    0  0.13221308863E+02 -0.26268487345E+02  0.11307064829E+02  0.31506922263E+02  0.00000000000E+00 0. -1.
         22    1    1    2    0    0  0.10131866025E+02  0.59164672261E+01 -0.15465361093E+02  0.19412281868E+02  0.00000000000E+00 0. -1.
<mgrwt>
<rscale>  0 0.54990787E+02</rscale>
<asrwt>0</asrwt>
<pdfrwt beam="1">  1        1 0.44655076E-02 0.92027790E+02</pdfrwt>
<pdfrwt beam="2">  1       -1 0.28415786E-01 0.92027790E+02</pdfrwt>
<totfact> 0.19394730E+04</totfact>
</mgrwt>
</event>
<event>
 6    1  0.1828142E-002  0.9175619E+02  0.7546771E-02  0.1413309E+00
          2   -1    0    0  501    0  0.00000000000E+00  0.00000000000E+00  0.53538481375E+02  0.53538481375E+02  0.00000000000E+00 0. -1.
         -2   -1    0    0    0  501 -0.00000000000E+00 -0.00000000000E+00 -0.51495562959E+02  0.51495562959E+02  0.00000000000E+00 0.  1.
         23    2    1    2    0    0 -0.99164993708E+01 -0.86451167321E+01  0.24917347489E+00  0.91756524837E+02  0.90808164609E+02 0.  0.
         13    1    3    3    0    0 -0.20047965743E+02  0.12964409062E+02  0.39303709742E+02  0.45986720173E+02  0.00000000000E+00 0. -1.
        -13    1    3    3    0    0  0.10131466372E+02 -0.21609525795E+02 -0.39054536267E+02  0.45769804664E+02  0.00000000000E+00 0.  1.
         22    1    1    2    0    0  0.99164993708E+01  0.86451167321E+01  0.17937449419E+01  0.13277519497E+02  0.00000000000E+00 0.  1.
<mgrwt>
<rscale>  0 0.56461942E+02</rscale>
<asrwt>0</asrwt>
<pdfrwt beam="1">  1        2 0.82366895E-02 0.91756187E+02</pdfrwt>
<pdfrwt beam="2">  1       -2 0.79223943E-02 0.91756187E+02</pdfrwt>
<totfact> 0.67162757E+04</totfact>
</mgrwt>
</event>
<event>
 6    1  0.1828142E-002  0.9111970E+02  0.7546771E-02  0.1430527E+00
          1   -1    0    0  501    0  0.00000000000E+00  0.00000000000E+00  0.30352360482E+02  0.30352360482E+02  0.00000000000E+00 0. -1.
         -1   -1    0    0    0  501 -0.00000000000E+00 -0.00000000000E+00 -0.90785360516E+02  0.90785360516E+02  0.00000000000E+00 0.  1.
         23    2    1    2    0    0 -0.14742854441E+01 -0.10209512329E+02 -0.62659359675E+02  0.11058479075E+03  0.90533932483E+02 0.  0.
         11    1    3    3    0    0 -0.22381800922E+02 -0.42121524030E+02 -0.15993309160E+02  0.50308585123E+02  0.00000000000E+00 0. -1.
        -11    1    3    3    0    0  0.20907515478E+02  0.31912011701E+02 -0.46666050515E+02  0.60276205628E+02  0.00000000000E+00 0.  1.
         22    1    1    2    0    0  0.14742854441E+01  0.10209512329E+02  0.22263596412E+01  0.10552930248E+02  0.00000000000E+00 0.  1.
<mgrwt>
<rscale>  0 0.52854363E+02</rscale>
<asrwt>0</asrwt>
<pdfrwt beam="1">  1        1 0.46695940E-02 0.91119705E+02</pdfrwt>
<pdfrwt beam="2">  1       -1 0.13966978E-01 0.91119705E+02</pdfrwt>
<totfact> 0.56436456E+04</totfact>
</mgrwt>
</event>
<event>
 6    1  0.1828142E-002  0.9281405E+02  0.7546771E-02  0.1351373E+00
          4   -1    0    0  501    0  0.00000000000E+00  0.00000000000E+00  0.13305246407E+02  0.13305246407E+02  0.00000000000E+00 0.  1.
         -4   -1    0    0    0  501 -0.00000000000E+00 -0.00000000000E+00 -0.32122841202E+03  0.32122841202E+03  0.00000000000E+00 0. -1.
         23    2    1    2    0    0  0.24486310732E+02 -0.24730842044E+02 -0.18800020514E+03  0.20966288358E+03  0.86042162096E+02 0.  0.
         13    1    3    3    0    0  0.36408635550E+02 -0.46103830466E+02 -0.16825977464E+03  0.17822037956E+03  0.00000000000E+00 0. -1.
        -13    1    3    3    0    0 -0.11922324818E+02  0.21372988422E+02 -0.19740430490E+02  0.31442504021E+02  0.00000000000E+00 0.  1.
         22    1    1    2    0    0 -0.24486310732E+02  0.24730842044E+02 -0.11992296048E+03  0.12487077485E+03  0.00000000000E+00 0.  1.
<mgrwt>
<rscale>  0 0.72629324E+02</rscale>
<asrwt>0</asrwt>
<pdfrwt beam="1">  1        4 0.20469609E-02 0.92814049E+02</pdfrwt>
<pdfrwt beam="2">  1       -4 0.49419757E-01 0.92814049E+02</pdfrwt>
<totfact> 0.57546036E+03</totfact>
</mgrwt>
</event>
<event>
 6    1  0.1828142E-002  0.8997449E+02  0.7546771E-02  0.1424054E+00
         -2   -1    0    0    0  501 -0.00000000000E+00  0.00000000000E+00  0.14590140349E+03  0.14590140349E+03  0.00000000000E+00 0.  1.
          2   -1    0    0  501    0  0.00000000000E+00 -0.00000000000E+00 -0.18807777660E+02  0.18807777660E+02  0.00000000000E+00 0. -1.
         23    2    1    2    0    0  0.73630953869E+01 -0.92512470080E+01  0.12257204811E+03  0.15205037355E+03  0.89194217148E+02 0.  0.
         13    1    3    3    0    0  0.18938706152E+02  0.36072413562E+02  0.74881927072E+02  0.85247854008E+02  0.00000000000E+00 0. -1.
        -13    1    3    3    0    0 -0.11575610765E+02 -0.45323660570E+02  0.47690121042E+02  0.66802519541E+02  0.00000000000E+00 0.  1.
         22    1    1    2    0    0 -0.73630953869E+01  0.92512470080E+01  0.45215777179E+01  0.12658807603E+02  0.00000000000E+00 0. -1.
<mgrwt>
<rscale>  0 0.54172420E+02</rscale>
<asrwt>0</asrwt>
<pdfrwt beam="1">  1        2 0.28935044E-02 0.89974491E+02</pdfrwt>
<pdfrwt beam="2">  1       -2 0.22446369E-01 0.89974491E+02</pdfrwt>
<totfact> 0.48556855E+04</totfact>
</mgrwt>
</event>
<event>
 6    1  0.1828142E-002  0.9627247E+02  0.7546771E-02  0.1349573E+00
          2   -1    0    0  501    0  0.00000000000E+00  0.00000000000E+00  0.35292826455E+02  0.35292826455E+02  0.00000000000E+00 0.  1.
         -2   -1    0    0    0  501 -0.00000000000E+00 -0.00000000000E+00 -0.15698456638E+03  0.15698456638E+03  0.00000000000E+00 0. -1.
         23    2    1    2    0    0 -0.14493868611E+01 -0.32124455564E+02 -0.12733105392E+03  0.15962952567E+03  0.90743081311E+02 0.  0.
         13    1    3    3    0    0 -0.35424658103E+02 -0.18957861794E+01 -0.10107064661E+03  0.10711571320E+03  0.00000000000E+00 0. -1.
        -13    1    3    3    0    0  0.33975271242E+02 -0.30228669384E+02 -0.26260407311E+02  0.52513812476E+02  0.00000000000E+00 0.  1.
         22    1    1    2    0    0  0.14493868611E+01  0.32124455564E+02  0.56393140027E+01  0.32647867158E+02  0.00000000000E+00 0.  1.
<mgrwt>
<rscale>  0 0.73189018E+02</rscale>
<asrwt>0</asrwt>
<pdfrwt beam="1">  1        2 0.54296658E-02 0.96272468E+02</pdfrwt>
<pdfrwt beam="2">  1       -2 0.24151471E-01 0.96272468E+02</pdfrwt>
<totfact> 0.18961328E+04</totfact>
</mgrwt>
</event>
<event>
 6    1  0.1828142E-002  0.9526053E+02  0.7546771E-02  0.1347513E+00
          2   -1    0    0  501    0  0.00000000000E+00  0.00000000000E+00  0.37760763071E+02  0.37760763071E+02  0.00000000000E+00 0. -1.
         -2   -1    0    0    0  501 -0.00000000000E+00 -0.00000000000E+00 -0.11135051809E+03  0.11135051809E+03  0.00000000000E+00 0.  1.
         23    2    1    2    0    0 -0.20147968539E+02 -0.27860672123E+02 -0.52347277400E+02  0.10869593083E+03  0.88839238175E+02 0.  0.
         13    1    3    3    0    0 -0.82851588298E+01  0.13544950466E+02  0.19365516224E+02  0.25042618844E+02  0.00000000000E+00 0. -1.
        -13    1    3    3    0    0 -0.11862809709E+02 -0.41405622589E+02 -0.71712793624E+02  0.83653311981E+02  0.00000000000E+00 0.  1.
         22    1    1    2    0    0  0.20147968539E+02  0.27860672123E+02 -0.21242477624E+02  0.40415350339E+02  0.00000000000E+00 0.  1.
<mgrwt>
<rscale>  0 0.73836170E+02</rscale>
<asrwt>0</asrwt>
<pdfrwt beam="1">  1        2 0.58093482E-02 0.95260527E+02</pdfrwt>
<pdfrwt beam="2">  1       -2 0.17130849E-01 0.95260527E+02</pdfrwt>
<totfact> 0.30953861E+04</totfact>
</mgrwt>
</event>
<event>
 6    1  0.1828142E-002  0.1006406E+03  0.7546771E-02  0.1327315E+00
          2   -1    0    0  501    0  0.00000000000E+00  0.00000000000E+00  0.17941513416E+02  0.17941513416E+02  0.00000000000E+00 0. -1.
         -2   -1    0    0    0  501 -0.00000000000E+00 -0.00000000000E+00 -0.28360207794E+03  0.28360207794E+03  0.00000000000E+00 0.  1.
         23    2    1    2    0    0  0.39760510939E+02  0.11652015173E+02 -0.20019799112E+03  0.22407091099E+03  0.91716246175E+02 0.  0.
         11    1    3    3    0    0  0.22710141701E+02 -0.19028723936E+02 -0.18226037553E+03  0.18465288343E+03  0.00000000000E+00 0.  1.
        -11    1    3    3    0    0  0.17050369239E+02  0.30680739109E+02 -0.17937615599E+02  0.39418027561E+02  0.00000000000E+00 0. -1.
         22    1    1    2    0    0 -0.39760510939E+02 -0.11652015173E+02 -0.65462573404E+02  0.77472680375E+02  0.00000000000E+00 0. -1.
<mgrwt>
<rscale>  0 0.80614990E+02</rscale>
<asrwt>0</asrwt>
<pdfrwt beam="1">  1        2 0.27602326E-02 0.10064064E+03</pdfrwt>
<pdfrwt beam="2">  1       -2 0.43631092E-01 0.10064064E+03</pdfrwt>
<totfact> 0.15863039E+04</totfact>
</mgrwt>
</event>
<event>
 6    1  0.1828142E-002  0.1013241E+03  0.7546771E-02  0.1338053E+00
         -1   -1    0    0    0  501 -0.00000000000E+00  0.00000000000E+00  0.99070315855E+02  0.99070315855E+02  0.00000000000E+00 0.  1.
          1   -1    0    0  501    0  0.00000000000E+00 -0.00000000000E+00 -0.17584237876E+03  0.17584237876E+03  0.00000000000E+00 0. -1.
         23    2    1    2    0    0  0.18610344481E+02  0.28019768553E+02  0.70765426802E+02  0.12358932160E+03  0.95577834415E+02 0.  0.
         11    1    3    3    0    0 -0.28495854865E+02  0.25262860546E+02  0.65952817667E+02  0.76157731227E+02  0.00000000000E+00 0.  1.
        -11    1    3    3    0    0  0.47106199346E+02  0.27569080074E+01  0.48126091351E+01  0.47431590372E+02  0.00000000000E+00 0. -1.
         22    1    1    2    0    0 -0.18610344481E+02 -0.28019768553E+02 -0.14753748971E+03  0.15132337302E+03  0.00000000000E+00 0. -1.
<mgrwt>
<rscale>  0 0.76911118E+02</rscale>
<asrwt>0</asrwt>
<pdfrwt beam="1">  1        1 0.27052673E-01 0.10132411E+03</pdfrwt>
<pdfrwt beam="2">  1       -1 0.15241587E-01 0.10132411E+03</pdfrwt>
<totfact> 0.50751442E+03</totfact>
</mgrwt>
</event>
<event>
 6    1  0.1828142E-002  0.9121909E+02  0.7546771E-02  0.1431706E+00
          2   -1    0    0  501    0  0.00000000000E+00  0.00000000000E+00  0.10544964957E+03  0.10544964957E+03  0.00000000000E+00 0. -1.
         -2   -1    0    0    0  501 -0.00000000000E+00 -0.00000000000E+00 -0.40258959711E+02  0.40258959711E+02  0.00000000000E+00 0.  1.
         23    2    1    2    0    0  0.86424194638E+01  0.52265326923E+01  0.12515240972E+02  0.92073630269E+02  0.90658226743E+02 0.  0.
         13    1    3    3    0    0  0.53559810603E+01  0.68376095315E+01  0.51848238356E+02  0.52570707223E+02  0.00000000000E+00 0. -1.
        -13    1    3    3    0    0  0.32864384035E+01 -0.16110768392E+01 -0.39332997384E+02  0.39502923046E+02  0.00000000000E+00 0.  1.
         22    1    1    2    0    0 -0.86424194638E+01 -0.52265326923E+01  0.52675448888E+02  0.53634979013E+02  0.00000000000E+00 0. -1.
<mgrwt>
<rscale>  0 0.52619123E+02</rscale>
<asrwt>0</asrwt>
<pdfrwt beam="1">  1        2 0.16223023E-01 0.91219089E+02</pdfrwt>
<pdfrwt beam="2">  1       -2 0.61936861E-02 0.91219089E+02</pdfrwt>
<totfact> 0.43429388E+04</totfact>
</mgrwt>
</event>
<event>
 6    1  0.1828142E-002  0.9796840E+02  0.7546771E-02  0.1359058E+00
         -2   -1    0    0    0  501 -0.00000000000E+00  0.00000000000E+00  0.36479857482E+02  0.36479857482E+02  0.00000000000E+00 0.  1.
          2   -1    0    0  501    0  0.00000000000E+00 -0.00000000000E+00 -0.11214663288E+03  0.11214663288E+03  0.00000000000E+00 0. -1.
         23    2    1    2    0    0  0.16778841686E+02  0.19839448917E+02 -0.43273671730E+02  0.10710003582E+03  0.94459905495E+02 0.  0.
         11    1    3    3    0    0  0.18564132902E+01 -0.32677626639E+02 -0.40992710614E+02  0.52456418830E+02  0.00000000000E+00 0. -1.
        -11    1    3    3    0    0  0.14922428395E+02  0.52517075556E+02 -0.22809611164E+01  0.54643616990E+02  0.00000000000E+00 0.  1.
         22    1    1    2    0    0 -0.16778841686E+02 -0.19839448917E+02 -0.32393103668E+02  0.41526454543E+02  0.00000000000E+00 0. -1.
<mgrwt>
<rscale>  0 0.70305321E+02</rscale>
<asrwt>0</asrwt>
<pdfrwt beam="1">  1        2 0.17253328E-01 0.97968398E+02</pdfrwt>
<pdfrwt beam="2">  1       -2 0.56122858E-02 0.97968398E+02</pdfrwt>
<totfact> 0.47371012E+04</totfact>
</mgrwt>
</event>
<event>
 6    1  0.1828142E-002  0.9167297E+02  0.7546771E-02  0.1404600E+00
          2   -1    0    0  501    0  0.00000000000E+00  0.00000000000E+00  0.58408025538E+02  0.58408025538E+02  0.00000000000E+00 0. -1.
         -2   -1    0    0    0  501 -0.00000000000E+00 -0.00000000000E+00 -0.12306833832E+03  0.12306833832E+03  0.00000000000E+00 0.  1.
         23    2    1    2    0    0 -0.68269414209E+01  0.13485606893E+02 -0.10441357001E+03  0.13894648986E+03  0.90418276469E+02 0.  0.
         13    1    3    3    0    0 -0.23826595157E+02 -0.25310721250E+02 -0.11134750781E+02  0.36500985218E+02  0.00000000000E+00 0. -1.
        -13    1    3    3    0    0  0.16999653736E+02  0.38796328143E+02 -0.93278819227E+02  0.10244550464E+03  0.00000000000E+00 0.  1.
         22    1    1    2    0    0  0.68269414209E+01 -0.13485606893E+02  0.39753257226E+02  0.42529874001E+02  0.00000000000E+00 0. -1.
<mgrwt>
<rscale>  0 0.58416337E+02</rscale>
<asrwt>0</asrwt>
<pdfrwt beam="1">  1        2 0.89858501E-02 0.91672970E+02</pdfrwt>
<pdfrwt beam="2">  1       -2 0.18933590E-01 0.91672970E+02</pdfrwt>
<totfact> 0.15122436E+04</totfact>
</mgrwt>
</event>
<event>
 6    1  0.1828142E-002  0.8862712E+02  0.7546771E-02  0.1420711E+00
         -4   -1    0    0    0  501 -0.00000000000E+00  0.00000000000E+00  0.17198795798E+02  0.17198795798E+02  0.00000000000E+00 0.  1.
          4   -1    0    0  501    0  0.00000000000E+00 -0.00000000000E+00 -0.16136486813E+03  0.16136486813E+03  0.00000000000E+00 0. -1.
         23    2    1    2    0    0  0.12014699291E+02 -0.50209956810E+01 -0.10562286856E+03  0.13788022806E+03  0.87665292628E+02 0.  0.
         13    1    3    3    0    0 -0.52165162419E+01  0.29601887298E+02 -0.55122848959E+01  0.30559271229E+02  0.00000000000E+00 0.  1.
        -13    1    3    3    0    0  0.17231215533E+02 -0.34622882979E+02 -0.10011058366E+03  0.10732095684E+03  0.00000000000E+00 0. -1.
         22    1    1    2    0    0 -0.12014699291E+02  0.50209956810E+01 -0.38543203768E+02  0.40683435860E+02  0.00000000000E+00 0. -1.
<mgrwt>
<rscale>  0 0.54870827E+02</rscale>
<asrwt>0</asrwt>
<pdfrwt beam="1">  1        4 0.24825364E-01 0.88627123E+02</pdfrwt>
<pdfrwt beam="2">  1       -4 0.26459686E-02 0.88627123E+02</pdfrwt>
<totfact> 0.14311943E+04</totfact>
</mgrwt>
</event>
<event>
 6    1  0.1828142E-002  0.8660895E+02  0.7546771E-02  0.1427871E+00
          2   -1    0    0  501    0  0.00000000000E+00  0.00000000000E+00  0.81077853277E+02  0.81077853277E+02  0.00000000000E+00 0. -1.
         -2   -1    0    0    0  501 -0.00000000000E+00 -0.00000000000E+00 -0.31036555267E+02  0.31036555267E+02  0.00000000000E+00 0.  1.
         23    2    1    2    0    0 -0.12315060785E+02 -0.21811753455E+01  0.37423286032E+02  0.94348360185E+02  0.85701181346E+02 0.  0.
         13    1    3    3    0    0 -0.57438814972E+01  0.41133905384E+02  0.10195449336E+02  0.42766079245E+02  0.00000000000E+00 0. -1.
        -13    1    3    3    0    0 -0.65711792883E+01 -0.43315080730E+02  0.27227836695E+02  0.51582280940E+02  0.00000000000E+00 0.  1.
         22    1    1    2    0    0  0.12315060785E+02  0.21811753455E+01  0.12618011978E+02  0.17766048360E+02  0.00000000000E+00 0.  1.
<mgrwt>
<rscale>  0 0.53389766E+02</rscale>
<asrwt>0</asrwt>
<pdfrwt beam="1">  1        2 0.12473516E-01 0.86608953E+02</pdfrwt>
<pdfrwt beam="2">  1       -2 0.47748547E-02 0.86608953E+02</pdfrwt>
<totfact> 0.86245533E+04</totfact>
</mgrwt>
</event>
<event>
 6    1  0.1828142E-002  0.9604211E+02  0.7546771E-02  0.1359977E+00
         -2   -1    0    0    0  501 -0.00000000000E+00  0.00000000000E+00  0.10963136659E+03  0.10963136659E+03  0.00000000000E+00 0.  1.
          2   -1    0    0  501    0  0.00000000000E+00 -0.00000000000E+00 -0.12052623334E+03  0.12052623334E+03  0.00000000000E+00 0. -1.
         23    2    1    2    0    0  0.17804481010E+02  0.20503752310E+02  0.86374366245E+02  0.12916895160E+03  0.92123197465E+02 0.  0.
         11    1    3    3    0    0 -0.29304862106E+02  0.15731607673E+02  0.31395350901E+01  0.33408308901E+02  0.00000000000E+00 0. -1.
        -11    1    3    3    0    0  0.47109343117E+02  0.47721446374E+01  0.83234831155E+02  0.95760642702E+02  0.00000000000E+00 0.  1.
         22    1    1    2    0    0 -0.17804481010E+02 -0.20503752310E+02 -0.97269232998E+02  0.10098864833E+03  0.00000000000E+00 0. -1.
<mgrwt>
<rscale>  0 0.70034077E+02</rscale>
<asrwt>0</asrwt>
<pdfrwt beam="1">  1        2 0.18542497E-01 0.96042110E+02</pdfrwt>
<pdfrwt beam="2">  1       -2 0.16866364E-01 0.96042110E+02</pdfrwt>
<totfact> 0.78315419E+03</totfact>
</mgrwt>
</event>
<event>
 6    1  0.1828142E-002  0.9171917E+02  0.7546771E-02  0.1428175E+00
          2   -1    0    0  501    0  0.00000000000E+00  0.00000000000E+00  0.22149925071E+02  0.22149925071E+02  0.00000000000E+00 0.  1.
         -2   -1    0    0    0  501 -0.00000000000E+00 -0.00000000000E+00 -0.13347059934E+03  0.13347059934E+03  0.00000000000E+00 0. -1.
         23    2    1    2    0    0 -0.54956477943E+01  0.89258986494E+01 -0.11241146263E+03  0.14508185131E+03  0.91118235490E+02 0.  0.
         13    1    3    3    0    0 -0.13249834426E+02  0.45082036434E+01 -0.12711432669E+03  0.12788250100E+03  0.00000000000E+00 0. -1.
        -13    1    3    3    0    0  0.77541866312E+01  0.44176950060E+01  0.14702864063E+02  0.17199350311E+02  0.00000000000E+00 0.  1.
         22    1    1    2    0    0  0.54956477943E+01 -0.89258986494E+01  0.10907883603E+01  0.10538673096E+02  0.00000000000E+00 0.  1.
<mgrwt>
<rscale>  0 0.53328193E+02</rscale>
<asrwt>0</asrwt>
<pdfrwt beam="1">  1        2 0.34076808E-02 0.91719173E+02</pdfrwt>
<pdfrwt beam="2">  1       -2 0.20533938E-01 0.91719173E+02</pdfrwt>
<totfact> 0.45583838E+04</totfact>
</mgrwt>
</event>
<event>
 6    1  0.1828142E-002  0.9632370E+02  0.7546771E-02  0.1351975E+00
         -2   -1    0    0    0  501 -0.00000000000E+00  0.00000000000E+00  0.86997059626E+02  0.86997059626E+02  0.00000000000E+00 0.  1.
          2   -1    0    0  501    0  0.00000000000E+00 -0.00000000000E+00 -0.48763888261E+02  0.48763888261E+02  0.00000000000E+00 0. -1.
         23    2    1    2    0    0 -0.30794978005E+02 -0.11867467483E+01  0.41272733020E+02  0.10479357840E+03  0.91260706462E+02 0.  0.
         13    1    3    3    0    0  0.17221962253E+02  0.27247121566E+02  0.36635300404E+02  0.48796996354E+02  0.00000000000E+00 0.  1.
        -13    1    3    3    0    0 -0.48016940258E+02 -0.28433868315E+02  0.46374326153E+01  0.55996582042E+02  0.00000000000E+00 0. -1.
         22    1    1    2    0    0  0.30794978005E+02  0.11867467483E+01 -0.30395616549E+01  0.30967369491E+02  0.00000000000E+00 0. -1.
<mgrwt>
<rscale>  0 0.72443664E+02</rscale>
<asrwt>0</asrwt>
<pdfrwt beam="1">  1        2 0.75021367E-02 0.96323702E+02</pdfrwt>
<pdfrwt beam="2">  1       -2 0.13384163E-01 0.96323702E+02</pdfrwt>
<totfact> 0.33483377E+04</totfact>
</mgrwt>
</event>
<event>
 6    1  0.1828142E-002  0.9381303E+02  0.7546771E-02  0.1393326E+00
         -2   -1    0    0    0  501 -0.00000000000E+00  0.00000000000E+00  0.27925090766E+03  0.27925090766E+03  0.00000000000E+00 0.  1.
          2   -1    0    0  501    0  0.00000000000E+00 -0.00000000000E+00 -0.12952285682E+02  0.12952285682E+02  0.00000000000E+00 0. -1.
         23    2    1    2    0    0  0.68572777039E+01  0.15408905140E+02  0.25549510244E+03  0.27217389856E+03  0.92284489872E+02 0.  0.
         11    1    3    3    0    0  0.55437611031E+01  0.25955173464E+02  0.13192973646E+02  0.29638806831E+02  0.00000000000E+00 0. -1.
        -11    1    3    3    0    0  0.13135166008E+01 -0.10546268324E+02  0.24230212880E+03  0.24253509173E+03  0.00000000000E+00 0.  1.
         22    1    1    2    0    0 -0.68572777039E+01 -0.15408905140E+02  0.10803519539E+02  0.20029294784E+02  0.00000000000E+00 0. -1.
<mgrwt>
<rscale>  0 0.61087079E+02</rscale>
<asrwt>0</asrwt>
<pdfrwt beam="1">  1        2 0.19926596E-02 0.93813025E+02</pdfrwt>
<pdfrwt beam="2">  1       -2 0.42961673E-01 0.93813025E+02</pdfrwt>
<totfact> 0.25089755E+04</totfact>
</mgrwt>
</event>
<event>
 6    1  0.1828142E-002  0.9116787E+02  0.7546771E-02  0.1419872E+00
         -2   -1    0    0    0  501 -0.00000000000E+00  0.00000000000E+00  0.51787799564E+02  0.51787799564E+02  0.00000000000E+00 0. -1.
          2   -1    0    0  501    0  0.00000000000E+00 -0.00000000000E+00 -0.75055440333E+02  0.75055440333E+02  0.00000000000E+00 0.  1.
         23    2    1    2    0    0 -0.92438794849E+01 -0.78359602333E+01  0.97349283014E+01  0.91686147498E+02  0.90358891279E+02 0.  0.
         13    1    3    3    0    0  0.62094836219E+00  0.40093764569E+02  0.14223157923E+02  0.42546371825E+02  0.00000000000E+00 0.  1.
        -13    1    3    3    0    0 -0.98648278471E+01 -0.47929724802E+02 -0.44882296211E+01  0.49139775673E+02  0.00000000000E+00 0. -1.
         22    1    1    2    0    0  0.92438794849E+01  0.78359602333E+01 -0.33002569070E+02  0.35157092399E+02  0.00000000000E+00 0. -1.
<mgrwt>
<rscale>  0 0.55047955E+02</rscale>
<asrwt>0</asrwt>
<pdfrwt beam="1">  1        2 0.11546991E-01 0.91167872E+02</pdfrwt>
<pdfrwt beam="2">  1       -2 0.79673538E-02 0.91167872E+02</pdfrwt>
<totfact> 0.44125924E+04</totfact>
</mgrwt>
</event>
<event>
 6    1  0.1828142E-002  0.1032904E+03  0.7546771E-02  0.1313788E+00
         -1   -1    0    0    0  501 -0.00000000000E+00  0.00000000000E+00  0.70427782191E+02  0.70427782191E+02  0.00000000000E+00 0.  1.
          1   -1    0    0  501    0  0.00000000000E+00 -0.00000000000E+00 -0.10732689406E+03  0.10732689406E+03  0.00000000000E+00 0. -1.
         23    2    1    2    0    0 -0.42977421882E+01  0.48603930872E+02  0.17408248787E+02  0.10474712797E+03  0.91039008169E+02 0.  0.
         13    1    3    3    0    0 -0.13111145679E+02  0.30630969654E+02  0.53760231917E+02  0.63248090712E+02  0.00000000000E+00 0.  1.
        -13    1    3    3    0    0  0.88134034911E+01  0.17972961218E+02 -0.36351983129E+02  0.41499037260E+02  0.00000000000E+00 0. -1.
         22    1    1    2    0    0  0.42977421882E+01 -0.48603930872E+02 -0.54307360653E+02  0.73007548276E+02  0.00000000000E+00 0. -1.
<mgrwt>
<rscale>  0 0.85631929E+02</rscale>
<asrwt>0</asrwt>
<pdfrwt beam="1">  1        1 0.16511830E-01 0.10329043E+03</pdfrwt>
<pdfrwt beam="2">  1       -1 0.10835043E-01 0.10329043E+03</pdfrwt>
<totfact> 0.15981748E+04</totfact>
</mgrwt>
</event>
<event>
 6    1  0.1828142E-002  0.8656686E+02  0.7546771E-02  0.1404768E+00
         -1   -1    0    0    0  501 -0.00000000000E+00  0.00000000000E+00  0.16649659292E+02  0.16649659292E+02  0.00000000000E+00 0.  1.
          1   -1    0    0  501    0  0.00000000000E+00 -0.00000000000E+00 -0.18072474946E+03  0.18072474946E+03  0.00000000000E+00 0. -1.
         23    2    1    2    0    0 -0.14740144230E+02 -0.10161735069E+02 -0.10743077228E+03  0.13796808367E+03  0.84695268851E+02 0.  0.
         13    1    3    3    0    0  0.34222747141E+02  0.31354756609E+01 -0.31322384609E+02  0.46498595754E+02  0.00000000000E+00 0.  1.
        -13    1    3    3    0    0 -0.48962891371E+02 -0.13297210730E+02 -0.76108387673E+02  0.91469487912E+02  0.00000000000E+00 0. -1.
         22    1    1    2    0    0  0.14740144230E+02  0.10161735069E+02 -0.56644317886E+02  0.59406325086E+02  0.00000000000E+00 0. -1.
<mgrwt>
<rscale>  0 0.58377809E+02</rscale>
<asrwt>0</asrwt>
<pdfrwt beam="1">  1        1 0.27803809E-01 0.86566860E+02</pdfrwt>
<pdfrwt beam="2">  1       -1 0.25614859E-02 0.86566860E+02</pdfrwt>
<totfact> 0.67906757E+04</totfact>
</mgrwt>
</event>
<event>
 6    1  0.1828142E-002  0.1252318E+03  0.7546771E-02  0.1254480E+00
         -2   -1    0    0    0  501 -0.00000000000E+00  0.00000000000E+00  0.10640232152E+03  0.10640232152E+03  0.00000000000E+00 0.  1.
          2   -1    0    0  501    0  0.00000000000E+00 -0.00000000000E+00 -0.12563007774E+03  0.12563007774E+03  0.00000000000E+00 0. -1.
         23    2    1    2    0    0  0.67257470101E+02 -0.50433394494E+02  0.37370904778E+02  0.13068890913E+03  0.92821936428E+02 0.  0.
         11    1    3    3    0    0  0.11880932066E+02 -0.66514248369E+02  0.20371013439E+02  0.70571098698E+02  0.00000000000E+00 0.  1.
        -11    1    3    3    0    0  0.55376538035E+02  0.16080853876E+02  0.16999891339E+02  0.60117810436E+02  0.00000000000E+00 0. -1.
         22    1    1    2    0    0 -0.67257470101E+02  0.50433394494E+02 -0.56598661002E+02  0.10134349013E+03  0.00000000000E+00 0. -1.
<mgrwt>
<rscale>  0 0.11335511E+03</rscale>
<asrwt>0</asrwt>
<pdfrwt beam="1">  1        2 0.19327704E-01 0.12523181E+03</pdfrwt>
<pdfrwt beam="2">  1       -2 0.16369588E-01 0.12523181E+03</pdfrwt>
<totfact> 0.80204710E+03</totfact>
</mgrwt>
</event>
<event>
 6    1  0.1828142E-002  0.2405105E+03  0.7546771E-02  0.1122270E+00
          1   -1    0    0  501    0  0.00000000000E+00  0.00000000000E+00  0.59256365977E+03  0.59256365977E+03  0.00000000000E+00 0. -1.
         -1   -1    0    0    0  501 -0.00000000000E+00 -0.00000000000E+00 -0.17025185686E+03  0.17025185686E+03  0.00000000000E+00 0.  1.
         23    2    1    2    0    0  0.17103071301E+02  0.22352400878E+03  0.47509852010E+03  0.53250716884E+03  0.87119363626E+02 0.  0.
         13    1    3    3    0    0  0.34591127645E+02  0.13897943850E+03  0.36836751716E+03  0.39522962710E+03  0.00000000000E+00 0. -1.
        -13    1    3    3    0    0 -0.17488056344E+02  0.84544570283E+02  0.10673100294E+03  0.13727754174E+03  0.00000000000E+00 0.  1.
         22    1    1    2    0    0 -0.17103071301E+02 -0.22352400878E+03 -0.52786717188E+02  0.23030834779E+03  0.00000000000E+00 0.  1.
<mgrwt>
<rscale>  0 0.23631888E+03</rscale>
<asrwt>0</asrwt>
<pdfrwt beam="1">  1        1 0.91163639E-01 0.24051046E+03</pdfrwt>
<pdfrwt beam="2">  1       -1 0.26192594E-01 0.24051046E+03</pdfrwt>
<totfact> 0.46442927E+02</totfact>
</mgrwt>
</event>
<event>
 6    1  0.1828142E-002  0.9412635E+02  0.7546771E-02  0.1415576E+00
          3   -1    0    0  501    0  0.00000000000E+00  0.00000000000E+00  0.28452995037E+03  0.28452995037E+03  0.00000000000E+00 0. -1.
         -3   -1    0    0    0  501 -0.00000000000E+00 -0.00000000000E+00 -0.99213834507E+01  0.99213834507E+01  0.00000000000E+00 0.  1.
         23    2    1    2    0    0 -0.37949295796E+01  0.11136993708E+02  0.23559309989E+03  0.25370037326E+03  0.93388096433E+02 0.  0.
         11    1    3    3    0    0 -0.33217851158E+02 -0.28422171798E+02  0.91526955184E+02  0.10143189346E+03  0.00000000000E+00 0. -1.
        -11    1    3    3    0    0  0.29422921578E+02  0.39559165506E+02  0.14406614471E+03  0.15226847980E+03  0.00000000000E+00 0.  1.
         22    1    1    2    0    0  0.37949295796E+01 -0.11136993708E+02  0.39015467027E+02  0.40750960562E+02  0.00000000000E+00 0. -1.
<mgrwt>
<rscale>  0 0.55967876E+02</rscale>
<asrwt>0</asrwt>
<pdfrwt beam="1">  1        3 0.43773832E-01 0.94126355E+02</pdfrwt>
<pdfrwt beam="2">  1       -3 0.15263669E-02 0.94126355E+02</pdfrwt>
<totfact> 0.15547370E+04</totfact>
</mgrwt>
</event>
<event>
 6    1  0.1828142E-002  0.9268123E+02  0.7546771E-02  0.1370968E+00
          2   -1    0    0  501    0  0.00000000000E+00  0.00000000000E+00  0.12912561406E+03  0.12912561406E+03  0.00000000000E+00 0. -1.
         -2   -1    0    0    0  501 -0.00000000000E+00 -0.00000000000E+00 -0.27696230975E+02  0.27696230975E+02  0.00000000000E+00 0.  1.
         23    2    1    2    0    0 -0.15906259771E+02  0.19493221874E+02  0.67849834293E+02  0.11486256840E+03  0.89200979848E+02 0.  0.
         13    1    3    3    0    0 -0.48099102054E+02  0.22571881649E+02  0.62585391159E+02  0.82097165884E+02  0.00000000000E+00 0. -1.
        -13    1    3    3    0    0  0.32192842283E+02 -0.30786597752E+01  0.52644431339E+01  0.32765402512E+02  0.00000000000E+00 0.  1.
         22    1    1    2    0    0  0.15906259771E+02 -0.19493221874E+02  0.33579548789E+02  0.41959276636E+02  0.00000000000E+00 0.  1.
<mgrwt>
<rscale>  0 0.66898880E+02</rscale>
<asrwt>0</asrwt>
<pdfrwt beam="1">  1        2 0.19865479E-01 0.92681226E+02</pdfrwt>
<pdfrwt beam="2">  1       -2 0.42609587E-02 0.92681226E+02</pdfrwt>
<totfact> 0.60383956E+04</totfact>
</mgrwt>
</event>
<event>
 6    1  0.1828142E-002  0.9587370E+02  0.7546771E-02  0.1378993E+00
         -4   -1    0    0    0  501 -0.00000000000E+00  0.00000000000E+00  0.96181845660E+02  0.96181845660E+02  0.00000000000E+00 0.  1.
          4   -1    0    0  501    0  0.00000000000E+00 -0.00000000000E+00 -0.38077345940E+02  0.38077345940E+02  0.00000000000E+00 0. -1.
         23    2    1    2    0    0  0.11885536010E+02  0.15986328072E+02  0.61707098164E+02  0.11401549216E+03  0.93781329896E+02 0.  0.
         11    1    3    3    0    0  0.29390266619E+02 -0.32306849286E+02  0.20935004760E+02  0.48433404868E+02  0.00000000000E+00 0.  1.
        -11    1    3    3    0    0 -0.17504730609E+02  0.48293177358E+02  0.40772093404E+02  0.65582087292E+02  0.00000000000E+00 0. -1.
         22    1    1    2    0    0 -0.11885536010E+02 -0.15986328072E+02 -0.36025984435E+01  0.20243699440E+02  0.00000000000E+00 0. -1.
<mgrwt>
<rscale>  0 0.64729164E+02</rscale>
<asrwt>0</asrwt>
<pdfrwt beam="1">  1        4 0.58580533E-02 0.95873701E+02</pdfrwt>
<pdfrwt beam="2">  1       -4 0.14797207E-01 0.95873701E+02</pdfrwt>
<totfact> 0.10511031E+04</totfact>
</mgrwt>
</event>
<event>
 6    1  0.1828142E-002  0.9329542E+02  0.7546771E-02  0.1423835E+00
          2   -1    0    0  501    0  0.00000000000E+00  0.00000000000E+00  0.20405417562E+03  0.20405417562E+03  0.00000000000E+00 0.  1.
         -2   -1    0    0    0  501 -0.00000000000E+00 -0.00000000000E+00 -0.13258125873E+02  0.13258125873E+02  0.00000000000E+00 0. -1.
         23    2    1    2    0    0 -0.78253982638E+01  0.72107941021E+01  0.17387434659E+03  0.19732289311E+03  0.92686586601E+02 0.  0.
         13    1    3    3    0    0 -0.21647419305E+02 -0.37943480640E+02  0.61557821129E+02  0.75483003568E+02  0.00000000000E+00 0. -1.
        -13    1    3    3    0    0  0.13822021041E+02  0.45154274742E+02  0.11231652546E+03  0.12183988954E+03  0.00000000000E+00 0.  1.
         22    1    1    2    0    0  0.78253982638E+01 -0.72107941021E+01  0.16921703160E+02  0.19989408381E+02  0.00000000000E+00 0. -1.
<mgrwt>
<rscale>  0 0.54217763E+02</rscale>
<asrwt>0</asrwt>
<pdfrwt beam="1">  1        2 0.31392948E-01 0.93295422E+02</pdfrwt>
<pdfrwt beam="2">  1       -2 0.20397118E-02 0.93295422E+02</pdfrwt>
<totfact> 0.10716828E+05</totfact>
</mgrwt>
</event>
<event>
 6    1  0.1828142E-002  0.8967205E+02  0.7546771E-02  0.1357239E+00
         -2   -1    0    0    0  501 -0.00000000000E+00  0.00000000000E+00  0.26544188935E+02  0.26544188935E+02  0.00000000000E+00 0.  1.
          2   -1    0    0  501    0  0.00000000000E+00 -0.00000000000E+00 -0.19192656718E+03  0.19192656718E+03  0.00000000000E+00 0. -1.
         23    2    1    2    0    0  0.34816440135E+02  0.29049929172E+01 -0.15958849109E+03  0.18305617415E+03  0.82586033428E+02 0.  0.
         11    1    3    3    0    0  0.53255675027E+02  0.13137011018E+02 -0.60144810323E+02  0.81401143664E+02  0.00000000000E+00 0.  1.
        -11    1    3    3    0    0 -0.18439234892E+02 -0.10232018101E+02 -0.99443680772E+02  0.10165503049E+03  0.00000000000E+00 0. -1.
         22    1    1    2    0    0 -0.34816440135E+02 -0.29049929172E+01 -0.57938871532E+01  0.35414581966E+02  0.00000000000E+00 0. -1.
<mgrwt>
<rscale>  0 0.70846033E+02</rscale>
<asrwt>0</asrwt>
<pdfrwt beam="1">  1        2 0.29527164E-01 0.89672049E+02</pdfrwt>
<pdfrwt beam="2">  1       -2 0.40837214E-02 0.89672049E+02</pdfrwt>
<totfact> 0.41492897E+04</totfact>
</mgrwt>
</event>
<event>
 6    1  0.1828142E-002  0.9101949E+02  0.7546771E-02  0.1431847E+00
          1   -1    0    0  501    0  0.00000000000E+00  0.00000000000E+00  0.14120683490E+03  0.14120683490E+03  0.00000000000E+00 0. -1.
         -1   -1    0    0    0  501 -0.00000000000E+00 -0.00000000000E+00 -0.22670406671E+02  0.22670406671E+02  0.00000000000E+00 0.  1.
         23    2    1    2    0    0  0.35681177449E+01  0.94965463229E+01  0.71459135205E+02  0.11571929960E+03  0.90452376639E+02 0.  0.
         11    1    3    3    0    0  0.26652663679E+02  0.10668788992E+02 -0.10495846719E+02  0.30567144749E+02  0.00000000000E+00 0.  1.
        -11    1    3    3    0    0 -0.23084545934E+02 -0.11722426689E+01  0.81954981924E+02  0.85152154852E+02  0.00000000000E+00 0. -1.
         22    1    1    2    0    0 -0.35681177449E+01 -0.94965463229E+01  0.47077293019E+02  0.48157941965E+02  0.00000000000E+00 0. -1.
<mgrwt>
<rscale>  0 0.52590960E+02</rscale>
<asrwt>0</asrwt>
<pdfrwt beam="1">  1        1 0.21724128E-01 0.91019494E+02</pdfrwt>
<pdfrwt beam="2">  1       -1 0.34877549E-02 0.91019494E+02</pdfrwt>
<totfact> 0.59568709E+04</totfact>
</mgrwt>
</event>
<event>
 6    1  0.1828142E-002  0.1131712E+03  0.7546771E-02  0.1282539E+00
          1   -1    0    0  501    0  0.00000000000E+00  0.00000000000E+00  0.14741886038E+03  0.14741886038E+03  0.00000000000E+00 0. -1.
         -1   -1    0    0    0  501 -0.00000000000E+00 -0.00000000000E+00 -0.12637664548E+03  0.12637664548E+03  0.00000000000E+00 0.  1.
         23    2    1    2    0    0  0.52591290417E+02 -0.40065651996E+02  0.11340166851E+03  0.16021131256E+03  0.91851107528E+02 0.  0.
         13    1    3    3    0    0  0.22229390572E+02  0.16961794055E+02  0.85285335999E+02  0.89752085208E+02  0.00000000000E+00 0.  1.
        -13    1    3    3    0    0  0.30361899845E+02 -0.57027446051E+02  0.28116332512E+02  0.70459227353E+02  0.00000000000E+00 0. -1.
         22    1    1    2    0    0 -0.52591290417E+02  0.40065651996E+02 -0.92359453609E+02  0.11358419330E+03  0.00000000000E+00 0.  1.
<mgrwt>
<rscale>  0 0.98940901E+02</rscale>
<asrwt>0</asrwt>
<pdfrwt beam="1">  1        1 0.22679825E-01 0.11317123E+03</pdfrwt>
<pdfrwt beam="2">  1       -1 0.19442561E-01 0.11317123E+03</pdfrwt>
<totfact> 0.43412719E+03</totfact>
</mgrwt>
</event>
<event>
 6    1  0.1828142E-002  0.9345236E+02  0.7546771E-02  0.1417259E+00
          4   -1    0    0  501    0  0.00000000000E+00  0.00000000000E+00  0.24525527804E+03  0.24525527804E+03  0.00000000000E+00 0.  1.
         -4   -1    0    0    0  501 -0.00000000000E+00 -0.00000000000E+00 -0.12255623321E+02  0.12255623321E+02  0.00000000000E+00 0. -1.
         23    2    1    2    0    0 -0.83106860243E+01  0.82544790989E+01  0.17550284574E+03  0.19883307786E+03  0.92715371236E+02 0.  0.
         13    1    3    3    0    0 -0.29387485433E+02  0.33589328034E+02  0.15183657618E+03  0.15825995426E+03  0.00000000000E+00 0.  1.
        -13    1    3    3    0    0  0.21076799409E+02 -0.25334848935E+02  0.23666269560E+02  0.40573123601E+02  0.00000000000E+00 0. -1.
         22    1    1    2    0    0  0.83106860243E+01 -0.82544790989E+01  0.57496808981E+02  0.58677823497E+02  0.00000000000E+00 0.  1.
<mgrwt>
<rscale>  0 0.55604960E+02</rscale>
<asrwt>0</asrwt>
<pdfrwt beam="1">  1        4 0.37731577E-01 0.93452362E+02</pdfrwt>
<pdfrwt beam="2">  1       -4 0.18854807E-02 0.93452362E+02</pdfrwt>
<totfact> 0.11137611E+04</totfact>
</mgrwt>
</event>
<event>
 6    1  0.1828142E-002  0.9414721E+02  0.7546771E-02  0.1396510E+00
         -2   -1    0    0    0  501 -0.00000000000E+00  0.00000000000E+00  0.51297609747E+02  0.51297609747E+02  0.00000000000E+00 0.  1.
          2   -1    0    0  501    0  0.00000000000E+00 -0.00000000000E+00 -0.12749450682E+03  0.12749450682E+03  0.00000000000E+00 0. -1.
         23    2    1    2    0    0 -0.15819217566E+02 -0.11387305289E+01  0.67060091991E+01  0.94385741097E+02  0.92801687547E+02 0.  0.
         13    1    3    3    0    0  0.20875307256E+02 -0.35465466842E+02 -0.82245485822E+01  0.41966903516E+02  0.00000000000E+00 0. -1.
        -13    1    3    3    0    0 -0.36694524821E+02  0.34326736313E+02  0.14930557781E+02  0.52418837582E+02  0.00000000000E+00 0.  1.
         22    1    1    2    0    0  0.15819217566E+02  0.11387305289E+01 -0.82902906271E+02  0.84406375469E+02  0.00000000000E+00 0. -1.
<mgrwt>
<rscale>  0 0.60315984E+02</rscale>
<asrwt>0</asrwt>
<pdfrwt beam="1">  1        2 0.19614540E-01 0.94147212E+02</pdfrwt>
<pdfrwt beam="2">  1       -2 0.78919399E-02 0.94147212E+02</pdfrwt>
<totfact> 0.24352785E+04</totfact>
</mgrwt>
</event>
<event>
 6    1  0.1828142E-002  0.9581975E+02  0.7546771E-02  0.1387283E+00
         -2   -1    0    0    0  501 -0.00000000000E+00  0.00000000000E+00  0.62459232914E+03  0.62459232914E+03  0.00000000000E+00 0.  1.
          2   -1    0    0  501    0  0.00000000000E+00 -0.00000000000E+00 -0.14467354369E+02  0.14467354369E+02  0.00000000000E+00 0. -1.
         23    2    1    2    0    0 -0.40746135205E+01 -0.16958930300E+02  0.61380084914E+03  0.62123498590E+03  0.94218986999E+02 0.  0.
         11    1    3    3    0    0  0.56757007749E+01 -0.90426507406E+01  0.41495564962E+01  0.11454341134E+02  0.00000000000E+00 0. -1.
        -11    1    3    3    0    0 -0.97503142953E+01 -0.79162795593E+01  0.60965129264E+03  0.60978064477E+03  0.00000000000E+00 0.  1.
         22    1    1    2    0    0  0.40746135205E+01  0.16958930300E+02 -0.36758743725E+01  0.17824697604E+02  0.00000000000E+00 0. -1.
<mgrwt>
<rscale>  0 0.62587497E+02</rscale>
<asrwt>0</asrwt>
<pdfrwt beam="1">  1        2 0.22257473E-02 0.95819754E+02</pdfrwt>
<pdfrwt beam="2">  1       -2 0.96091107E-01 0.95819754E+02</pdfrwt>
<totfact> 0.40773478E+03</totfact>
</mgrwt>
</event>
<event>
 6    1  0.1828142E-002  0.9379004E+02  0.7546771E-02  0.1381580E+00
          2   -1    0    0  501    0  0.00000000000E+00  0.00000000000E+00  0.20330026971E+02  0.20330026971E+02  0.00000000000E+00 0. -1.
         -2   -1    0    0    0  501 -0.00000000000E+00 -0.00000000000E+00 -0.22299495896E+03  0.22299495896E+03  0.00000000000E+00 0.  1.
         23    2    1    2    0    0 -0.87986273011E+01  0.18404204621E+02 -0.20223065650E+03  0.22292108471E+03  0.91544748563E+02 0.  0.
         13    1    3    3    0    0  0.32125844420E+02  0.81205004356E+01 -0.27183308642E+02  0.42859592576E+02  0.00000000000E+00 0. -1.
        -13    1    3    3    0    0 -0.40924471721E+02  0.10283704186E+02 -0.17504734785E+03  0.18006149213E+03  0.00000000000E+00 0.  1.
         22    1    1    2    0    0  0.87986273011E+01 -0.18404204621E+02 -0.43427549619E+00  0.20403901228E+02  0.00000000000E+00 0. -1.
<mgrwt>
<rscale>  0 0.64050311E+02</rscale>
<asrwt>0</asrwt>
<pdfrwt beam="1">  1        2 0.31276965E-02 0.93790040E+02</pdfrwt>
<pdfrwt beam="2">  1       -2 0.34306916E-01 0.93790040E+02</pdfrwt>
<totfact> 0.20863347E+04</totfact>
</mgrwt>
</event>
<event>
 6    1  0.1828142E-002  0.9383085E+02  0.7546771E-02  0.1375646E+00
          4   -1    0    0  501    0  0.00000000000E+00  0.00000000000E+00  0.11142045140E+02  0.11142045140E+02  0.00000000000E+00 0. -1.
         -4   -1    0    0    0  501 -0.00000000000E+00 -0.00000000000E+00 -0.34100710767E+03  0.34100710767E+03  0.00000000000E+00 0.  1.
         23    2    1    2    0    0 -0.10014619517E+02 -0.20089669546E+02 -0.30270135008E+03  0.31691061282E+03  0.91106211378E+02 0.  0.
         13    1    3    3    0    0 -0.18693080887E+02 -0.19506694825E+02 -0.30630602461E+03  0.30749524083E+03  0.00000000000E+00 0.  1.
        -13    1    3    3    0    0  0.86784613699E+01 -0.58297472118E+00  0.36046745350E+01  0.94153719936E+01  0.00000000000E+00 0. -1.
         22    1    1    2    0    0  0.10014619517E+02  0.20089669546E+02 -0.27163712455E+02  0.35238539993E+02  0.00000000000E+00 0. -1.
<mgrwt>
<rscale>  0 0.65622224E+02</rscale>
<asrwt>0</asrwt>
<pdfrwt beam="1">  1        4 0.17141606E-02 0.93830854E+02</pdfrwt>
<pdfrwt beam="2">  1       -4 0.52462636E-01 0.93830854E+02</pdfrwt>
<totfact> 0.67025043E+03</totfact>
</mgrwt>
</event>
<event>
 6    1  0.1828142E-002  0.9157265E+02  0.7546771E-02  0.1406075E+00
         -2   -1    0    0    0  501 -0.00000000000E+00  0.00000000000E+00  0.13344940775E+02  0.13344940775E+02  0.00000000000E+00 0.  1.
          2   -1    0    0  501    0  0.00000000000E+00 -0.00000000000E+00 -0.21280616751E+03  0.21280616751E+03  0.00000000000E+00 0. -1.
         23    2    1    2    0    0  0.11506414205E+02  0.93362399925E+01 -0.16673073578E+03  0.19022273533E+03  0.90365855485E+02 0.  0.
         11    1    3    3    0    0  0.76565494259E+01  0.11345923417E+02  0.77221951693E+01  0.15715757237E+02  0.00000000000E+00 0.  1.
        -11    1    3    3    0    0  0.38498647788E+01 -0.20096834249E+01 -0.17445293095E+03  0.17450697809E+03  0.00000000000E+00 0. -1.
         22    1    1    2    0    0 -0.11506414205E+02 -0.93362399925E+01 -0.32730490956E+02  0.35928372957E+02  0.00000000000E+00 0. -1.
<mgrwt>
<rscale>  0 0.58079013E+02</rscale>
<asrwt>0</asrwt>
<pdfrwt beam="1">  1        2 0.32739408E-01 0.91572653E+02</pdfrwt>
<pdfrwt beam="2">  1       -2 0.20530679E-02 0.91572653E+02</pdfrwt>
<totfact> 0.10124143E+05</totfact>
</mgrwt>
</event>
<event>
 6    1  0.1828142E-002  0.9221923E+02  0.7546771E-02  0.1419110E+00
         -1   -1    0    0    0  501 -0.00000000000E+00  0.00000000000E+00  0.27737427948E+02  0.27737427948E+02  0.00000000000E+00 0.  1.
          1   -1    0    0  501    0  0.00000000000E+00 -0.00000000000E+00 -0.12552003549E+03  0.12552003549E+03  0.00000000000E+00 0. -1.
         23    2    1    2    0    0  0.91036798560E+01 -0.75806108529E+01 -0.51796335060E+02  0.10576978183E+03  0.91455146245E+02 0.  0.
         13    1    3    3    0    0 -0.21653678609E+02  0.30694139515E+02 -0.49189563727E+01  0.37884140873E+02  0.00000000000E+00 0.  1.
        -13    1    3    3    0    0  0.30757358465E+02 -0.38274750368E+02 -0.46877378687E+02  0.67885640956E+02  0.00000000000E+00 0. -1.
         22    1    1    2    0    0 -0.91036798560E+01  0.75806108529E+01 -0.45986272485E+02  0.47487681612E+02  0.00000000000E+00 0. -1.
<mgrwt>
<rscale>  0 0.55209629E+02</rscale>
<asrwt>0</asrwt>
<pdfrwt beam="1">  1        1 0.19310775E-01 0.92219230E+02</pdfrwt>
<pdfrwt beam="2">  1       -1 0.42672966E-02 0.92219230E+02</pdfrwt>
<totfact> 0.51619536E+04</totfact>
</mgrwt>
</event>
<event>
 6    1  0.1828142E-002  0.9333647E+02  0.7546771E-02  0.1371653E+00
         -2   -1    0    0    0  501 -0.00000000000E+00  0.00000000000E+00  0.38162451000E+03  0.38162451000E+03  0.00000000000E+00 0.  1.
          2   -1    0    0  501    0  0.00000000000E+00 -0.00000000000E+00 -0.90823578889E+01  0.90823578889E+01  0.00000000000E+00 0. -1.
         23    2    1    2    0    0 -0.19732438109E+01 -0.24275750454E+02  0.29054949940E+03  0.30517324380E+03  0.90102671316E+02 0.  0.
         13    1    3    3    0    0  0.11848655265E+02  0.32181754218E+02  0.87907083111E+02  0.94359478576E+02  0.00000000000E+00 0.  1.
        -13    1    3    3    0    0 -0.13821899076E+02 -0.56457504673E+02  0.20264241629E+03  0.21081376523E+03  0.00000000000E+00 0. -1.
         22    1    1    2    0    0  0.19732438109E+01  0.24275750454E+02  0.81992652703E+02  0.85533624082E+02  0.00000000000E+00 0.  1.
<mgrwt>
<rscale>  0 0.66709734E+02</rscale>
<asrwt>0</asrwt>
<pdfrwt beam="1">  1        2 0.13972861E-02 0.93336473E+02</pdfrwt>
<pdfrwt beam="2">  1       -2 0.58711451E-01 0.93336473E+02</pdfrwt>
<totfact> 0.21961686E+04</totfact>
</mgrwt>
</event>
<event>
 6    1  0.1828142E-002  0.8055646E+02  0.7546771E-02  0.1398871E+00
         -2   -1    0    0    0  501 -0.00000000000E+00  0.00000000000E+00  0.13300486669E+03  0.13300486669E+03  0.00000000000E+00 0.  1.
          2   -1    0    0  501    0  0.00000000000E+00 -0.00000000000E+00 -0.21591633862E+02  0.21591633862E+02  0.00000000000E+00 0. -1.
         23    2    1    2    0    0 -0.23034614630E+02  0.80053406699E+01  0.70916392447E+02  0.10732417216E+03  0.76776716931E+02 0.  0.
         11    1    3    3    0    0 -0.13301274846E+02  0.10310565411E+02  0.86874902196E+02  0.88490001148E+02  0.00000000000E+00 0.  1.
        -11    1    3    3    0    0 -0.97333397846E+01 -0.23052247410E+01 -0.15958509749E+02  0.18834171017E+02  0.00000000000E+00 0. -1.
         22    1    1    2    0    0  0.23034614630E+02 -0.80053406699E+01  0.40496840383E+02  0.47272328390E+02  0.00000000000E+00 0.  1.
<mgrwt>
<rscale>  0 0.59753122E+02</rscale>
<asrwt>0</asrwt>
<pdfrwt beam="1">  1        2 0.33217899E-02 0.80556460E+02</pdfrwt>
<pdfrwt beam="2">  1       -2 0.20462287E-01 0.80556460E+02</pdfrwt>
<totfact> 0.46513097E+04</totfact>
</mgrwt>
</event>
<event>
 6    1  0.1828142E-002  0.9697991E+02  0.7546771E-02  0.1355866E+00
          2   -1    0    0  501    0  0.00000000000E+00  0.00000000000E+00  0.46029553271E+03  0.46029553271E+03  0.00000000000E+00 0. -1.
         -2   -1    0    0    0  501 -0.00000000000E+00 -0.00000000000E+00 -0.87501789586E+01  0.87501789586E+01  0.00000000000E+00 0.  1.
         23    2    1    2    0    0  0.26886927831E+02  0.87276118639E+01  0.37835199782E+03  0.39058332928E+03  0.92768662613E+02 0.  0.
         13    1    3    3    0    0  0.40443088384E+02 -0.23302878524E+02  0.10348488897E+03  0.11352440174E+03  0.00000000000E+00 0. -1.
        -13    1    3    3    0    0 -0.13556160553E+02  0.32030490388E+02  0.27486710885E+03  0.27705892754E+03  0.00000000000E+00 0.  1.
         22    1    1    2    0    0 -0.26886927831E+02 -0.87276118639E+01  0.73193355937E+02  0.78462382390E+02  0.00000000000E+00 0.  1.
<mgrwt>
<rscale>  0 0.71258222E+02</rscale>
<asrwt>0</asrwt>
<pdfrwt beam="1">  1        2 0.70814678E-01 0.96979910E+02</pdfrwt>
<pdfrwt beam="2">  1       -2 0.13461817E-02 0.96979910E+02</pdfrwt>
<totfact> 0.82905961E+04</totfact>
</mgrwt>
</event>
<event>
 6    1  0.1828142E-002  0.1045258E+03  0.7546771E-02  0.1305050E+00
          2   -1    0    0  501    0  0.00000000000E+00  0.00000000000E+00  0.30981822564E+03  0.30981822564E+03  0.00000000000E+00 0. -1.
         -2   -1    0    0    0  501 -0.00000000000E+00 -0.00000000000E+00 -0.27869801821E+02  0.27869801821E+02  0.00000000000E+00 0.  1.
         23    2    1    2    0    0  0.29133535861E+02  0.46866471882E+02  0.89899035936E+02  0.13786761688E+03  0.88771696072E+02 0.  0.
         13    1    3    3    0    0 -0.14184445137E+02 -0.67979699224E+01  0.61164929541E+02  0.63155043224E+02  0.00000000000E+00 0. -1.
        -13    1    3    3    0    0  0.43317980998E+02  0.53664441804E+02  0.28734106395E+02  0.74712573655E+02  0.00000000000E+00 0.  1.
         22    1    1    2    0    0 -0.29133535861E+02 -0.46866471882E+02  0.19204938788E+03  0.19982041058E+03  0.00000000000E+00 0. -1.
<mgrwt>
<rscale>  0 0.89098445E+02</rscale>
<asrwt>0</asrwt>
<pdfrwt beam="1">  1        2 0.47664340E-01 0.10452580E+03</pdfrwt>
<pdfrwt beam="2">  1       -2 0.42876621E-02 0.10452580E+03</pdfrwt>
<totfact> 0.23702896E+04</totfact>
</mgrwt>
</event>
<event>
 6    1  0.1828142E-002  0.9332078E+02  0.7546771E-02  0.1411305E+00
         -2   -1    0    0    0  501 -0.00000000000E+00  0.00000000000E+00  0.55827688407E+01  0.55827688407E+01  0.00000000000E+00 0.  1.
          2   -1    0    0  501    0  0.00000000000E+00 -0.00000000000E+00 -0.50749086359E+03  0.50749086359E+03  0.00000000000E+00 0. -1.
         23    2    1    2    0    0 -0.11229876120E+02  0.63501986301E+01 -0.45125331874E+03  0.46080182862E+03  0.92424739393E+02 0.  0.
         11    1    3    3    0    0 -0.80268700568E+01  0.19179406170E+02 -0.18451814906E+02  0.27798376522E+02  0.00000000000E+00 0.  1.
        -11    1    3    3    0    0 -0.32030060633E+01 -0.12829207540E+02 -0.43280150383E+03  0.43300345210E+03  0.00000000000E+00 0. -1.
         22    1    1    2    0    0  0.11229876120E+02 -0.63501986301E+01 -0.50654776009E+02  0.52271803803E+02  0.00000000000E+00 0. -1.
<mgrwt>
<rscale>  0 0.56903554E+02</rscale>
<asrwt>0</asrwt>
<pdfrwt beam="1">  1        2 0.78075524E-01 0.93320778E+02</pdfrwt>
<pdfrwt beam="2">  1       -2 0.85888745E-03 0.93320778E+02</pdfrwt>
<totfact> 0.14043676E+05</totfact>
</mgrwt>
</event>
<event>
 6    1  0.1828142E-002  0.9301729E+02  0.7546771E-02  0.1400963E+00
          2   -1    0    0  501    0  0.00000000000E+00  0.00000000000E+00  0.24644808620E+03  0.24644808620E+03  0.00000000000E+00 0. -1.
         -2   -1    0    0    0  501 -0.00000000000E+00 -0.00000000000E+00 -0.13781814761E+02  0.13781814761E+02  0.00000000000E+00 0.  1.
         23    2    1    2    0    0  0.15317215108E+02  0.43905834073E+00  0.15263367995E+03  0.17874354903E+03  0.91746423435E+02 0.  0.
         11    1    3    3    0    0  0.53580091707E+02 -0.31194442510E+01  0.76340523336E+02  0.93318983401E+02  0.00000000000E+00 0. -1.
        -11    1    3    3    0    0 -0.38262876600E+02  0.35585025917E+01  0.76293156611E+02  0.85424565624E+02  0.00000000000E+00 0.  1.
         22    1    1    2    0    0 -0.15317215108E+02 -0.43905834073E+00  0.80032591494E+02  0.81486351938E+02  0.00000000000E+00 0.  1.
<mgrwt>
<rscale>  0 0.59260089E+02</rscale>
<asrwt>0</asrwt>
<pdfrwt beam="1">  1        2 0.37915087E-01 0.93017289E+02</pdfrwt>
<pdfrwt beam="2">  1       -2 0.21202794E-02 0.93017289E+02</pdfrwt>
<totfact> 0.82952818E+04</totfact>
</mgrwt>
</event>
<event>
 6    1  0.1828142E-002  0.1050755E+03  0.7546771E-02  0.1400949E+00
          2   -1    0    0  501    0  0.00000000000E+00  0.00000000000E+00  0.31282188287E+03  0.31282188287E+03  0.00000000000E+00 0. -1.
         -2   -1    0    0    0  501 -0.00000000000E+00 -0.00000000000E+00 -0.10709796778E+02  0.10709796778E+02  0.00000000000E+00 0.  1.
         23    2    1    2    0    0 -0.10067644102E+02  0.34201435951E+01  0.27710628168E+03  0.29635917343E+03  0.10453618268E+03 0.  0.
         13    1    3    3    0    0  0.32647633122E+02  0.93623086028E+01  0.22999495092E+03  0.23248913570E+03  0.00000000000E+00 0. -1.
        -13    1    3    3    0    0 -0.42715277224E+02 -0.59421650077E+01  0.47111330766E+02  0.63870037731E+02  0.00000000000E+00 0.  1.
         22    1    1    2    0    0  0.10067644102E+02 -0.34201435951E+01  0.25005804412E+02  0.27172506220E+02  0.00000000000E+00 0. -1.
<mgrwt>
<rscale>  0 0.59263508E+02</rscale>
<asrwt>0</asrwt>
<pdfrwt beam="1">  1        2 0.48126437E-01 0.10507554E+03</pdfrwt>
<pdfrwt beam="2">  1       -2 0.16476613E-02 0.10507554E+03</pdfrwt>
<totfact> 0.94426253E+04</totfact>
</mgrwt>
</event>
<event>
 6    1  0.1828142E-002  0.9636748E+02  0.7546771E-02  0.1357645E+00
         -2   -1    0    0    0  501 -0.00000000000E+00  0.00000000000E+00  0.14831863429E+02  0.14831863429E+02  0.00000000000E+00 0.  1.
          2   -1    0    0  501    0  0.00000000000E+00 -0.00000000000E+00 -0.32347623232E+03  0.32347623232E+03  0.00000000000E+00 0. -1.
         23    2    1    2    0    0  0.14151249211E+02 -0.24111578557E+02 -0.15783033575E+03  0.18492459381E+03  0.92222906256E+02 0.  0.
         11    1    3    3    0    0  0.13001059220E+02 -0.38818852567E+02 -0.18687135706E+02  0.45001554377E+02  0.00000000000E+00 0.  1.
        -11    1    3    3    0    0  0.11501899911E+01  0.14707274010E+02 -0.13914320004E+03  0.13992303943E+03  0.00000000000E+00 0. -1.
         22    1    1    2    0    0 -0.14151249211E+02  0.24111578557E+02 -0.15081403314E+03  0.15338350193E+03  0.00000000000E+00 0.  1.
<mgrwt>
<rscale>  0 0.70724966E+02</rscale>
<asrwt>0</asrwt>
<pdfrwt beam="1">  1        2 0.49765573E-01 0.96367476E+02</pdfrwt>
<pdfrwt beam="2">  1       -2 0.22818252E-02 0.96367476E+02</pdfrwt>
<totfact> 0.56385937E+04</totfact>
</mgrwt>
</event>
<event>
 6    1  0.1828142E-002  0.8946979E+02  0.7546771E-02  0.1427924E+00
          2   -1    0    0  501    0  0.00000000000E+00  0.00000000000E+00  0.22925185912E+02  0.22925185912E+02  0.00000000000E+00 0. -1.
         -2   -1    0    0    0  501 -0.00000000000E+00 -0.00000000000E+00 -0.18900741565E+03  0.18900741565E+03  0.00000000000E+00 0.  1.
         23    2    1    2    0    0 -0.81901836447E+01  0.78372377108E+01 -0.17563372245E+03  0.19710922759E+03  0.88748756257E+02 0.  0.
         13    1    3    3    0    0 -0.93055777810E+01 -0.23719240602E+02 -0.15973876816E+03  0.16175806071E+03  0.00000000000E+00 0.  1.
        -13    1    3    3    0    0  0.11153941363E+01  0.31556478313E+02 -0.15894954285E+02  0.35351166874E+02  0.00000000000E+00 0. -1.
         22    1    1    2    0    0  0.81901836447E+01 -0.78372377108E+01  0.95514927073E+01  0.14823373975E+02  0.00000000000E+00 0. -1.
<mgrwt>
<rscale>  0 0.53379044E+02</rscale>
<asrwt>0</asrwt>
<pdfrwt beam="1">  1        2 0.35269518E-02 0.89469789E+02</pdfrwt>
<pdfrwt beam="2">  1       -2 0.29078063E-01 0.89469789E+02</pdfrwt>
<totfact> 0.23820593E+04</totfact>
</mgrwt>
</event>
<event>
 6    1  0.1828142E-002  0.9210124E+02  0.7546771E-02  0.1406051E+00
          2   -1    0    0  501    0  0.00000000000E+00  0.00000000000E+00  0.61382678325E+03  0.61382678325E+03  0.00000000000E+00 0. -1.
         -2   -1    0    0    0  501 -0.00000000000E+00 -0.00000000000E+00 -0.46425836664E+01  0.46425836664E+01  0.00000000000E+00 0.  1.
         23    2    1    2    0    0 -0.14461089129E+02 -0.17737704022E+01  0.53456318627E+03  0.54243934003E+03  0.90941564413E+02 0.  0.
         13    1    3    3    0    0 -0.70832941130E+01 -0.20265742230E+02  0.51158685541E+03  0.51203709240E+03  0.00000000000E+00 0. -1.
        -13    1    3    3    0    0 -0.73777950164E+01  0.18491971828E+02  0.22976330864E+02  0.30402247637E+02  0.00000000000E+00 0.  1.
         22    1    1    2    0    0  0.14461089129E+02  0.17737704022E+01  0.74621013313E+02  0.76030026885E+02  0.00000000000E+00 0.  1.
<mgrwt>
<rscale>  0 0.58084466E+02</rscale>
<asrwt>0</asrwt>
<pdfrwt beam="1">  1        2 0.94434825E-01 0.92101235E+02</pdfrwt>
<pdfrwt beam="2">  1       -2 0.71424413E-03 0.92101235E+02</pdfrwt>
<totfact> 0.14738392E+05</totfact>
</mgrwt>
</event>
<event>
 6    1  0.1828142E-002  0.9412077E+02  0.7546771E-02  0.1374858E+00
          2   -1    0    0  501    0  0.00000000000E+00  0.00000000000E+00  0.77777181513E+02  0.77777181513E+02  0.00000000000E+00 0.  1.
         -2   -1    0    0    0  501 -0.00000000000E+00 -0.00000000000E+00 -0.80166296389E+02  0.80166296389E+02  0.00000000000E+00 0. -1.
         23    2    1    2    0    0 -0.50426156280E+01 -0.21958917855E+02 -0.49044800829E+02  0.10613252271E+03  0.91384341348E+02 0.  0.
         13    1    3    3    0    0 -0.19352162888E+02  0.30142507977E+02 -0.44893070222E+01  0.36100289101E+02  0.00000000000E+00 0.  1.
        -13    1    3    3    0    0  0.14309547260E+02 -0.52101425832E+02 -0.44555493807E+02  0.70032233614E+02  0.00000000000E+00 0. -1.
         22    1    1    2    0    0  0.50426156280E+01  0.21958917855E+02  0.46655685953E+02  0.51810955188E+02  0.00000000000E+00 0.  1.
<mgrwt>
<rscale>  0 0.65834975E+02</rscale>
<asrwt>0</asrwt>
<pdfrwt beam="1">  1        2 0.11965720E-01 0.94120773E+02</pdfrwt>
<pdfrwt beam="2">  1       -2 0.12333276E-01 0.94120773E+02</pdfrwt>
<totfact> 0.21517043E+04</totfact>
</mgrwt>
</event>
<event>
 6    1  0.1828142E-002  0.9147043E+02  0.7546771E-02  0.1427165E+00
         -2   -1    0    0    0  501 -0.00000000000E+00  0.00000000000E+00  0.23102081350E+03  0.23102081350E+03  0.00000000000E+00 0.  1.
          2   -1    0    0  501    0  0.00000000000E+00 -0.00000000000E+00 -0.11482637961E+02  0.11482637961E+02  0.00000000000E+00 0. -1.
         23    2    1    2    0    0  0.24193080694E+01  0.10455078624E+02  0.20454195545E+03  0.22406305186E+03  0.90838746954E+02 0.  0.
         11    1    3    3    0    0 -0.19867388844E+01  0.50057010935E+02  0.93278468313E+02  0.10587976259E+03  0.00000000000E+00 0.  1.
        -11    1    3    3    0    0  0.44060469537E+01 -0.39601932311E+02  0.11126348714E+03  0.11818328927E+03  0.00000000000E+00 0. -1.
         22    1    1    2    0    0 -0.24193080694E+01 -0.10455078624E+02  0.14996220092E+02  0.18440399606E+02  0.00000000000E+00 0. -1.
<mgrwt>
<rscale>  0 0.53533306E+02</rscale>
<asrwt>0</asrwt>
<pdfrwt beam="1">  1        2 0.17665599E-02 0.91470431E+02</pdfrwt>
<pdfrwt beam="2">  1       -2 0.35541660E-01 0.91470431E+02</pdfrwt>
<totfact> 0.41933942E+04</totfact>
</mgrwt>
</event>
<event>
 6    1  0.1828142E-002  0.1120141E+03  0.7546771E-02  0.1351070E+00
         -1   -1    0    0    0  501 -0.00000000000E+00  0.00000000000E+00  0.33817452821E+03  0.33817452821E+03  0.00000000000E+00 0.  1.
          1   -1    0    0  501    0  0.00000000000E+00 -0.00000000000E+00 -0.14918487413E+02  0.14918487413E+02  0.00000000000E+00 0. -1.
         23    2    1    2    0    0  0.14989457060E+02  0.13090622008E+02  0.30882094061E+03  0.32850805427E+03  0.11023211941E+03 0.  0.
         11    1    3    3    0    0 -0.28756427102E+02 -0.15512869036E+02  0.28503120474E+02  0.43359071509E+02  0.00000000000E+00 0. -1.
        -11    1    3    3    0    0  0.43745884161E+02  0.28603491044E+02  0.28031782014E+03  0.28514898276E+03  0.00000000000E+00 0.  1.
         22    1    1    2    0    0 -0.14989457060E+02 -0.13090622008E+02  0.14435100184E+02  0.24584961355E+02  0.00000000000E+00 0. -1.
<mgrwt>
<rscale>  0 0.72723229E+02</rscale>
<asrwt>0</asrwt>
<pdfrwt beam="1">  1        1 0.22951522E-02 0.11201414E+03</pdfrwt>
<pdfrwt beam="2">  1       -1 0.52026845E-01 0.11201414E+03</pdfrwt>
<totfact> 0.17327615E+04</totfact>
</mgrwt>
</event>
<event>
 6    1  0.1828142E-002  0.1000354E+03  0.7546771E-02  0.1412359E+00
          3   -1    0    0  501    0  0.00000000000E+00  0.00000000000E+00  0.98037924420E+02  0.98037924420E+02  0.00000000000E+00 0. -1.
         -3   -1    0    0    0  501 -0.00000000000E+00 -0.00000000000E+00 -0.46318575054E+02  0.46318575054E+02  0.00000000000E+00 0.  1.
         23    2    1    2    0    0  0.96652383580E+01  0.35695456398E+01  0.90308977629E+01  0.10044223768E+03  0.99503404502E+02 0.  0.
         13    1    3    3    0    0 -0.16743472997E+02  0.30932894035E+02  0.38635851236E+02  0.52248605934E+02  0.00000000000E+00 0. -1.
        -13    1    3    3    0    0  0.26408711355E+02 -0.27363348395E+02 -0.29604953473E+02  0.48193631747E+02  0.00000000000E+00 0.  1.
         22    1    1    2    0    0 -0.96652383580E+01 -0.35695456398E+01  0.42688451602E+02  0.43914261793E+02  0.00000000000E+00 0.  1.
<mgrwt>
<rscale>  0 0.56670847E+02</rscale>
<asrwt>0</asrwt>
<pdfrwt beam="1">  1        3 0.15082758E-01 0.10003542E+03</pdfrwt>
<pdfrwt beam="2">  1       -3 0.71259347E-02 0.10003542E+03</pdfrwt>
<totfact> 0.10009967E+04</totfact>
</mgrwt>
</event>
<event>
 6    1  0.1828142E-002  0.9785766E+02  0.7546771E-02  0.1363130E+00
         -2   -1    0    0    0  501 -0.00000000000E+00  0.00000000000E+00  0.23657932800E+02  0.23657932800E+02  0.00000000000E+00 0.  1.
          2   -1    0    0  501    0  0.00000000000E+00 -0.00000000000E+00 -0.22714148148E+03  0.22714148148E+03  0.00000000000E+00 0. -1.
         23    2    1    2    0    0  0.12300514676E+02 -0.21014717746E+02 -0.84322385316E+02  0.12917579866E+03  0.94779751370E+02 0.  0.
         11    1    3    3    0    0  0.28582281444E+02 -0.51390850794E+02 -0.33224351453E+02  0.67541275434E+02  0.00000000000E+00 0.  1.
        -11    1    3    3    0    0 -0.16281766767E+02  0.30376133048E+02 -0.51098033863E+02  0.61634523221E+02  0.00000000000E+00 0. -1.
         22    1    1    2    0    0 -0.12300514676E+02  0.21014717746E+02 -0.11916116337E+03  0.12162361563E+03  0.00000000000E+00 0. -1.
<mgrwt>
<rscale>  0 0.69114749E+02</rscale>
<asrwt>0</asrwt>
<pdfrwt beam="1">  1        2 0.34944844E-01 0.97857663E+02</pdfrwt>
<pdfrwt beam="2">  1       -2 0.36396819E-02 0.97857663E+02</pdfrwt>
<totfact> 0.41525483E+04</totfact>
</mgrwt>
</event>
<event>
 6    1  0.1828142E-002  0.9277828E+02  0.7546771E-02  0.1407481E+00
         -2   -1    0    0    0  501 -0.00000000000E+00  0.00000000000E+00  0.14632044701E+02  0.14632044701E+02  0.00000000000E+00 0.  1.
          2   -1    0    0  501    0  0.00000000000E+00 -0.00000000000E+00 -0.22628137181E+03  0.22628137181E+03  0.00000000000E+00 0. -1.
         23    2    1    2    0    0  0.13909939607E+02  0.86339271355E+00 -0.14020680910E+03  0.16812423293E+03  0.91725549950E+02 0.  0.
         13    1    3    3    0    0  0.41870562211E+02  0.78194608708E+01 -0.25043340378E+02  0.49411100428E+02  0.00000000000E+00 0.  1.
        -13    1    3    3    0    0 -0.27960622604E+02 -0.69560681573E+01 -0.11516346872E+03  0.11871313250E+03  0.00000000000E+00 0. -1.
         22    1    1    2    0    0 -0.13909939607E+02 -0.86339271355E+00 -0.71442518014E+02  0.72789183585E+02  0.00000000000E+00 0. -1.
<mgrwt>
<rscale>  0 0.57759680E+02</rscale>
<asrwt>0</asrwt>
<pdfrwt beam="1">  1        2 0.34812517E-01 0.92778275E+02</pdfrwt>
<pdfrwt beam="2">  1       -2 0.22510839E-02 0.92778275E+02</pdfrwt>
<totfact> 0.83244272E+04</totfact>
</mgrwt>
</event>
<event>
 6    1  0.1828142E-002  0.9148823E+02  0.7546771E-02  0.1418067E+00
          2   -1    0    0  501    0  0.00000000000E+00  0.00000000000E+00  0.27610513454E+03  0.27610513454E+03  0.00000000000E+00 0. -1.
         -2   -1    0    0    0  501 -0.00000000000E+00 -0.00000000000E+00 -0.10293547206E+02  0.10293547206E+02  0.00000000000E+00 0.  1.
         23    2    1    2    0    0 -0.43743935660E+01 -0.11527338116E+02  0.20712130282E+03  0.22642731908E+03  0.90653637011E+02 0.  0.
         11    1    3    3    0    0 -0.17856833157E+02  0.34336788367E+02  0.57154518131E+02  0.69025505927E+02  0.00000000000E+00 0.  1.
        -11    1    3    3    0    0  0.13482439591E+02 -0.45864126484E+02  0.14996678469E+03  0.15740181316E+03  0.00000000000E+00 0. -1.
         22    1    1    2    0    0  0.43743935660E+01  0.11527338116E+02  0.58690284518E+02  0.59971362665E+02  0.00000000000E+00 0. -1.
<mgrwt>
<rscale>  0 0.55431889E+02</rscale>
<asrwt>0</asrwt>
<pdfrwt beam="1">  1        2 0.42477707E-01 0.91488233E+02</pdfrwt>
<pdfrwt beam="2">  1       -2 0.15836229E-02 0.91488233E+02</pdfrwt>
<totfact> 0.11161301E+05</totfact>
</mgrwt>
</event>
<event>
 6    1  0.1828142E-002  0.9044120E+02  0.7546771E-02  0.1405146E+00
          4   -1    0    0  501    0  0.00000000000E+00  0.00000000000E+00  0.27786882157E+01  0.27786882157E+01  0.00000000000E+00 0. -1.
         -4   -1    0    0    0  501 -0.00000000000E+00 -0.00000000000E+00 -0.13202535436E+04  0.13202535436E+04  0.00000000000E+00 0.  1.
         23    2    1    2    0    0 -0.12503488470E+02 -0.93397009143E+01 -0.12664193915E+04  0.12696447086E+04  0.89084475663E+02 0.  0.
         13    1    3    3    0    0  0.65713602165E+01 -0.34414863493E+02 -0.22179255771E+03  0.22454287845E+03  0.00000000000E+00 0. -1.
        -13    1    3    3    0    0 -0.19074848687E+02  0.25075162579E+02 -0.10446268338E+04  0.10451018302E+04  0.00000000000E+00 0.  1.
         22    1    1    2    0    0  0.12503488470E+02  0.93397009143E+01 -0.51055463886E+02  0.53387523165E+02  0.00000000000E+00 0. -1.
<mgrwt>
<rscale>  0 0.58291080E+02</rscale>
<asrwt>0</asrwt>
<pdfrwt beam="1">  1        4 0.42749036E-03 0.90441202E+02</pdfrwt>
<pdfrwt beam="2">  1       -4 0.20311599E+00 0.90441202E+02</pdfrwt>
<totfact> 0.22107125E+03</totfact>
</mgrwt>
</event>
<event>
 6    1  0.1828142E-002  0.9342311E+02  0.7546771E-02  0.1393752E+00
         -1   -1    0    0    0  501 -0.00000000000E+00  0.00000000000E+00  0.34824054154E+03  0.34824054154E+03  0.00000000000E+00 0.  1.
          1   -1    0    0  501    0  0.00000000000E+00 -0.00000000000E+00 -0.10719207258E+02  0.10719207258E+02  0.00000000000E+00 0. -1.
         23    2    1    2    0    0 -0.16310058376E+02 -0.46565924947E+01  0.32419986344E+03  0.33739210073E+03  0.91870432248E+02 0.  0.
         11    1    3    3    0    0  0.14555299195E+02  0.22813990796E+02  0.30396510775E+02  0.40697454196E+02  0.00000000000E+00 0. -1.
        -11    1    3    3    0    0 -0.30865357571E+02 -0.27470583291E+02  0.29380335266E+03  0.29669464653E+03  0.00000000000E+00 0.  1.
         22    1    1    2    0    0  0.16310058376E+02  0.46565924947E+01  0.13321470842E+02  0.21567648070E+02  0.00000000000E+00 0. -1.
<mgrwt>
<rscale>  0 0.60982972E+02</rscale>
<asrwt>0</asrwt>
<pdfrwt beam="1">  1        1 0.16491091E-02 0.93423114E+02</pdfrwt>
<pdfrwt beam="2">  1       -1 0.53575459E-01 0.93423114E+02</pdfrwt>
<totfact> 0.25384653E+04</totfact>
</mgrwt>
</event>
<event>
 6    1  0.1828142E-002  0.9168942E+02  0.7546771E-02  0.1388504E+00
         -2   -1    0    0    0  501 -0.00000000000E+00  0.00000000000E+00  0.60119403883E+01  0.60119403883E+01  0.00000000000E+00 0.  1.
          2   -1    0    0  501    0  0.00000000000E+00 -0.00000000000E+00 -0.51485343253E+03  0.51485343253E+03  0.00000000000E+00 0. -1.
         23    2    1    2    0    0  0.12880415594E+02  0.14664925471E+02 -0.41270444958E+03  0.42276697284E+03  0.89587864570E+02 0.  0.
         11    1    3    3    0    0  0.74837385293E+01  0.38760442650E+02 -0.80623867097E+02  0.89769628509E+02  0.00000000000E+00 0.  1.
        -11    1    3    3    0    0  0.53966770645E+01 -0.24095517179E+02 -0.33208058248E+03  0.33299734433E+03  0.00000000000E+00 0. -1.
         22    1    1    2    0    0 -0.12880415594E+02 -0.14664925471E+02 -0.96137042560E+02  0.98098400074E+02  0.00000000000E+00 0. -1.
<mgrwt>
<rscale>  0 0.62280213E+02</rscale>
<asrwt>0</asrwt>
<pdfrwt beam="1">  1        2 0.79208234E-01 0.91689425E+02</pdfrwt>
<pdfrwt beam="2">  1       -2 0.92491375E-03 0.91689425E+02</pdfrwt>
<totfact> 0.12418879E+05</totfact>
</mgrwt>
</event>
<event>
 6    1  0.1828142E-002  0.9192219E+02  0.7546771E-02  0.1386968E+00
         -4   -1    0    0    0  501 -0.00000000000E+00  0.00000000000E+00  0.35084484556E+03  0.35084484556E+03  0.00000000000E+00 0.  1.
          4   -1    0    0  501    0  0.00000000000E+00 -0.00000000000E+00 -0.94473240294E+01  0.94473240294E+01  0.00000000000E+00 0. -1.
         23    2    1    2    0    0 -0.73786212920E+01 -0.18434615835E+02  0.30813297940E+03  0.32155189499E+03  0.89751930689E+02 0.  0.
         11    1    3    3    0    0  0.28520283423E+02  0.79868013831E+01  0.22749172908E+03  0.22941160032E+03  0.00000000000E+00 0. -1.
        -11    1    3    3    0    0 -0.35898904715E+02 -0.26421417219E+02  0.80641250319E+02  0.92140294663E+02  0.00000000000E+00 0.  1.
         22    1    1    2    0    0  0.73786212920E+01  0.18434615835E+02  0.33264542132E+02  0.38740274605E+02  0.00000000000E+00 0. -1.
<mgrwt>
<rscale>  0 0.62667263E+02</rscale>
<asrwt>0</asrwt>
<pdfrwt beam="1">  1        4 0.14534347E-02 0.91922185E+02</pdfrwt>
<pdfrwt beam="2">  1       -4 0.53976120E-01 0.91922185E+02</pdfrwt>
<totfact> 0.80733727E+03</totfact>
</mgrwt>
</event>
<event>
 6    1  0.1828142E-002  0.9824492E+02  0.7546771E-02  0.1340158E+00
          3   -1    0    0  501    0  0.00000000000E+00  0.00000000000E+00  0.67338128351E+02  0.67338128351E+02  0.00000000000E+00 0. -1.
         -3   -1    0    0    0  501 -0.00000000000E+00 -0.00000000000E+00 -0.89226873722E+02  0.89226873722E+02  0.00000000000E+00 0.  1.
         23    2    1    2    0    0 -0.29626314577E+02 -0.19697282143E+02 -0.50910577898E+02  0.11065238722E+03  0.91577084560E+02 0.  0.
         13    1    3    3    0    0 -0.54619080524E+02 -0.37007884330E+02 -0.44502871821E+02  0.79582240859E+02  0.00000000000E+00 0.  1.
        -13    1    3    3    0    0  0.24992765948E+02  0.17310602187E+02 -0.64077060772E+01  0.31070146362E+02  0.00000000000E+00 0. -1.
         22    1    1    2    0    0  0.29626314577E+02  0.19697282143E+02  0.29021832527E+02  0.45912614851E+02  0.00000000000E+00 0. -1.
<mgrwt>
<rscale>  0 0.76212109E+02</rscale>
<asrwt>0</asrwt>
<pdfrwt beam="1">  1        3 0.10359712E-01 0.98244918E+02</pdfrwt>
<pdfrwt beam="2">  1       -3 0.13727211E-01 0.98244918E+02</pdfrwt>
<totfact> 0.63690654E+03</totfact>
</mgrwt>
</event>
<event>
 6    1  0.1828142E-002  0.9048453E+02  0.7546771E-02  0.1418803E+00
          1   -1    0    0  501    0  0.00000000000E+00  0.00000000000E+00  0.11852117381E+03  0.11852117381E+03  0.00000000000E+00 0. -1.
         -1   -1    0    0    0  501 -0.00000000000E+00 -0.00000000000E+00 -0.24023071002E+02  0.24023071002E+02  0.00000000000E+00 0.  1.
         23    2    1    2    0    0  0.16125099504E+01 -0.12496955108E+02  0.67950190523E+02  0.11315775605E+03  0.89602875434E+02 0.  0.
         11    1    3    3    0    0  0.97970987256E+01  0.51830127099E+01  0.85932828865E+02  0.86644664238E+02  0.00000000000E+00 0. -1.
        -11    1    3    3    0    0 -0.81845887752E+01 -0.17679967818E+02 -0.17982638342E+02  0.26513091808E+02  0.00000000000E+00 0.  1.
         22    1    1    2    0    0 -0.16125099504E+01  0.12496955108E+02  0.26547912285E+02  0.29386488766E+02  0.00000000000E+00 0. -1.
<mgrwt>
<rscale>  0 0.55274928E+02</rscale>
<asrwt>0</asrwt>
<pdfrwt beam="1">  1        1 0.18234026E-01 0.90484526E+02</pdfrwt>
<pdfrwt beam="2">  1       -1 0.36958571E-02 0.90484526E+02</pdfrwt>
<totfact> 0.68191107E+04</totfact>
</mgrwt>
</event>
<event>
 6    1  0.1828142E-002  0.9084952E+02  0.7546771E-02  0.1388823E+00
          2   -1    0    0  501    0  0.00000000000E+00  0.00000000000E+00  0.37217988575E+03  0.37217988575E+03  0.00000000000E+00 0. -1.
         -2   -1    0    0    0  501 -0.00000000000E+00 -0.00000000000E+00 -0.83081246324E+01  0.83081246324E+01  0.00000000000E+00 0.  1.
         23    2    1    2    0    0 -0.18356805799E+02 -0.78425604528E+01  0.28502726493E+03  0.29915577414E+03  0.88629325691E+02 0.  0.
         11    1    3    3    0    0 -0.25742960406E+02 -0.11961842920E+02  0.28858717150E+03  0.28997989801E+03  0.00000000000E+00 0. -1.
        -11    1    3    3    0    0  0.73861546066E+01  0.41192824669E+01 -0.35599065685E+01  0.91758761267E+01  0.00000000000E+00 0.  1.
         22    1    1    2    0    0  0.18356805799E+02  0.78425604528E+01  0.78844496187E+02  0.81332236245E+02  0.00000000000E+00 0. -1.
<mgrwt>
<rscale>  0 0.62200308E+02</rscale>
<asrwt>0</asrwt>
<pdfrwt beam="1">  1        2 0.57258431E-01 0.90849521E+02</pdfrwt>
<pdfrwt beam="2">  1       -2 0.12781733E-02 0.90849521E+02</pdfrwt>
<totfact> 0.11071700E+05</totfact>
</mgrwt>
</event>
<event>
 6    1  0.1828142E-002  0.9072627E+02  0.7546771E-02  0.1426530E+00
         -2   -1    0    0    0  501 -0.00000000000E+00  0.00000000000E+00  0.90518288096E+02  0.90518288096E+02  0.00000000000E+00 0.  1.
          2   -1    0    0  501    0  0.00000000000E+00 -0.00000000000E+00 -0.31540854377E+02  0.31540854377E+02  0.00000000000E+00 0. -1.
         23    2    1    2    0    0  0.69076255396E+01 -0.86945138740E+01  0.62771243830E+02  0.11032445640E+03  0.90044137875E+02 0.  0.
         11    1    3    3    0    0 -0.11995080527E+02  0.23145583656E+02 -0.10597834294E+02  0.28140968202E+02  0.00000000000E+00 0. -1.
        -11    1    3    3    0    0  0.18902706067E+02 -0.31840097530E+02  0.73369078124E+02  0.82183488196E+02  0.00000000000E+00 0.  1.
         22    1    1    2    0    0 -0.69076255396E+01  0.86945138740E+01 -0.37938101106E+01  0.11734686074E+02  0.00000000000E+00 0. -1.
<mgrwt>
<rscale>  0 0.53662948E+02</rscale>
<asrwt>0</asrwt>
<pdfrwt beam="1">  1        2 0.48524392E-02 0.90726273E+02</pdfrwt>
<pdfrwt beam="2">  1       -2 0.13925890E-01 0.90726273E+02</pdfrwt>
<totfact> 0.54246831E+04</totfact>
</mgrwt>
</event>
<event>
 6    1  0.1828142E-002  0.1712504E+03  0.7546771E-02  0.1184252E+00
         -4   -1    0    0    0  501 -0.00000000000E+00  0.00000000000E+00  0.12824725012E+03  0.12824725012E+03  0.00000000000E+00 0.  1.
          4   -1    0    0  501    0  0.00000000000E+00 -0.00000000000E+00 -0.21032704597E+03  0.21032704597E+03  0.00000000000E+00 0. -1.
         23    2    1    2    0    0  0.14158901151E+03 -0.26485719774E+02  0.30055335749E+01  0.17127679219E+03  0.92616223082E+02 0.  0.
         11    1    3    3    0    0  0.77714904177E+02  0.32368843305E+02 -0.27518284989E+01  0.84231353475E+02  0.00000000000E+00 0. -1.
        -11    1    3    3    0    0  0.63874107329E+02 -0.58854563078E+02  0.57573620737E+01  0.87045438711E+02  0.00000000000E+00 0.  1.
         22    1    1    2    0    0 -0.14158901151E+03  0.26485719774E+02 -0.85085329427E+02  0.16729750391E+03  0.00000000000E+00 0. -1.
<mgrwt>
<rscale>  0 0.16400165E+03</rscale>
<asrwt>0</asrwt>
<pdfrwt beam="1">  1        4 0.32358007E-01 0.17125042E+03</pdfrwt>
<pdfrwt beam="2">  1       -4 0.19730346E-01 0.17125042E+03</pdfrwt>
<totfact> 0.36873884E+02</totfact>
</mgrwt>
</event>
<event>
 6    1  0.1828142E-002  0.9622248E+02  0.7546771E-02  0.1349436E+00
         -2   -1    0    0    0  501 -0.00000000000E+00  0.00000000000E+00  0.70120207836E+01  0.70120207836E+01  0.00000000000E+00 0.  1.
          2   -1    0    0  501    0  0.00000000000E+00 -0.00000000000E+00 -0.61335203299E+03  0.61335203299E+03  0.00000000000E+00 0. -1.
         23    2    1    2    0    0 -0.92024818623E+01 -0.30942792722E+02 -0.50220405667E+03  0.51133910558E+03  0.90645597038E+02 0.  0.
         13    1    3    3    0    0  0.21758898426E+02 -0.18425261557E+02 -0.47428395753E+02  0.55338889109E+02  0.00000000000E+00 0.  1.
        -13    1    3    3    0    0 -0.30961380288E+02 -0.12517531165E+02 -0.45477566092E+03  0.45600021647E+03  0.00000000000E+00 0. -1.
         22    1    1    2    0    0  0.92024818623E+01  0.30942792722E+02 -0.10413595554E+03  0.10902494820E+03  0.00000000000E+00 0. -1.
<mgrwt>
<rscale>  0 0.73231561E+02</rscale>
<asrwt>0</asrwt>
<pdfrwt beam="1">  1        2 0.94361860E-01 0.96222484E+02</pdfrwt>
<pdfrwt beam="2">  1       -2 0.10787723E-02 0.96222484E+02</pdfrwt>
<totfact> 0.82853518E+04</totfact>
</mgrwt>
</event>
<event>
 6    1  0.1828142E-002  0.9790547E+02  0.7546771E-02  0.1334777E+00
         -2   -1    0    0    0  501 -0.00000000000E+00  0.00000000000E+00  0.42761277901E+02  0.42761277901E+02  0.00000000000E+00 0.  1.
          2   -1    0    0  501    0  0.00000000000E+00 -0.00000000000E+00 -0.11245287961E+03  0.11245287961E+03  0.00000000000E+00 0. -1.
         23    2    1    2    0    0 -0.12399450351E+02 -0.37476594615E+02 -0.39742636804E+02  0.10566436425E+03  0.89594861349E+02 0.  0.
         13    1    3    3    0    0 -0.40046151773E+02 -0.52302015697E+02 -0.32566568324E+02  0.73483171476E+02  0.00000000000E+00 0. -1.
        -13    1    3    3    0    0  0.27646701422E+02  0.14825421082E+02 -0.71760684805E+01  0.32181192778E+02  0.00000000000E+00 0.  1.
         22    1    1    2    0    0  0.12399450351E+02  0.37476594615E+02 -0.29948964909E+02  0.49549793260E+02  0.00000000000E+00 0. -1.
<mgrwt>
<rscale>  0 0.78016158E+02</rscale>
<asrwt>0</asrwt>
<pdfrwt beam="1">  1        2 0.17300443E-01 0.97905468E+02</pdfrwt>
<pdfrwt beam="2">  1       -2 0.65786581E-02 0.97905468E+02</pdfrwt>
<totfact> 0.37180753E+04</totfact>
</mgrwt>
</event>
<event>
 6    1  0.1828142E-002  0.9464381E+02  0.7546771E-02  0.1409363E+00
         -4   -1    0    0    0  501 -0.00000000000E+00  0.00000000000E+00  0.28655717807E+02  0.28655717807E+02  0.00000000000E+00 0. -1.
          4   -1    0    0  501    0  0.00000000000E+00 -0.00000000000E+00 -0.10485157664E+03  0.10485157664E+03  0.00000000000E+00 0.  1.
         23    2    1    2    0    0 -0.11871604199E+02 -0.46449659413E+01 -0.57059305878E+02  0.11051341800E+03  0.93781343971E+02 0.  0.
         11    1    3    3    0    0 -0.49679048240E+02  0.68475679526E+01 -0.13991161420E+02  0.52063899381E+02  0.00000000000E+00 0. -1.
        -11    1    3    3    0    0  0.37807444041E+02 -0.11492533894E+02 -0.43068144459E+02  0.58449518624E+02  0.00000000000E+00 0.  1.
         22    1    1    2    0    0  0.11871604199E+02  0.46449659413E+01 -0.19136552955E+02  0.22993876443E+02  0.00000000000E+00 0.  1.
<mgrwt>
<rscale>  0 0.57336267E+02</rscale>
<asrwt>0</asrwt>
<pdfrwt beam="1">  1        4 0.16131012E-01 0.94643812E+02</pdfrwt>
<pdfrwt beam="2">  1       -4 0.44085719E-02 0.94643812E+02</pdfrwt>
<totfact> 0.14190919E+04</totfact>
</mgrwt>
</event>
<event>
 6    1  0.1828142E-002  0.9084017E+02  0.7546771E-02  0.1417044E+00
         -2   -1    0    0    0  501 -0.00000000000E+00  0.00000000000E+00  0.55385838888E+02  0.55385838888E+02  0.00000000000E+00 0.  1.
          2   -1    0    0  501    0  0.00000000000E+00 -0.00000000000E+00 -0.48537624649E+02  0.48537624649E+02  0.00000000000E+00 0. -1.
         23    2    1    2    0    0  0.11715227910E+02  0.51462105063E+01  0.48194111548E+01  0.90967920727E+02  0.89934452964E+02 0.  0.
         13    1    3    3    0    0  0.18458059776E+02 -0.11528803741E+02  0.43316545334E+02  0.48476142442E+02  0.00000000000E+00 0.  1.
        -13    1    3    3    0    0 -0.67428318658E+01  0.16675014248E+02 -0.38497134180E+02  0.42491778284E+02  0.00000000000E+00 0. -1.
         22    1    1    2    0    0 -0.11715227910E+02 -0.51462105063E+01  0.20288030843E+01  0.12955542810E+02  0.00000000000E+00 0. -1.
<mgrwt>
<rscale>  0 0.55651194E+02</rscale>
<asrwt>0</asrwt>
<pdfrwt beam="1">  1        2 0.74673269E-02 0.90840167E+02</pdfrwt>
<pdfrwt beam="2">  1       -2 0.85208983E-02 0.90840167E+02</pdfrwt>
<totfact> 0.67758718E+04</totfact>
</mgrwt>
</event>
<event>
 6    1  0.1828142E-002  0.1030474E+03  0.7546771E-02  0.1318123E+00
          2   -1    0    0  501    0  0.00000000000E+00  0.00000000000E+00  0.90690386007E+02  0.90690386007E+02  0.00000000000E+00 0. -1.
         -2   -1    0    0    0  501 -0.00000000000E+00 -0.00000000000E+00 -0.66377877993E+02  0.66377877993E+02  0.00000000000E+00 0.  1.
         23    2    1    2    0    0  0.30145187761E+02  0.34020759444E+02 -0.46812113914E+01  0.10315370026E+03  0.92480418030E+02 0.  0.
         11    1    3    3    0    0 -0.16600298872E+02  0.23096320892E+02 -0.35966436262E+02  0.45854056514E+02  0.00000000000E+00 0.  1.
        -11    1    3    3    0    0  0.46745486633E+02  0.10924438552E+02  0.31285224871E+02  0.57299643746E+02  0.00000000000E+00 0. -1.
         22    1    1    2    0    0 -0.30145187761E+02 -0.34020759444E+02  0.28993719405E+02  0.53914563740E+02  0.00000000000E+00 0. -1.
<mgrwt>
<rscale>  0 0.83979435E+02</rscale>
<asrwt>0</asrwt>
<pdfrwt beam="1">  1        2 0.13952367E-01 0.10304743E+03</pdfrwt>
<pdfrwt beam="2">  1       -2 0.10211981E-01 0.10304743E+03</pdfrwt>
<totfact> 0.24410294E+04</totfact>
</mgrwt>
</event>
<event>
 6    1  0.1828142E-002  0.1038941E+03  0.7546771E-02  0.1313243E+00
         -2   -1    0    0    0  501 -0.00000000000E+00  0.00000000000E+00  0.37051478948E+02  0.37051478948E+02  0.00000000000E+00 0.  1.
          2   -1    0    0  501    0  0.00000000000E+00 -0.00000000000E+00 -0.19989230729E+03  0.19989230729E+03  0.00000000000E+00 0. -1.
         23    2    1    2    0    0 -0.35538236240E+02 -0.32890412476E+02 -0.52413959057E+02  0.11636667843E+03  0.91919721912E+02 0.  0.
         13    1    3    3    0    0  0.83585630370E+01  0.10650251487E+02  0.18088522673E+02  0.22593983387E+02  0.00000000000E+00 0. -1.
        -13    1    3    3    0    0 -0.43896799277E+02 -0.43540663963E+02 -0.70502481730E+02  0.93772695041E+02  0.00000000000E+00 0.  1.
         22    1    1    2    0    0  0.35538236240E+02  0.32890412476E+02 -0.11042686929E+03  0.12057710781E+03  0.00000000000E+00 0. -1.
<mgrwt>
<rscale>  0 0.85843038E+02</rscale>
<asrwt>0</asrwt>
<pdfrwt beam="1">  1        2 0.30752663E-01 0.10389408E+03</pdfrwt>
<pdfrwt beam="2">  1       -2 0.57002275E-02 0.10389408E+03</pdfrwt>
<totfact> 0.24629854E+04</totfact>
</mgrwt>
</event>
<event>
 6    1  0.1828142E-002  0.9304686E+02  0.7546771E-02  0.1372204E+00
         -3   -1    0    0    0  501 -0.00000000000E+00  0.00000000000E+00  0.17315021828E+03  0.17315021828E+03  0.00000000000E+00 0.  1.
          3   -1    0    0  501    0  0.00000000000E+00 -0.00000000000E+00 -0.11737320034E+03  0.11737320034E+03  0.00000000000E+00 0. -1.
         23    2    1    2    0    0 -0.22227322494E+02  0.99709341200E+01  0.15913070304E+03  0.18433746091E+03  0.89801143938E+02 0.  0.
         11    1    3    3    0    0  0.22872962159E+02  0.34535162561E+02  0.78047134809E+02  0.88358390110E+02  0.00000000000E+00 0.  1.
        -11    1    3    3    0    0 -0.45100284653E+02 -0.24564228441E+02  0.81083568232E+02  0.95979070801E+02  0.00000000000E+00 0. -1.
         22    1    1    2    0    0  0.22227322494E+02 -0.99709341200E+01 -0.10335368509E+03  0.10618595771E+03  0.00000000000E+00 0. -1.
<mgrwt>
<rscale>  0 0.66558184E+02</rscale>
<asrwt>0</asrwt>
<pdfrwt beam="1">  1        3 0.18057415E-01 0.93046864E+02</pdfrwt>
<pdfrwt beam="2">  1       -3 0.26638495E-01 0.93046864E+02</pdfrwt>
<totfact> 0.78024411E+02</totfact>
</mgrwt>
</event>
<event>
 6    1  0.1828142E-002  0.9795541E+02  0.7546771E-02  0.1384148E+00
          2   -1    0    0  501    0  0.00000000000E+00  0.00000000000E+00  0.26834956086E+02  0.26834956086E+02  0.00000000000E+00 0. -1.
         -2   -1    0    0    0  501 -0.00000000000E+00 -0.00000000000E+00 -0.12456596765E+03  0.12456596765E+03  0.00000000000E+00 0.  1.
         23    2    1    2    0    0 -0.13540739108E+02  0.10564822185E+02 -0.87898908794E+02  0.13161109482E+03  0.96438037258E+02 0.  0.
         13    1    3    3    0    0  0.12756263999E+01 -0.92478731752E+01 -0.10247308122E+03  0.10289743804E+03  0.00000000000E+00 0.  1.
        -13    1    3    3    0    0 -0.14816365508E+02  0.19812695360E+02  0.14574172421E+02  0.28713656786E+02  0.00000000000E+00 0. -1.
         22    1    1    2    0    0  0.13540739108E+02 -0.10564822185E+02 -0.98321027658E+01  0.19789828907E+02  0.00000000000E+00 0.  1.
<mgrwt>
<rscale>  0 0.63385951E+02</rscale>
<asrwt>0</asrwt>
<pdfrwt beam="1">  1        2 0.41284547E-02 0.97955409E+02</pdfrwt>
<pdfrwt beam="2">  1       -2 0.19163996E-01 0.97955409E+02</pdfrwt>
<totfact> 0.40133861E+04</totfact>
</mgrwt>
</event>
<event>
 6    1  0.1828142E-002  0.1135908E+03  0.7546771E-02  0.1358291E+00
         -1   -1    0    0    0  501 -0.00000000000E+00  0.00000000000E+00  0.64095687755E+02  0.64095687755E+02  0.00000000000E+00 0.  1.
          1   -1    0    0  501    0  0.00000000000E+00 -0.00000000000E+00 -0.73860641020E+02  0.73860641020E+02  0.00000000000E+00 0. -1.
         23    2    1    2    0    0  0.12468724682E+02 -0.11387584167E+02  0.74591513168E+01  0.11383546753E+03  0.11232866314E+03 0.  0.
         11    1    3    3    0    0 -0.26089486703E+02  0.37953266460E+02 -0.13175951734E+02  0.47903209240E+02  0.00000000000E+00 0. -1.
        -11    1    3    3    0    0  0.38558211384E+02 -0.49340850627E+02  0.20635103050E+02  0.65932258294E+02  0.00000000000E+00 0.  1.
         22    1    1    2    0    0 -0.12468724682E+02  0.11387584167E+02 -0.17224104583E+02  0.24120861242E+02  0.00000000000E+00 0. -1.
<mgrwt>
<rscale>  0 0.70532759E+02</rscale>
<asrwt>0</asrwt>
<pdfrwt beam="1">  1        1 0.11363176E-01 0.11359082E+03</pdfrwt>
<pdfrwt beam="2">  1       -1 0.98608751E-02 0.11359082E+03</pdfrwt>
<totfact> 0.30212966E+04</totfact>
</mgrwt>
</event>
<event>
 6    1  0.1828142E-002  0.9146876E+02  0.7546771E-02  0.1421526E+00
         -2   -1    0    0    0  501 -0.00000000000E+00  0.00000000000E+00  0.31537925980E+02  0.31537925980E+02  0.00000000000E+00 0.  1.
          2   -1    0    0  501    0  0.00000000000E+00 -0.00000000000E+00 -0.89974586806E+02  0.89974586806E+02  0.00000000000E+00 0. -1.
         23    2    1    2    0    0  0.28840225154E+01  0.11336870888E+02 -0.40351646571E+02  0.99973943474E+02  0.90717648588E+02 0.  0.
         11    1    3    3    0    0  0.34798887184E+02 -0.25079343641E+02 -0.16081508353E+02  0.45809943654E+02  0.00000000000E+00 0. -1.
        -11    1    3    3    0    0 -0.31914864668E+02  0.36416214529E+02 -0.24270138218E+02  0.54163999820E+02  0.00000000000E+00 0.  1.
         22    1    1    2    0    0 -0.28840225154E+01 -0.11336870888E+02 -0.18085014255E+02  0.21538569312E+02  0.00000000000E+00 0. -1.
<mgrwt>
<rscale>  0 0.54699343E+02</rscale>
<asrwt>0</asrwt>
<pdfrwt beam="1">  1        2 0.13842244E-01 0.91468760E+02</pdfrwt>
<pdfrwt beam="2">  1       -2 0.48519887E-02 0.91468760E+02</pdfrwt>
<totfact> 0.75159502E+04</totfact>
</mgrwt>
</event>
<event>
 6    1  0.1828142E-002  0.1018879E+03  0.7546771E-02  0.1317878E+00
          2   -1    0    0  501    0  0.00000000000E+00  0.00000000000E+00  0.78951124440E+03  0.78951124440E+03  0.00000000000E+00 0. -1.
         -2   -1    0    0    0  501 -0.00000000000E+00 -0.00000000000E+00 -0.19806003558E+02  0.19806003558E+02  0.00000000000E+00 0.  1.
         23    2    1    2    0    0 -0.47131768199E+02 -0.30714455878E+01  0.75200796653E+03  0.75887886109E+03  0.90279049246E+02 0.  0.
         11    1    3    3    0    0 -0.53150808165E+02 -0.51515227261E+00  0.20335401270E+03  0.21018593738E+03  0.00000000000E+00 0.  1.
        -11    1    3    3    0    0  0.60190399659E+01 -0.25562933152E+01  0.54865395383E+03  0.54869292372E+03  0.00000000000E+00 0. -1.
         22    1    1    2    0    0  0.47131768199E+02  0.30714455878E+01  0.17697274307E+02  0.50438386864E+02  0.00000000000E+00 0.  1.
<mgrwt>
<rscale>  0 0.84071819E+02</rscale>
<asrwt>0</asrwt>
<pdfrwt beam="1">  1        2 0.12146324E+00 0.10188790E+03</pdfrwt>
<pdfrwt beam="2">  1       -2 0.30470781E-02 0.10188790E+03</pdfrwt>
<totfact> 0.13944258E+04</totfact>
</mgrwt>
</event>
<event>
 6    1  0.1828142E-002  0.1009946E+03  0.7546771E-02  0.1368558E+00
          2   -1    0    0  501    0  0.00000000000E+00  0.00000000000E+00  0.25253275766E+03  0.25253275766E+03  0.00000000000E+00 0. -1.
         -2   -1    0    0    0  501 -0.00000000000E+00 -0.00000000000E+00 -0.15217898167E+02  0.15217898167E+02  0.00000000000E+00 0.  1.
         23    2    1    2    0    0 -0.89520990128E+01  0.18147582616E+02  0.17293855238E+03  0.20026892682E+03  0.98946578115E+02 0.  0.
         13    1    3    3    0    0  0.15606141669E+02  0.31940933135E+02  0.16794096405E+03  0.17166229135E+03  0.00000000000E+00 0. -1.
        -13    1    3    3    0    0 -0.24558240681E+02 -0.13793350519E+02  0.49975883328E+01  0.28606635472E+02  0.00000000000E+00 0.  1.
         22    1    1    2    0    0  0.89520990128E+01 -0.18147582616E+02  0.64376307115E+02  0.67481729003E+02  0.00000000000E+00 0. -1.
<mgrwt>
<rscale>  0 0.67569681E+02</rscale>
<asrwt>0</asrwt>
<pdfrwt beam="1">  1        2 0.38851190E-01 0.10099456E+03</pdfrwt>
<pdfrwt beam="2">  1       -2 0.23412153E-02 0.10099456E+03</pdfrwt>
<totfact> 0.70886096E+04</totfact>
</mgrwt>
</event>
<event>
 6    1  0.1828142E-002  0.9136212E+02  0.7546771E-02  0.1420572E+00
          4   -1    0    0  501    0  0.00000000000E+00  0.00000000000E+00  0.13276910770E+02  0.13276910770E+02  0.00000000000E+00 0. -1.
         -4   -1    0    0    0  501 -0.00000000000E+00 -0.00000000000E+00 -0.22261329609E+03  0.22261329609E+03  0.00000000000E+00 0.  1.
         23    2    1    2    0    0 -0.11560428859E+02 -0.28737399449E+01 -0.20249916291E+03  0.22215523300E+03  0.90582198434E+02 0.  0.
         11    1    3    3    0    0 -0.17972720179E+02  0.40082113629E+02 -0.13429388897E+03  0.14129558775E+03  0.00000000000E+00 0.  1.
        -11    1    3    3    0    0  0.64122913203E+01 -0.42955853574E+02 -0.68205273938E+02  0.80859645245E+02  0.00000000000E+00 0. -1.
         22    1    1    2    0    0  0.11560428859E+02  0.28737399449E+01 -0.68372224104E+01  0.13734973861E+02  0.00000000000E+00 0. -1.
<mgrwt>
<rscale>  0 0.54900101E+02</rscale>
<asrwt>0</asrwt>
<pdfrwt beam="1">  1        4 0.20426018E-02 0.91362118E+02</pdfrwt>
<pdfrwt beam="2">  1       -4 0.34248197E-01 0.91362118E+02</pdfrwt>
<totfact> 0.11793132E+04</totfact>
</mgrwt>
</event>
<event>
 6    1  0.1828142E-002  0.9221600E+02  0.7546771E-02  0.1396834E+00
         -2   -1    0    0    0  501 -0.00000000000E+00  0.00000000000E+00  0.11003707876E+02  0.11003707876E+02  0.00000000000E+00 0. -1.
          2   -1    0    0  501    0  0.00000000000E+00 -0.00000000000E+00 -0.27108734251E+03  0.27108734251E+03  0.00000000000E+00 0.  1.
         23    2    1    2    0    0  0.16362590463E+02 -0.37690403645E+01 -0.21308979162E+03  0.23218753034E+03  0.90674417118E+02 0.  0.
         13    1    3    3    0    0 -0.22110689200E+02 -0.12003978522E+02 -0.13101922767E+02  0.28366149852E+02  0.00000000000E+00 0. -1.
        -13    1    3    3    0    0  0.38473279662E+02  0.82349381578E+01 -0.19998786885E+03  0.20382138048E+03  0.00000000000E+00 0.  1.
         22    1    1    2    0    0 -0.16362590463E+02  0.37690403645E+01 -0.46993843015E+02  0.49903520048E+02  0.00000000000E+00 0.  1.
<mgrwt>
<rscale>  0 0.60238520E+02</rscale>
<asrwt>0</asrwt>
<pdfrwt beam="1">  1        2 0.41705742E-01 0.92215996E+02</pdfrwt>
<pdfrwt beam="2">  1       -2 0.16928783E-02 0.92215996E+02</pdfrwt>
<totfact> 0.10354844E+05</totfact>
</mgrwt>
</event>
<event>
 6    1  0.1828142E-002  0.9372288E+02  0.7546771E-02  0.1389922E+00
          2   -1    0    0  501    0  0.00000000000E+00  0.00000000000E+00  0.24225882948E+03  0.24225882948E+03  0.00000000000E+00 0. -1.
         -2   -1    0    0    0  501 -0.00000000000E+00 -0.00000000000E+00 -0.13567739237E+02  0.13567739237E+02  0.00000000000E+00 0.  1.
         23    2    1    2    0    0  0.29726965098E+01 -0.17614111578E+02  0.21003666043E+03  0.22999864579E+03  0.92004806874E+02 0.  0.
         13    1    3    3    0    0  0.41879318841E+02 -0.34808454144E+01  0.15806942377E+03  0.16356019186E+03  0.00000000000E+00 0. -1.
        -13    1    3    3    0    0 -0.38906622331E+02 -0.14133266164E+02  0.51967236663E+02  0.66438453926E+02  0.00000000000E+00 0.  1.
         22    1    1    2    0    0 -0.29726965098E+01  0.17614111578E+02  0.18654429812E+02  0.25827922929E+02  0.00000000000E+00 0. -1.
<mgrwt>
<rscale>  0 0.61926142E+02</rscale>
<asrwt>0</asrwt>
<pdfrwt beam="1">  1        2 0.37270586E-01 0.93722881E+02</pdfrwt>
<pdfrwt beam="2">  1       -2 0.20873447E-02 0.93722881E+02</pdfrwt>
<totfact> 0.86484406E+04</totfact>
</mgrwt>
</event>
<event>
 6    1  0.1828142E-002  0.9548846E+02  0.7546771E-02  0.1401133E+00
         -4   -1    0    0    0  501 -0.00000000000E+00  0.00000000000E+00  0.44867688538E+02  0.44867688538E+02  0.00000000000E+00 0.  1.
          4   -1    0    0  501    0  0.00000000000E+00 -0.00000000000E+00 -0.68693057471E+02  0.68693057471E+02  0.00000000000E+00 0. -1.
         23    2    1    2    0    0  0.80517776925E+01 -0.11606996091E+02 -0.14374114022E+02  0.96564284564E+02  0.94437770078E+02 0.  0.
         11    1    3    3    0    0 -0.36777053553E+01  0.75527576425E+01 -0.52036790105E+02  0.52710503594E+02  0.00000000000E+00 0. -1.
        -11    1    3    3    0    0  0.11729483048E+02 -0.19159753733E+02  0.37662676083E+02  0.43853780970E+02  0.00000000000E+00 0.  1.
         22    1    1    2    0    0 -0.80517776925E+01  0.11606996091E+02 -0.94512549103E+01  0.16996461445E+02  0.00000000000E+00 0. -1.
<mgrwt>
<rscale>  0 0.59220297E+02</rscale>
<asrwt>0</asrwt>
<pdfrwt beam="1">  1        4 0.10568163E-01 0.95488460E+02</pdfrwt>
<pdfrwt beam="2">  1       -4 0.69027213E-02 0.95488460E+02</pdfrwt>
<totfact> 0.14284102E+04</totfact>
</mgrwt>
</event>
<event>
 6    1  0.1828142E-002  0.8902062E+02  0.7546771E-02  0.1411468E+00
         -2   -1    0    0    0  501 -0.00000000000E+00  0.00000000000E+00  0.84858486903E+03  0.84858486903E+03  0.00000000000E+00 0.  1.
          2   -1    0    0  501    0  0.00000000000E+00 -0.00000000000E+00 -0.36400087181E+01  0.36400087181E+01  0.00000000000E+00 0. -1.
         23    2    1    2    0    0 -0.13096738525E+02 -0.69462709780E+01  0.79908696709E+03  0.80403025552E+03  0.87777534632E+02 0.  0.
         13    1    3    3    0    0 -0.15563318333E+02 -0.25655289554E+02  0.93627983546E+02  0.98318920165E+02  0.00000000000E+00 0. -1.
        -13    1    3    3    0    0  0.24665798076E+01  0.18709018576E+02  0.70545898354E+03  0.70571133536E+03  0.00000000000E+00 0.  1.
         22    1    1    2    0    0  0.13096738525E+02  0.69462709780E+01  0.45857893226E+02  0.48194622227E+02  0.00000000000E+00 0.  1.
<mgrwt>
<rscale>  0 0.56867653E+02</rscale>
<asrwt>0</asrwt>
<pdfrwt beam="1">  1        2 0.56000202E-03 0.89020620E+02</pdfrwt>
<pdfrwt beam="2">  1       -2 0.13055136E+00 0.89020620E+02</pdfrwt>
<totfact> 0.12948155E+04</totfact>
</mgrwt>
</event>
<event>
 6    1  0.1828142E-002  0.9498006E+02  0.7546771E-02  0.1367594E+00
          4   -1    0    0  501    0  0.00000000000E+00  0.00000000000E+00  0.18755277639E+02  0.18755277639E+02  0.00000000000E+00 0. -1.
         -4   -1    0    0    0  501 -0.00000000000E+00 -0.00000000000E+00 -0.25495774955E+03  0.25495774955E+03  0.00000000000E+00 0.  1.
         23    2    1    2    0    0 -0.24646950740E+02  0.19082767417E+01 -0.22907548088E+03  0.24798546022E+03  0.91706591036E+02 0.  0.
         11    1    3    3    0    0  0.32292790483E+02  0.15415730939E+02 -0.10165761320E+03  0.10777170036E+03  0.00000000000E+00 0. -1.
        -11    1    3    3    0    0 -0.56939741222E+02 -0.13507454198E+02 -0.12741786768E+03  0.14021375986E+03  0.00000000000E+00 0.  1.
         22    1    1    2    0    0  0.24646950740E+02 -0.19082767417E+01 -0.71269910290E+01  0.25727566967E+02  0.00000000000E+00 0. -1.
<mgrwt>
<rscale>  0 0.67840587E+02</rscale>
<asrwt>0</asrwt>
<pdfrwt beam="1">  1        4 0.28854276E-02 0.94980064E+02</pdfrwt>
<pdfrwt beam="2">  1       -4 0.39224266E-01 0.94980064E+02</pdfrwt>
<totfact> 0.53943104E+03</totfact>
</mgrwt>
</event>
<event>
 6    1  0.1828142E-002  0.1103040E+03  0.7546771E-02  0.1286973E+00
          2   -1    0    0  501    0  0.00000000000E+00  0.00000000000E+00  0.39040487367E+03  0.39040487367E+03  0.00000000000E+00 0. -1.
         -2   -1    0    0    0  501 -0.00000000000E+00 -0.00000000000E+00 -0.44304141893E+02  0.44304141893E+02  0.00000000000E+00 0.  1.
         23    2    1    2    0    0 -0.54857853982E+02  0.36096978592E+02  0.35190209144E+03  0.36878457563E+03  0.88626210880E+02 0.  0.
         11    1    3    3    0    0 -0.10535249005E+02 -0.23223947262E+02  0.17735861723E+03  0.17918265068E+03  0.00000000000E+00 0.  1.
        -11    1    3    3    0    0 -0.44322604977E+02  0.59320925853E+02  0.17454347421E+03  0.18960192496E+03  0.00000000000E+00 0. -1.
         22    1    1    2    0    0  0.54857853982E+02 -0.36096978592E+02 -0.58013596619E+01  0.65924439936E+02  0.00000000000E+00 0.  1.
<mgrwt>
<rscale>  0 0.96890934E+02</rscale>
<asrwt>0</asrwt>
<pdfrwt beam="1">  1        2 0.60062286E-01 0.11030404E+03</pdfrwt>
<pdfrwt beam="2">  1       -2 0.68160221E-02 0.11030404E+03</pdfrwt>
<totfact> 0.93191988E+03</totfact>
</mgrwt>
</event>
<event>
 6    1  0.1828142E-002  0.1124309E+03  0.7546771E-02  0.1283193E+00
          2   -1    0    0  501    0  0.00000000000E+00  0.00000000000E+00  0.96377390507E+02  0.96377390507E+02  0.00000000000E+00 0. -1.
         -2   -1    0    0    0  501 -0.00000000000E+00 -0.00000000000E+00 -0.84376225113E+02  0.84376225113E+02  0.00000000000E+00 0.  1.
         23    2    1    2    0    0  0.62198378377E+02  0.23805824300E+02  0.18091986093E+02  0.11387720991E+03  0.90583350755E+02 0.  0.
         13    1    3    3    0    0  0.82469177639E+02  0.12538076783E+02  0.28912313550E+02  0.88285279094E+02  0.00000000000E+00 0. -1.
        -13    1    3    3    0    0 -0.20270799263E+02  0.11267747517E+02 -0.10820327457E+02  0.25591930821E+02  0.00000000000E+00 0.  1.
         22    1    1    2    0    0 -0.62198378377E+02 -0.23805824300E+02 -0.60908206989E+01  0.66876405705E+02  0.00000000000E+00 0.  1.
<mgrwt>
<rscale>  0 0.98634810E+02</rscale>
<asrwt>0</asrwt>
<pdfrwt beam="1">  1        2 0.14827291E-01 0.11243086E+03</pdfrwt>
<pdfrwt beam="2">  1       -2 0.12980958E-01 0.11243086E+03</pdfrwt>
<totfact> 0.15701978E+04</totfact>
</mgrwt>
</event>
<event>
 6    1  0.1828142E-002  0.9531821E+02  0.7546771E-02  0.1364558E+00
         -2   -1    0    0    0  501 -0.00000000000E+00  0.00000000000E+00  0.33121960348E+02  0.33121960348E+02  0.00000000000E+00 0.  1.
          2   -1    0    0  501    0  0.00000000000E+00 -0.00000000000E+00 -0.11059204110E+03  0.11059204110E+03  0.00000000000E+00 0. -1.
         23    2    1    2    0    0  0.15096944561E+02 -0.20831566636E+02 -0.60793246300E+02  0.11305476612E+03  0.91780659415E+02 0.  0.
         11    1    3    3    0    0  0.26419275522E+02 -0.26340201878E+02 -0.81038527594E+02  0.89213380771E+02  0.00000000000E+00 0. -1.
        -11    1    3    3    0    0 -0.11322330960E+02  0.55086352415E+01  0.20245281294E+02  0.23841385347E+02  0.00000000000E+00 0.  1.
         22    1    1    2    0    0 -0.15096944561E+02  0.20831566636E+02 -0.16676834448E+02  0.30659235327E+02  0.00000000000E+00 0.  1.
<mgrwt>
<rscale>  0 0.68703467E+02</rscale>
<asrwt>0</asrwt>
<pdfrwt beam="1">  1        2 0.17014160E-01 0.95318211E+02</pdfrwt>
<pdfrwt beam="2">  1       -2 0.50956862E-02 0.95318211E+02</pdfrwt>
<totfact> 0.55392970E+04</totfact>
</mgrwt>
</event>
<event>
 6    1  0.1828142E-002  0.9152044E+02  0.7546771E-02  0.1424121E+00
         -3   -1    0    0    0  501 -0.00000000000E+00  0.00000000000E+00  0.30777635088E+03  0.30777635088E+03  0.00000000000E+00 0.  1.
          3   -1    0    0  501    0  0.00000000000E+00 -0.00000000000E+00 -0.10266955312E+02  0.10266955312E+02  0.00000000000E+00 0. -1.
         23    2    1    2    0    0 -0.54001947101E+01  0.98385230064E+01  0.29103668405E+03  0.30508743369E+03  0.90829687312E+02 0.  0.
         13    1    3    3    0    0 -0.40546820596E+02  0.97437654801E+01  0.23690000501E+03  0.24054229981E+03  0.00000000000E+00 0.  1.
        -13    1    3    3    0    0  0.35146625885E+02  0.94757526304E-01  0.54136679042E+02  0.64545133882E+02  0.00000000000E+00 0. -1.
         22    1    1    2    0    0  0.54001947101E+01 -0.98385230064E+01  0.64727115213E+01  0.12955872502E+02  0.00000000000E+00 0. -1.
<mgrwt>
<rscale>  0 0.54158555E+02</rscale>
<asrwt>0</asrwt>
<pdfrwt beam="1">  1        3 0.15795318E-02 0.91520439E+02</pdfrwt>
<pdfrwt beam="2">  1       -3 0.47350201E-01 0.91520439E+02</pdfrwt>
<totfact> 0.12583635E+04</totfact>
</mgrwt>
</event>
<event>
 6    1  0.1828142E-002  0.9692158E+02  0.7546771E-02  0.1346314E+00
          4   -1    0    0  501    0  0.00000000000E+00  0.00000000000E+00  0.30905757550E+03  0.30905757550E+03  0.00000000000E+00 0. -1.
         -4   -1    0    0    0  501 -0.00000000000E+00 -0.00000000000E+00 -0.19708974927E+02  0.19708974927E+02  0.00000000000E+00 0.  1.
         23    2    1    2    0    0  0.29622414625E+01  0.33191109911E+02  0.11112119296E+03  0.14745071142E+03  0.91013010724E+02 0.  0.
         11    1    3    3    0    0  0.10761289259E+02 -0.24939481616E+02  0.71664167763E+01  0.28091646787E+02  0.00000000000E+00 0.  1.
        -11    1    3    3    0    0 -0.77990477967E+01  0.58130591527E+02  0.10395477619E+03  0.11935906463E+03  0.00000000000E+00 0. -1.
         22    1    1    2    0    0 -0.29622414625E+01 -0.33191109911E+02  0.17822740761E+03  0.18131583900E+03  0.00000000000E+00 0. -1.
<mgrwt>
<rscale>  0 0.74216677E+02</rscale>
<asrwt>0</asrwt>
<pdfrwt beam="1">  1        4 0.47547316E-01 0.96921581E+02</pdfrwt>
<pdfrwt beam="2">  1       -4 0.30321502E-02 0.96921581E+02</pdfrwt>
<totfact> 0.34334531E+03</totfact>
</mgrwt>
</event>
<event>
 6    1  0.1828142E-002  0.9191395E+02  0.7546771E-02  0.1408044E+00
         -2   -1    0    0    0  501 -0.00000000000E+00  0.00000000000E+00  0.46065878683E+02  0.46065878683E+02  0.00000000000E+00 0.  1.
          2   -1    0    0  501    0  0.00000000000E+00 -0.00000000000E+00 -0.64504281312E+02  0.64504281312E+02  0.00000000000E+00 0. -1.
         23    2    1    2    0    0 -0.11911099187E+01  0.14157731159E+02 -0.24500267346E+02  0.95123273634E+02  0.90809217552E+02 0.  0.
         13    1    3    3    0    0  0.44536144242E+02  0.93029984583E+01 -0.75781232595E+01  0.46124200550E+02  0.00000000000E+00 0. -1.
        -13    1    3    3    0    0 -0.45727254160E+02  0.48547327009E+01 -0.16922144086E+02  0.48999073084E+02  0.00000000000E+00 0.  1.
         22    1    1    2    0    0  0.11911099187E+01 -0.14157731159E+02  0.60618647171E+01  0.15446886361E+02  0.00000000000E+00 0.  1.
<mgrwt>
<rscale>  0 0.57632489E+02</rscale>
<asrwt>0</asrwt>
<pdfrwt beam="1">  1        2 0.99237356E-02 0.91913949E+02</pdfrwt>
<pdfrwt beam="2">  1       -2 0.70870583E-02 0.91913949E+02</pdfrwt>
<totfact> 0.63348095E+04</totfact>
</mgrwt>
</event>
<event>
 6    1  0.1828142E-002  0.9074311E+02  0.7546771E-02  0.1427233E+00
          2   -1    0    0  501    0  0.00000000000E+00  0.00000000000E+00  0.30142344851E+03  0.30142344851E+03  0.00000000000E+00 0. -1.
         -2   -1    0    0    0  501 -0.00000000000E+00 -0.00000000000E+00 -0.10225433108E+02  0.10225433108E+02  0.00000000000E+00 0.  1.
         23    2    1    2    0    0 -0.98330256249E+01 -0.48861902876E+01  0.28487478717E+03  0.29897818851E+03  0.90076354232E+02 0.  0.
         11    1    3    3    0    0  0.28305151317E+02  0.12447730544E+02  0.21717388237E+03  0.21936413283E+03  0.00000000000E+00 0. -1.
        -11    1    3    3    0    0 -0.38138176942E+02 -0.17333920832E+02  0.67700904800E+02  0.79614055685E+02  0.00000000000E+00 0.  1.
         22    1    1    2    0    0  0.98330256249E+01  0.48861902876E+01  0.63232282256E+01  0.12670693101E+02  0.00000000000E+00 0. -1.
<mgrwt>
<rscale>  0 0.53519510E+02</rscale>
<asrwt>0</asrwt>
<pdfrwt beam="1">  1        2 0.46372831E-01 0.90743115E+02</pdfrwt>
<pdfrwt beam="2">  1       -2 0.15731438E-02 0.90743115E+02</pdfrwt>
<totfact> 0.10267600E+05</totfact>
</mgrwt>
</event>
<event>
 6    1  0.1828142E-002  0.9322390E+02  0.7546771E-02  0.1379966E+00
         -4   -1    0    0    0  501 -0.00000000000E+00  0.00000000000E+00  0.44413444281E+02  0.44413444281E+02  0.00000000000E+00 0.  1.
          4   -1    0    0  501    0  0.00000000000E+00 -0.00000000000E+00 -0.73868085906E+02  0.73868085906E+02  0.00000000000E+00 0. -1.
         23    2    1    2    0    0 -0.16597011521E+02 -0.13392679219E+02 -0.24395924475E+02  0.96363152800E+02  0.90751702124E+02 0.  0.
         11    1    3    3    0    0 -0.49502011474E+02 -0.27674739926E+02 -0.20400944870E+02  0.60270547712E+02  0.00000000000E+00 0. -1.
        -11    1    3    3    0    0  0.32904999953E+02  0.14282060707E+02 -0.39949796045E+01  0.36092605087E+02  0.00000000000E+00 0.  1.
         22    1    1    2    0    0  0.16597011521E+02  0.13392679219E+02 -0.50587171503E+01  0.21918377387E+02  0.00000000000E+00 0.  1.
<mgrwt>
<rscale>  0 0.64472715E+02</rscale>
<asrwt>0</asrwt>
<pdfrwt beam="1">  1        4 0.11364321E-01 0.93223903E+02</pdfrwt>
<pdfrwt beam="2">  1       -4 0.68328376E-02 0.93223903E+02</pdfrwt>
<totfact> 0.12758782E+04</totfact>
</mgrwt>
</event>
<event>
 6    1  0.1828142E-002  0.9197821E+02  0.7546771E-02  0.1423076E+00
          2   -1    0    0  501    0  0.00000000000E+00  0.00000000000E+00  0.13266302053E+03  0.13266302053E+03  0.00000000000E+00 0. -1.
         -2   -1    0    0    0  501 -0.00000000000E+00 -0.00000000000E+00 -0.24515429808E+02  0.24515429808E+02  0.00000000000E+00 0.  1.
         23    2    1    2    0    0 -0.11065522751E+02  0.19414587822E+01  0.65090753158E+02  0.11268006478E+03  0.91289516358E+02 0.  0.
         13    1    3    3    0    0 -0.44396795924E+01 -0.40472561151E+02  0.55261177122E+02  0.68640634160E+02  0.00000000000E+00 0. -1.
        -13    1    3    3    0    0 -0.66258431584E+01  0.42414019934E+02  0.98295760357E+01  0.44039430622E+02  0.00000000000E+00 0.  1.
         22    1    1    2    0    0  0.11065522751E+02 -0.19414587822E+01  0.43056837564E+02  0.44498385554E+02  0.00000000000E+00 0. -1.
<mgrwt>
<rscale>  0 0.54375418E+02</rscale>
<asrwt>0</asrwt>
<pdfrwt beam="1">  1        2 0.20409695E-01 0.91978209E+02</pdfrwt>
<pdfrwt beam="2">  1       -2 0.37716047E-02 0.91978209E+02</pdfrwt>
<totfact> 0.70031036E+04</totfact>
</mgrwt>
</event>
<event>
 6    1  0.1828142E-002  0.1127463E+03  0.7546771E-02  0.1289097E+00
         -2   -1    0    0    0  501 -0.00000000000E+00  0.00000000000E+00  0.32720049260E+02  0.32720049260E+02  0.00000000000E+00 0.  1.
          2   -1    0    0  501    0  0.00000000000E+00 -0.00000000000E+00 -0.25642536410E+03  0.25642536410E+03  0.00000000000E+00 0. -1.
         23    2    1    2    0    0 -0.24347718014E+02  0.53837530350E+02 -0.94656512229E+02  0.14721273741E+03  0.96023141491E+02 0.  0.
         13    1    3    3    0    0 -0.54448694960E+02  0.53809345310E+02 -0.87524621525E+02  0.11627839610E+03  0.00000000000E+00 0. -1.
        -13    1    3    3    0    0  0.30100976947E+02  0.28185039865E-01 -0.71318907046E+01  0.30934341314E+02  0.00000000000E+00 0.  1.
         22    1    1    2    0    0  0.24347718014E+02 -0.53837530350E+02 -0.12904880261E+03  0.14193267594E+03  0.00000000000E+00 0.  1.
<mgrwt>
<rscale>  0 0.95929033E+02</rscale>
<asrwt>0</asrwt>
<pdfrwt beam="1">  1        2 0.39450055E-01 0.11274633E+03</pdfrwt>
<pdfrwt beam="2">  1       -2 0.50338539E-02 0.11274633E+03</pdfrwt>
<totfact> 0.22962375E+04</totfact>
</mgrwt>
</event>
<event>
 6    1  0.1828142E-002  0.8985429E+02  0.7546771E-02  0.1420884E+00
          2   -1    0    0  501    0  0.00000000000E+00  0.00000000000E+00  0.82665923232E+02  0.82665923232E+02  0.00000000000E+00 0. -1.
         -2   -1    0    0    0  501 -0.00000000000E+00 -0.00000000000E+00 -0.31885417207E+02  0.31885417207E+02  0.00000000000E+00 0.  1.
         23    2    1    2    0    0 -0.87678956358E+01  0.88560931007E+01  0.47627466413E+02  0.10169645663E+03  0.88985882901E+02 0.  0.
         13    1    3    3    0    0 -0.44953088163E+02  0.13567141097E+02  0.76598473267E+01  0.47576472274E+02  0.00000000000E+00 0. -1.
        -13    1    3    3    0    0  0.36185192528E+02 -0.47110479962E+01  0.39967619086E+02  0.54119984358E+02  0.00000000000E+00 0.  1.
         22    1    1    2    0    0  0.87678956358E+01 -0.88560931007E+01  0.31530396118E+01  0.12854883807E+02  0.00000000000E+00 0.  1.
<mgrwt>
<rscale>  0 0.54834360E+02</rscale>
<asrwt>0</asrwt>
<pdfrwt beam="1">  1        2 0.12717834E-01 0.89854292E+02</pdfrwt>
<pdfrwt beam="2">  1       -2 0.49054488E-02 0.89854292E+02</pdfrwt>
<totfact> 0.81455422E+04</totfact>
</mgrwt>
</event>
<event>
 6    1  0.1828142E-002  0.9387384E+02  0.7546771E-02  0.1422140E+00
          2   -1    0    0  501    0  0.00000000000E+00  0.00000000000E+00  0.15834204449E+02  0.15834204449E+02  0.00000000000E+00 0. -1.
         -2   -1    0    0    0  501 -0.00000000000E+00 -0.00000000000E+00 -0.18103463557E+03  0.18103463557E+03  0.00000000000E+00 0.  1.
         23    2    1    2    0    0 -0.70060278443E+01  0.81141026411E+01 -0.15854092570E+03  0.18424853494E+03  0.93259714866E+02 0.  0.
         13    1    3    3    0    0 -0.18614293261E+02 -0.10895635554E+02 -0.16044988186E+03  0.16189308626E+03  0.00000000000E+00 0.  1.
        -13    1    3    3    0    0  0.11608265417E+02  0.19009738195E+02  0.19089561594E+01  0.22355448684E+02  0.00000000000E+00 0. -1.
         22    1    1    2    0    0  0.70060278443E+01 -0.81141026411E+01 -0.66595054110E+01  0.12620305073E+02  0.00000000000E+00 0.  1.
<mgrwt>
<rscale>  0 0.54570677E+02</rscale>
<asrwt>0</asrwt>
<pdfrwt beam="1">  1        2 0.24360316E-02 0.93873838E+02</pdfrwt>
<pdfrwt beam="2">  1       -2 0.27851481E-01 0.93873838E+02</pdfrwt>
<totfact> 0.42318818E+04</totfact>
</mgrwt>
</event>
<event>
 6    1  0.1828142E-002  0.9681435E+02  0.7546771E-02  0.1350113E+00
         -4   -1    0    0    0  501 -0.00000000000E+00  0.00000000000E+00  0.10532136386E+02  0.10532136386E+02  0.00000000000E+00 0.  1.
          4   -1    0    0  501    0  0.00000000000E+00 -0.00000000000E+00 -0.42457372535E+03  0.42457372535E+03  0.00000000000E+00 0. -1.
         23    2    1    2    0    0  0.26741019107E+02  0.16324054205E+02 -0.24984255183E+03  0.26794462029E+03  0.91604923367E+02 0.  0.
         11    1    3    3    0    0  0.30534682306E+02 -0.25489444456E+02 -0.19424220717E+03  0.19827282630E+03  0.00000000000E+00 0. -1.
        -11    1    3    3    0    0 -0.37936631991E+01  0.41813498661E+02 -0.55600344662E+02  0.69671793986E+02  0.00000000000E+00 0.  1.
         22    1    1    2    0    0 -0.26741019107E+02 -0.16324054205E+02 -0.16419903713E+03  0.16716124145E+03  0.00000000000E+00 0.  1.
<mgrwt>
<rscale>  0 0.73020406E+02</rscale>
<asrwt>0</asrwt>
<pdfrwt beam="1">  1        4 0.65319036E-01 0.96814352E+02</pdfrwt>
<pdfrwt beam="2">  1       -4 0.16203286E-02 0.96814352E+02</pdfrwt>
<totfact> 0.46733858E+03</totfact>
</mgrwt>
</event>
<event>
 6    1  0.1828142E-002  0.9472662E+02  0.7546771E-02  0.1418817E+00
          4   -1    0    0  501    0  0.00000000000E+00  0.00000000000E+00  0.23491992430E+03  0.23491992430E+03  0.00000000000E+00 0.  1.
         -4   -1    0    0    0  501 -0.00000000000E+00 -0.00000000000E+00 -0.12365902101E+02  0.12365902101E+02  0.00000000000E+00 0. -1.
         23    2    1    2    0    0  0.10789947852E+02 -0.20342745605E+01  0.18079912003E+03  0.20411137674E+03  0.94088102685E+02 0.  0.
         11    1    3    3    0    0  0.14441808578E+02 -0.37024272258E+01 -0.68585429520E+01  0.16410771273E+02  0.00000000000E+00 0. -1.
        -11    1    3    3    0    0 -0.36518607255E+01  0.16681526654E+01  0.18765766298E+03  0.18770060547E+03  0.00000000000E+00 0.  1.
         22    1    1    2    0    0 -0.10789947852E+02  0.20342745605E+01  0.41754902168E+02  0.43174449652E+02  0.00000000000E+00 0.  1.
<mgrwt>
<rscale>  0 0.55271976E+02</rscale>
<asrwt>0</asrwt>
<pdfrwt beam="1">  1        4 0.36141524E-01 0.94726619E+02</pdfrwt>
<pdfrwt beam="2">  1       -4 0.19024466E-02 0.94726619E+02</pdfrwt>
<totfact> 0.11985879E+04</totfact>
</mgrwt>
</event>
<event>
 6    1  0.1828142E-002  0.9622380E+02  0.7546771E-02  0.1397327E+00
         -2   -1    0    0    0  501 -0.00000000000E+00  0.00000000000E+00  0.53121966633E+02  0.53121966633E+02  0.00000000000E+00 0.  1.
          2   -1    0    0  501    0  0.00000000000E+00 -0.00000000000E+00 -0.98388533818E+02  0.98388533818E+02  0.00000000000E+00 0. -1.
         23    2    1    2    0    0 -0.90195951829E+01 -0.11561409877E+02  0.77194024155E+01  0.96532938936E+02  0.95099946532E+02 0.  0.
         11    1    3    3    0    0 -0.27112317543E+02 -0.42576056099E+02  0.25403867893E+02  0.56508006684E+02  0.00000000000E+00 0.  1.
        -11    1    3    3    0    0  0.18092722360E+02  0.31014646222E+02 -0.17684465477E+02  0.40024932253E+02  0.00000000000E+00 0. -1.
         22    1    1    2    0    0  0.90195951829E+01  0.11561409877E+02 -0.52985969600E+02  0.54977561515E+02  0.00000000000E+00 0. -1.
<mgrwt>
<rscale>  0 0.60120357E+02</rscale>
<asrwt>0</asrwt>
<pdfrwt beam="1">  1        2 0.15136697E-01 0.96223797E+02</pdfrwt>
<pdfrwt beam="2">  1       -2 0.81726103E-02 0.96223797E+02</pdfrwt>
<totfact> 0.31089531E+04</totfact>
</mgrwt>
</event>
<event>
 6    1  0.1828142E-002  0.1097628E+03  0.7546771E-02  0.1293492E+00
         -2   -1    0    0    0  501 -0.00000000000E+00  0.00000000000E+00  0.31290151091E+02  0.31290151091E+02  0.00000000000E+00 0.  1.
          2   -1    0    0  501    0  0.00000000000E+00 -0.00000000000E+00 -0.35055315785E+03  0.35055315785E+03  0.00000000000E+00 0. -1.
         23    2    1    2    0    0  0.30027519398E+02 -0.50772845667E+02 -0.81072604343E+02  0.13645748706E+03  0.92565354323E+02 0.  0.
         13    1    3    3    0    0 -0.31065606547E+01  0.16895960558E+02 -0.53557344017E+02  0.56245118014E+02  0.00000000000E+00 0. -1.
        -13    1    3    3    0    0  0.33134080052E+02 -0.67668806225E+02 -0.27515260326E+02  0.80212369044E+02  0.00000000000E+00 0.  1.
         22    1    1    2    0    0 -0.30027519398E+02  0.50772845667E+02 -0.23819040242E+03  0.24538582189E+03  0.00000000000E+00 0. -1.
<mgrwt>
<rscale>  0 0.93979169E+02</rscale>
<asrwt>0</asrwt>
<pdfrwt beam="1">  1        2 0.53931256E-01 0.10976283E+03</pdfrwt>
<pdfrwt beam="2">  1       -2 0.48138693E-02 0.10976283E+03</pdfrwt>
<totfact> 0.17612732E+04</totfact>
</mgrwt>
</event>
<event>
 6    1  0.1828142E-002  0.9401891E+02  0.7546771E-02  0.1399194E+00
          2   -1    0    0  501    0  0.00000000000E+00  0.00000000000E+00  0.52750015805E+02  0.52750015805E+02  0.00000000000E+00 0. -1.
         -2   -1    0    0    0  501 -0.00000000000E+00 -0.00000000000E+00 -0.86799181130E+02  0.86799181130E+02  0.00000000000E+00 0.  1.
         23    2    1    2    0    0  0.70279464373E+01  0.13545906739E+02 -0.58495516827E+02  0.11073066605E+03  0.92772147194E+02 0.  0.
         13    1    3    3    0    0 -0.37916062434E+02  0.11998635530E+02 -0.38429244713E+01  0.39954513057E+02  0.00000000000E+00 0. -1.
        -13    1    3    3    0    0  0.44944008872E+02  0.15472712091E+01 -0.54652592355E+02  0.70776152995E+02  0.00000000000E+00 0.  1.
         22    1    1    2    0    0 -0.70279464373E+01 -0.13545906739E+02  0.24446351502E+02  0.28818530883E+02  0.00000000000E+00 0.  1.
<mgrwt>
<rscale>  0 0.59676558E+02</rscale>
<asrwt>0</asrwt>
<pdfrwt beam="1">  1        2 0.81153871E-02 0.94018907E+02</pdfrwt>
<pdfrwt beam="2">  1       -2 0.13353720E-01 0.94018907E+02</pdfrwt>
<totfact> 0.30381539E+04</totfact>
</mgrwt>
</event>
<event>
 6    1  0.1828142E-002  0.9468048E+02  0.7546771E-02  0.1362750E+00
          2   -1    0    0  501    0  0.00000000000E+00  0.00000000000E+00  0.17777976163E+03  0.17777976163E+03  0.00000000000E+00 0. -1.
         -2   -1    0    0    0  501 -0.00000000000E+00 -0.00000000000E+00 -0.30422973949E+02  0.30422973949E+02  0.00000000000E+00 0.  1.
         23    2    1    2    0    0 -0.25774890374E+02 -0.82257941306E+01  0.49829963856E+02  0.10699260749E+03  0.90732486444E+02 0.  0.
         13    1    3    3    0    0 -0.21553226196E+01  0.77075812147E+01  0.71029873606E+02  0.71479333854E+02  0.00000000000E+00 0. -1.
        -13    1    3    3    0    0 -0.23619567754E+02 -0.15933375345E+02 -0.21199909750E+02  0.35513273634E+02  0.00000000000E+00 0.  1.
         22    1    1    2    0    0  0.25774890374E+02  0.82257941306E+01  0.97526823823E+02  0.10121012809E+03  0.00000000000E+00 0. -1.
<mgrwt>
<rscale>  0 0.69224505E+02</rscale>
<asrwt>0</asrwt>
<pdfrwt beam="1">  1        2 0.27350732E-01 0.94680477E+02</pdfrwt>
<pdfrwt beam="2">  1       -2 0.46804577E-02 0.94680477E+02</pdfrwt>
<totfact> 0.37086921E+04</totfact>
</mgrwt>
</event>
<event>
 6    1  0.1828142E-002  0.9470753E+02  0.7546771E-02  0.1398857E+00
         -2   -1    0    0    0  501 -0.00000000000E+00  0.00000000000E+00  0.30711522624E+02  0.30711522624E+02  0.00000000000E+00 0.  1.
          2   -1    0    0  501    0  0.00000000000E+00 -0.00000000000E+00 -0.10113079896E+03  0.10113079896E+03  0.00000000000E+00 0. -1.
         23    2    1    2    0    0 -0.53496943229E+01 -0.14024301164E+02 -0.51872752327E+02  0.10798286213E+03  0.93510511860E+02 0.  0.
         11    1    3    3    0    0 -0.11107966783E+02 -0.49867112933E+02 -0.91204522460E+01  0.51896999215E+02  0.00000000000E+00 0.  1.
        -11    1    3    3    0    0  0.57582724598E+01  0.35842811769E+02 -0.42752300081E+02  0.56085862920E+02  0.00000000000E+00 0. -1.
         22    1    1    2    0    0  0.53496943229E+01  0.14024301164E+02 -0.18546524013E+02  0.23859459454E+02  0.00000000000E+00 0. -1.
<mgrwt>
<rscale>  0 0.59756285E+02</rscale>
<asrwt>0</asrwt>
<pdfrwt beam="1">  1        2 0.15558585E-01 0.94707529E+02</pdfrwt>
<pdfrwt beam="2">  1       -2 0.47248496E-02 0.94707529E+02</pdfrwt>
<totfact> 0.68607724E+04</totfact>
</mgrwt>
</event>
<event>
 6    1  0.1828142E-002  0.1134579E+03  0.7546771E-02  0.1376092E+00
         -3   -1    0    0    0  501 -0.00000000000E+00  0.00000000000E+00  0.55159326089E+02  0.55159326089E+02  0.00000000000E+00 0.  1.
          3   -1    0    0  501    0  0.00000000000E+00 -0.00000000000E+00 -0.85575985461E+02  0.85575985461E+02  0.00000000000E+00 0. -1.
         23    2    1    2    0    0 -0.13379546415E+01 -0.12533124916E+02 -0.64316148688E+01  0.11364007760E+03  0.11275563057E+03 0.  0.
         13    1    3    3    0    0 -0.29378012839E+02  0.35761857504E+02  0.21692634120E+02  0.51113094854E+02  0.00000000000E+00 0.  1.
        -13    1    3    3    0    0  0.28040058197E+02 -0.48294982420E+02 -0.28124248988E+02  0.62526982750E+02  0.00000000000E+00 0. -1.
         22    1    1    2    0    0  0.13379546415E+01  0.12533124916E+02 -0.23985044503E+02  0.27095233946E+02  0.00000000000E+00 0. -1.
<mgrwt>
<rscale>  0 0.65502240E+02</rscale>
<asrwt>0</asrwt>
<pdfrwt beam="1">  1        3 0.13165536E-01 0.11345793E+03</pdfrwt>
<pdfrwt beam="2">  1       -3 0.84860502E-02 0.11345793E+03</pdfrwt>
<totfact> 0.97791312E+03</totfact>
</mgrwt>
</event>
<event>
 6    1  0.1828142E-002  0.9362439E+02  0.7546771E-02  0.1395572E+00
         -2   -1    0    0    0  501 -0.00000000000E+00  0.00000000000E+00  0.16804520076E+02  0.16804520076E+02  0.00000000000E+00 0.  1.
          2   -1    0    0  501    0  0.00000000000E+00 -0.00000000000E+00 -0.18683561079E+03  0.18683561079E+03  0.00000000000E+00 0. -1.
         23    2    1    2    0    0 -0.62800201261E+01  0.15117826008E+02 -0.12842423072E+03  0.15892863218E+03  0.92182101166E+02 0.  0.
         11    1    3    3    0    0 -0.39281777877E+02  0.36798056587E+02 -0.80430628569E+02  0.96779342081E+02  0.00000000000E+00 0.  1.
        -11    1    3    3    0    0  0.33001757751E+02 -0.21680230579E+02 -0.47993602149E+02  0.62149290099E+02  0.00000000000E+00 0. -1.
         22    1    1    2    0    0  0.62800201261E+01 -0.15117826008E+02 -0.41606859999E+02  0.44711498688E+02  0.00000000000E+00 0.  1.
<mgrwt>
<rscale>  0 0.60541900E+02</rscale>
<asrwt>0</asrwt>
<pdfrwt beam="1">  1        2 0.28743939E-01 0.93624394E+02</pdfrwt>
<pdfrwt beam="2">  1       -2 0.25853109E-02 0.93624394E+02</pdfrwt>
<totfact> 0.83697975E+04</totfact>
</mgrwt>
</event>
<event>
 6    1  0.1828142E-002  0.9175861E+02  0.7546771E-02  0.1427744E+00
          2   -1    0    0  501    0  0.00000000000E+00  0.00000000000E+00  0.13567171716E+03  0.13567171716E+03  0.00000000000E+00 0.  1.
         -2   -1    0    0    0  501 -0.00000000000E+00 -0.00000000000E+00 -0.21742886755E+02  0.21742886755E+02  0.00000000000E+00 0. -1.
         23    2    1    2    0    0  0.88962471762E+01  0.56471448013E+01  0.79495364760E+02  0.12140492446E+03  0.91151572703E+02 0.  0.
         13    1    3    3    0    0  0.52966897924E+01 -0.35933740191E+02  0.58990521644E+01  0.36797926889E+02  0.00000000000E+00 0. -1.
        -13    1    3    3    0    0  0.35995573838E+01  0.41580884992E+02  0.73596312596E+02  0.84606997570E+02  0.00000000000E+00 0.  1.
         22    1    1    2    0    0 -0.88962471762E+01 -0.56471448013E+01  0.34433465648E+02  0.36009679459E+02  0.00000000000E+00 0. -1.
<mgrwt>
<rscale>  0 0.53415446E+02</rscale>
<asrwt>0</asrwt>
<pdfrwt beam="1">  1        2 0.20872571E-01 0.91758611E+02</pdfrwt>
<pdfrwt beam="2">  1       -2 0.33450596E-02 0.91758611E+02</pdfrwt>
<totfact> 0.81392933E+04</totfact>
</mgrwt>
</event>
<event>
 6    1  0.1828142E-002  0.9190810E+02  0.7546771E-02  0.1405842E+00
         -2   -1    0    0    0  501 -0.00000000000E+00  0.00000000000E+00  0.22848008614E+02  0.22848008614E+02  0.00000000000E+00 0.  1.
          2   -1    0    0  501    0  0.00000000000E+00 -0.00000000000E+00 -0.14316900045E+03  0.14316900045E+03  0.00000000000E+00 0. -1.
         23    2    1    2    0    0 -0.10225839244E+02  0.10573823778E+02 -0.75813914438E+02  0.11914213865E+03  0.90723348939E+02 0.  0.
         11    1    3    3    0    0  0.90547356550E+01  0.12063469181E+01 -0.91893125459E+02  0.92346034118E+02  0.00000000000E+00 0. -1.
        -11    1    3    3    0    0 -0.19280574899E+02  0.93674768595E+01  0.16079211021E+02  0.26796104534E+02  0.00000000000E+00 0.  1.
         22    1    1    2    0    0  0.10225839244E+02 -0.10573823778E+02 -0.44507077402E+02  0.46874870414E+02  0.00000000000E+00 0.  1.
<mgrwt>
<rscale>  0 0.58132081E+02</rscale>
<asrwt>0</asrwt>
<pdfrwt beam="1">  1        2 0.22026000E-01 0.91908104E+02</pdfrwt>
<pdfrwt beam="2">  1       -2 0.35150783E-02 0.91908104E+02</pdfrwt>
<totfact> 0.71340322E+04</totfact>
</mgrwt>
</event>
<event>
 6    1  0.1828142E-002  0.7557583E+02  0.7546771E-02  0.1444482E+00
         -4   -1    0    0    0  501 -0.00000000000E+00  0.00000000000E+00  0.85109305472E+01  0.85109305472E+01  0.00000000000E+00 0.  1.
          4   -1    0    0  501    0  0.00000000000E+00 -0.00000000000E+00 -0.23936579547E+03  0.23936579547E+03  0.00000000000E+00 0. -1.
         23    2    1    2    0    0  0.85227405123E+01  0.11933684484E+02 -0.19567810865E+03  0.20976565003E+03  0.74139434822E+02 0.  0.
         11    1    3    3    0    0  0.15754995815E+02  0.37683345463E+02 -0.68061757792E+02  0.79376679775E+02  0.00000000000E+00 0.  1.
        -11    1    3    3    0    0 -0.72322553029E+01 -0.25749660979E+02 -0.12761635086E+03  0.13038897025E+03  0.00000000000E+00 0. -1.
         22    1    1    2    0    0 -0.85227405123E+01 -0.11933684484E+02 -0.35176756278E+02  0.38111075994E+02  0.00000000000E+00 0. -1.
<mgrwt>
<rscale>  0 0.50159662E+02</rscale>
<asrwt>0</asrwt>
<pdfrwt beam="1">  1        4 0.36825505E-01 0.75575828E+02</pdfrwt>
<pdfrwt beam="2">  1       -4 0.13093740E-02 0.75575828E+02</pdfrwt>
<totfact> 0.18935550E+04</totfact>
</mgrwt>
</event>
<event>
 6    1  0.1828142E-002  0.9545894E+02  0.7546771E-02  0.1363411E+00
          2   -1    0    0  501    0  0.00000000000E+00  0.00000000000E+00  0.53563419730E+02  0.53563419730E+02  0.00000000000E+00 0. -1.
         -2   -1    0    0    0  501 -0.00000000000E+00 -0.00000000000E+00 -0.93932910801E+02  0.93932910801E+02  0.00000000000E+00 0.  1.
         23    2    1    2    0    0  0.24617086594E+02  0.86987535076E+01 -0.61800996621E+02  0.11371795438E+03  0.91819065018E+02 0.  0.
         13    1    3    3    0    0 -0.23510343280E+02  0.13713251345E+02 -0.59320493211E+02  0.65266457070E+02  0.00000000000E+00 0.  1.
        -13    1    3    3    0    0  0.48127429874E+02 -0.50144978372E+01 -0.24805034099E+01  0.48451497314E+02  0.00000000000E+00 0. -1.
         22    1    1    2    0    0 -0.24617086594E+02 -0.86987535076E+01  0.21431505550E+02  0.33778376147E+02  0.00000000000E+00 0. -1.
<mgrwt>
<rscale>  0 0.69033387E+02</rscale>
<asrwt>0</asrwt>
<pdfrwt beam="1">  1        2 0.82405262E-02 0.95458944E+02</pdfrwt>
<pdfrwt beam="2">  1       -2 0.14451217E-01 0.95458944E+02</pdfrwt>
<totfact> 0.26308042E+04</totfact>
</mgrwt>
</event>
<event>
 6    1  0.1828142E-002  0.9247379E+02  0.7546771E-02  0.1427967E+00
          1   -1    0    0  501    0  0.00000000000E+00  0.00000000000E+00  0.17418092924E+03  0.17418092924E+03  0.00000000000E+00 0. -1.
         -1   -1    0    0    0  501 -0.00000000000E+00 -0.00000000000E+00 -0.17168692101E+02  0.17168692101E+02  0.00000000000E+00 0.  1.
         23    2    1    2    0    0 -0.66987656821E+01 -0.77712137050E+01  0.11229350366E+03  0.14546901162E+03  0.91902868039E+02 0.  0.
         11    1    3    3    0    0  0.39231978962E+02  0.52097257843E+01  0.75353274875E+02  0.85114073163E+02  0.00000000000E+00 0. -1.
        -11    1    3    3    0    0 -0.45930744644E+02 -0.12980939489E+02  0.36940228780E+02  0.60354938455E+02  0.00000000000E+00 0.  1.
         22    1    1    2    0    0  0.66987656821E+01  0.77712137050E+01  0.44718733488E+02  0.45880609726E+02  0.00000000000E+00 0. -1.
<mgrwt>
<rscale>  0 0.53370297E+02</rscale>
<asrwt>0</asrwt>
<pdfrwt beam="1">  1        1 0.26797065E-01 0.92473793E+02</pdfrwt>
<pdfrwt beam="2">  1       -1 0.26413374E-02 0.92473793E+02</pdfrwt>
<totfact> 0.68666100E+04</totfact>
</mgrwt>
</event>
<event>
 6    1  0.1828142E-002  0.9322265E+02  0.7546771E-02  0.1417230E+00
         -4   -1    0    0    0  501 -0.00000000000E+00  0.00000000000E+00  0.28847199760E+02  0.28847199760E+02  0.00000000000E+00 0.  1.
          4   -1    0    0  501    0  0.00000000000E+00 -0.00000000000E+00 -0.10398035185E+03  0.10398035185E+03  0.00000000000E+00 0. -1.
         23    2    1    2    0    0  0.53922400258E+01  0.10502080471E+02 -0.51725555187E+02  0.10661142033E+03  0.92472114380E+02 0.  0.
         13    1    3    3    0    0 -0.11521349951E+02  0.41280406244E+02 -0.56770380389E+02  0.71131494670E+02  0.00000000000E+00 0. -1.
        -13    1    3    3    0    0  0.16913589977E+02 -0.30778325773E+02  0.50448252027E+01  0.35479925657E+02  0.00000000000E+00 0.  1.
         22    1    1    2    0    0 -0.53922400258E+01 -0.10502080471E+02 -0.23407596903E+02  0.26216131284E+02  0.00000000000E+00 0. -1.
<mgrwt>
<rscale>  0 0.55611193E+02</rscale>
<asrwt>0</asrwt>
<pdfrwt beam="1">  1        4 0.15996977E-01 0.93222647E+02</pdfrwt>
<pdfrwt beam="2">  1       -4 0.44380307E-02 0.93222647E+02</pdfrwt>
<totfact> 0.14183193E+04</totfact>
</mgrwt>
</event>
<event>
 6    1  0.1828142E-002  0.1034194E+03  0.7546771E-02  0.1315479E+00
          2   -1    0    0  501    0  0.00000000000E+00  0.00000000000E+00  0.18137093949E+03  0.18137093949E+03  0.00000000000E+00 0. -1.
         -2   -1    0    0    0  501 -0.00000000000E+00 -0.00000000000E+00 -0.31252643997E+02  0.31252643997E+02  0.00000000000E+00 0.  1.
         23    2    1    2    0    0  0.65462585459E+01  0.46695708631E+02  0.10388951457E+03  0.14658993380E+03  0.92044743184E+02 0.  0.
         11    1    3    3    0    0 -0.39120821265E+02  0.23894709074E+02  0.23887117284E+02  0.51691296660E+02  0.00000000000E+00 0. -1.
        -11    1    3    3    0    0  0.45667079811E+02  0.22800999556E+02  0.80002397285E+02  0.94898637138E+02  0.00000000000E+00 0.  1.
         22    1    1    2    0    0 -0.65462585459E+01 -0.46695708631E+02  0.46228780919E+02  0.66033649685E+02  0.00000000000E+00 0. -1.
<mgrwt>
<rscale>  0 0.84982087E+02</rscale>
<asrwt>0</asrwt>
<pdfrwt beam="1">  1        2 0.27903221E-01 0.10341942E+03</pdfrwt>
<pdfrwt beam="2">  1       -2 0.48080992E-02 0.10341942E+03</pdfrwt>
<totfact> 0.35248917E+04</totfact>
</mgrwt>
</event>
<event>
 6    1  0.1828142E-002  0.9063040E+02  0.7546771E-02  0.1420538E+00
          2   -1    0    0  501    0  0.00000000000E+00  0.00000000000E+00  0.16507784672E+03  0.16507784672E+03  0.00000000000E+00 0. -1.
         -2   -1    0    0    0  501 -0.00000000000E+00 -0.00000000000E+00 -0.17090426424E+02  0.17090426424E+02  0.00000000000E+00 0.  1.
         23    2    1    2    0    0 -0.10257960319E+02 -0.66215112747E+01  0.11147269703E+03  0.14366638778E+03  0.89804223914E+02 0.  0.
         11    1    3    3    0    0  0.68034454026E+01 -0.15221652839E+02  0.12112025564E+03  0.12226243050E+03  0.00000000000E+00 0. -1.
        -11    1    3    3    0    0 -0.17061405721E+02  0.86001415641E+01 -0.96475586119E+01  0.21403957281E+02  0.00000000000E+00 0.  1.
         22    1    1    2    0    0  0.10257960319E+02  0.66215112747E+01  0.36514723262E+02  0.38501885361E+02  0.00000000000E+00 0. -1.
<mgrwt>
<rscale>  0 0.54907194E+02</rscale>
<asrwt>0</asrwt>
<pdfrwt beam="1">  1        2 0.25396591E-01 0.90630397E+02</pdfrwt>
<pdfrwt beam="2">  1       -2 0.26292965E-02 0.90630397E+02</pdfrwt>
<totfact> 0.92924885E+04</totfact>
</mgrwt>
</event>
<event>
 6    1  0.1828142E-002  0.1034477E+03  0.7546771E-02  0.1314888E+00
         -2   -1    0    0    0  501 -0.00000000000E+00  0.00000000000E+00  0.77714586708E+01  0.77714586708E+01  0.00000000000E+00 0.  1.
          2   -1    0    0  501    0  0.00000000000E+00 -0.00000000000E+00 -0.10385788040E+04  0.10385788040E+04  0.00000000000E+00 0. -1.
         23    2    1    2    0    0 -0.61023069375E+01 -0.47224937335E+02 -0.91928843362E+03  0.92509062172E+03  0.91836819114E+02 0.  0.
         13    1    3    3    0    0 -0.36000194458E+02 -0.10370899203E+02 -0.68610770554E+03  0.68712979353E+03  0.00000000000E+00 0. -1.
        -13    1    3    3    0    0  0.29897887521E+02 -0.36854038132E+02 -0.23318072808E+03  0.23796082819E+03  0.00000000000E+00 0.  1.
         22    1    1    2    0    0  0.61023069375E+01  0.47224937335E+02 -0.11151891175E+03  0.12125964099E+03  0.00000000000E+00 0.  1.
<mgrwt>
<rscale>  0 0.85208427E+02</rscale>
<asrwt>0</asrwt>
<pdfrwt beam="1">  1        2 0.15978139E+00 0.10344774E+03</pdfrwt>
<pdfrwt beam="2">  1       -2 0.11956087E-02 0.10344774E+03</pdfrwt>
<totfact> 0.37645852E+04</totfact>
</mgrwt>
</event>
<event>
 6    1  0.1828142E-002  0.1196946E+03  0.7546771E-02  0.1264473E+00
          1   -1    0    0  501    0  0.00000000000E+00  0.00000000000E+00  0.85390504568E+03  0.85390504568E+03  0.00000000000E+00 0. -1.
         -1   -1    0    0    0  501 -0.00000000000E+00 -0.00000000000E+00 -0.12215305376E+02  0.12215305376E+02  0.00000000000E+00 0.  1.
         23    2    1    2    0    0 -0.62593911246E+02  0.48358147198E+02  0.59980130376E+03  0.61162767167E+03  0.89834829770E+02 0.  0.
         11    1    3    3    0    0 -0.75363898136E+02  0.11424067409E+02  0.31154166537E+03  0.32073109566E+03  0.00000000000E+00 0. -1.
        -11    1    3    3    0    0  0.12769986890E+02  0.36934079789E+02  0.28825963839E+03  0.29089657602E+03  0.00000000000E+00 0.  1.
         22    1    1    2    0    0  0.62593911246E+02 -0.48358147198E+02  0.24188843654E+03  0.25449267938E+03  0.00000000000E+00 0.  1.
<mgrwt>
<rscale>  0 0.10791890E+03</rscale>
<asrwt>0</asrwt>
<pdfrwt beam="1">  1        1 0.13136996E+00 0.11969463E+03</pdfrwt>
<pdfrwt beam="2">  1       -1 0.18792784E-02 0.11969463E+03</pdfrwt>
<totfact> 0.14780950E+04</totfact>
</mgrwt>
</event>
<event>
 6    1  0.1828142E-002  0.1036147E+03  0.7546771E-02  0.1311657E+00
         -2   -1    0    0    0  501 -0.00000000000E+00  0.00000000000E+00  0.76773596339E+01  0.76773596339E+01  0.00000000000E+00 0.  1.
          2   -1    0    0  501    0  0.00000000000E+00 -0.00000000000E+00 -0.84909198573E+03  0.84909198573E+03  0.00000000000E+00 0. -1.
         23    2    1    2    0    0  0.14884936861E+02  0.47979450818E+02 -0.67600420173E+03  0.68389888075E+03  0.90622344327E+02 0.  0.
         11    1    3    3    0    0  0.42364222666E+02  0.28452335326E+02 -0.57820674994E+03  0.58045439823E+03  0.00000000000E+00 0. -1.
        -11    1    3    3    0    0 -0.27479285805E+02  0.19527115492E+02 -0.97797451788E+02  0.10344448252E+03  0.00000000000E+00 0.  1.
         22    1    1    2    0    0 -0.14884936861E+02 -0.47979450818E+02 -0.16541042437E+03  0.17287046461E+03  0.00000000000E+00 0.  1.
<mgrwt>
<rscale>  0 0.86460600E+02</rscale>
<asrwt>0</asrwt>
<pdfrwt beam="1">  1        2 0.13062955E+00 0.10361466E+03</pdfrwt>
<pdfrwt beam="2">  1       -2 0.11811321E-02 0.10361466E+03</pdfrwt>
<totfact> 0.49965047E+04</totfact>
</mgrwt>
</event>
<event>
 6    1  0.1828142E-002  0.9337489E+02  0.7546771E-02  0.1366011E+00
         -2   -1    0    0    0  501 -0.00000000000E+00  0.00000000000E+00  0.10315743251E+03  0.10315743251E+03  0.00000000000E+00 0.  1.
          2   -1    0    0  501    0  0.00000000000E+00 -0.00000000000E+00 -0.35216848349E+02  0.35216848349E+02  0.00000000000E+00 0. -1.
         23    2    1    2    0    0  0.17051128397E+02 -0.20561491538E+02  0.47652486805E+02  0.10483143053E+03  0.89472640588E+02 0.  0.
         13    1    3    3    0    0  0.27553459291E+02 -0.47278200864E+02  0.52365698968E+02  0.75740265540E+02  0.00000000000E+00 0.  1.
        -13    1    3    3    0    0 -0.10502330894E+02  0.26716709325E+02 -0.47132121630E+01  0.29091164987E+02  0.00000000000E+00 0. -1.
         22    1    1    2    0    0 -0.17051128397E+02  0.20561491538E+02  0.20288097353E+02  0.33542850327E+02  0.00000000000E+00 0. -1.
<mgrwt>
<rscale>  0 0.68288570E+02</rscale>
<asrwt>0</asrwt>
<pdfrwt beam="1">  1        2 0.54179767E-02 0.93374886E+02</pdfrwt>
<pdfrwt beam="2">  1       -2 0.15870374E-01 0.93374886E+02</pdfrwt>
<totfact> 0.38254871E+04</totfact>
</mgrwt>
</event>
<event>
 6    1  0.1828142E-002  0.9231840E+02  0.7546771E-02  0.1412646E+00
          1   -1    0    0  501    0  0.00000000000E+00  0.00000000000E+00  0.98578331222E+02  0.98578331222E+02  0.00000000000E+00 0. -1.
         -1   -1    0    0    0  501 -0.00000000000E+00 -0.00000000000E+00 -0.44921908352E+02  0.44921908352E+02  0.00000000000E+00 0.  1.
         23    2    1    2    0    0 -0.55881924632E+01  0.11793637423E+02  0.42684004202E+01  0.92417027653E+02  0.91391301443E+02 0.  0.
         11    1    3    3    0    0  0.29911355066E+02  0.11037303217E+02  0.33630852186E+02  0.46341616750E+02  0.00000000000E+00 0. -1.
        -11    1    3    3    0    0 -0.35499547529E+02  0.75633420517E+00 -0.29362451766E+02  0.46075410903E+02  0.00000000000E+00 0.  1.
         22    1    1    2    0    0  0.55881924632E+01 -0.11793637423E+02  0.49388022450E+02  0.51083211921E+02  0.00000000000E+00 0. -1.
<mgrwt>
<rscale>  0 0.56607466E+02</rscale>
<asrwt>0</asrwt>
<pdfrwt beam="1">  1        1 0.15165897E-01 0.92318404E+02</pdfrwt>
<pdfrwt beam="2">  1       -1 0.69110628E-02 0.92318404E+02</pdfrwt>
<totfact> 0.34550632E+04</totfact>
</mgrwt>
</event>
<event>
 6    1  0.1828142E-002  0.9826990E+02  0.7546771E-02  0.1338946E+00
          3   -1    0    0  501    0  0.00000000000E+00  0.00000000000E+00  0.12481810105E+02  0.12481810105E+02  0.00000000000E+00 0. -1.
         -3   -1    0    0    0  501 -0.00000000000E+00 -0.00000000000E+00 -0.48051999783E+03  0.48051999783E+03  0.00000000000E+00 0.  1.
         23    2    1    2    0    0  0.35615097842E+02  0.70415321743E+01 -0.42721147348E+03  0.43836812816E+03  0.91317875271E+02 0.  0.
         13    1    3    3    0    0 -0.24877905362E+02 -0.55848192123E+01 -0.23705720725E+03  0.23842445321E+03  0.00000000000E+00 0.  1.
        -13    1    3    3    0    0  0.60493003203E+02  0.12626351387E+02 -0.19015426623E+03  0.19994367495E+03  0.00000000000E+00 0. -1.
         22    1    1    2    0    0 -0.35615097842E+02 -0.70415321743E+01 -0.40826714246E+02  0.54633679775E+02  0.00000000000E+00 0.  1.
<mgrwt>
<rscale>  0 0.76613545E+02</rscale>
<asrwt>0</asrwt>
<pdfrwt beam="1">  1        3 0.19202786E-02 0.98269897E+02</pdfrwt>
<pdfrwt beam="2">  1       -3 0.73926147E-01 0.98269897E+02</pdfrwt>
<totfact> 0.38432308E+03</totfact>
</mgrwt>
</event>
<event>
 6    1  0.1828142E-002  0.9098499E+02  0.7546771E-02  0.1362260E+00
         -2   -1    0    0    0  501 -0.00000000000E+00  0.00000000000E+00  0.95927627153E+02  0.95927627153E+02  0.00000000000E+00 0.  1.
          2   -1    0    0  501    0  0.00000000000E+00 -0.00000000000E+00 -0.38631468388E+02  0.38631468388E+02  0.00000000000E+00 0. -1.
         23    2    1    2    0    0 -0.30148035138E+02  0.59999105020E+01  0.44045561280E+02  0.10108550472E+03  0.85635067860E+02 0.  0.
         11    1    3    3    0    0 -0.29936433089E+02 -0.31631378418E+02  0.52968940719E+00  0.43554732207E+02  0.00000000000E+00 0. -1.
        -11    1    3    3    0    0 -0.21160204903E+00  0.37631288920E+02  0.43515871873E+02  0.57530772514E+02  0.00000000000E+00 0.  1.
         22    1    1    2    0    0  0.30148035138E+02 -0.59999105020E+01  0.13250597485E+02  0.33473590821E+02  0.00000000000E+00 0. -1.
<mgrwt>
<rscale>  0 0.69366647E+02</rscale>
<asrwt>0</asrwt>
<pdfrwt beam="1">  1        2 0.59433029E-02 0.90984987E+02</pdfrwt>
<pdfrwt beam="2">  1       -2 0.14758096E-01 0.90984987E+02</pdfrwt>
<totfact> 0.38106583E+04</totfact>
</mgrwt>
</event>
<event>
 6    1  0.1828142E-002  0.9811163E+02  0.7546771E-02  0.1380792E+00
          2   -1    0    0  501    0  0.00000000000E+00  0.00000000000E+00  0.25680378624E+03  0.25680378624E+03  0.00000000000E+00 0. -1.
         -2   -1    0    0    0  501 -0.00000000000E+00 -0.00000000000E+00 -0.13679218664E+02  0.13679218664E+02  0.00000000000E+00 0.  1.
         23    2    1    2    0    0  0.16963120169E+02  0.61711010933E+01  0.18214780213E+03  0.20689058508E+03  0.96436831346E+02 0.  0.
         13    1    3    3    0    0 -0.22684483794E+02 -0.16354622518E+02  0.14613007783E+03  0.14878191801E+03  0.00000000000E+00 0. -1.
        -13    1    3    3    0    0  0.39647603963E+02  0.22525723611E+02  0.36017724302E+02  0.58108667065E+02  0.00000000000E+00 0.  1.
         22    1    1    2    0    0 -0.16963120169E+02 -0.61711010933E+01  0.60976765451E+02  0.63592419827E+02  0.00000000000E+00 0. -1.
<mgrwt>
<rscale>  0 0.64256083E+02</rscale>
<asrwt>0</asrwt>
<pdfrwt beam="1">  1        2 0.39508271E-01 0.98111632E+02</pdfrwt>
<pdfrwt beam="2">  1       -2 0.21044954E-02 0.98111632E+02</pdfrwt>
<totfact> 0.80906212E+04</totfact>
</mgrwt>
</event>
<event>
 6    1  0.1828142E-002  0.9240968E+02  0.7546771E-02  0.1428216E+00
          1   -1    0    0  501    0  0.00000000000E+00  0.00000000000E+00  0.19308079796E+02  0.19308079796E+02  0.00000000000E+00 0. -1.
         -1   -1    0    0    0  501 -0.00000000000E+00 -0.00000000000E+00 -0.15876600554E+03  0.15876600554E+03  0.00000000000E+00 0.  1.
         23    2    1    2    0    0 -0.10235429882E+02 -0.37921432514E+00 -0.14007722786E+03  0.16781292734E+03  0.91840301546E+02 0.  0.
         13    1    3    3    0    0 -0.39658817621E+02 -0.29242483785E+02 -0.59073968534E+02  0.76926448192E+02  0.00000000000E+00 0. -1.
        -13    1    3    3    0    0  0.29423387740E+02  0.28863269460E+02 -0.81003259326E+02  0.90886479145E+02  0.00000000000E+00 0.  1.
         22    1    1    2    0    0  0.10235429882E+02  0.37921432514E+00  0.61930211692E+00  0.10261157999E+02  0.00000000000E+00 0. -1.
<mgrwt>
<rscale>  0 0.53319870E+02</rscale>
<asrwt>0</asrwt>
<pdfrwt beam="1">  1        1 0.29704737E-02 0.92409679E+02</pdfrwt>
<pdfrwt beam="2">  1       -1 0.24425540E-01 0.92409679E+02</pdfrwt>
<totfact> 0.43333322E+04</totfact>
</mgrwt>
</event>
<event>
 6    1  0.6659096E-002  0.9866571E+02  0.7546771E-02  0.1340491E+00
         -2   -1    0    0    0  501 -0.00000000000E+00  0.00000000000E+00  0.15694213413E+02  0.15694213413E+02  0.00000000000E+00 0.  1.
          2   -1    0    0  501    0  0.00000000000E+00 -0.00000000000E+00 -0.14773919562E+04  0.14773919562E+04  0.00000000000E+00 0. -1.
         23    2    1    2    0    0 -0.62682887771E+01  0.34354377382E+02 -0.14539776084E+04  0.14573214500E+04  0.92278969803E+02 0.  0.
         13    1    3    3    0    0  0.36728445647E+02 -0.84646483032E+01 -0.61270956680E+03  0.61386777261E+03  0.00000000000E+00 0. -1.
        -13    1    3    3    0    0 -0.42996734424E+02  0.42819025685E+02 -0.84126804160E+03  0.84345367742E+03  0.00000000000E+00 0.  1.
         22    1    1    2    0    0  0.62682887771E+01 -0.34354377382E+02 -0.77201343300E+01  0.35764719537E+02  0.00000000000E+00 0.  1.
<mgrwt>
<rscale>  0 0.76102351E+02</rscale>
<asrwt>0</asrwt>
<pdfrwt beam="1">  1        2 0.22729103E+00 0.98665713E+02</pdfrwt>
<pdfrwt beam="2">  1       -2 0.24144948E-02 0.98665713E+02</pdfrwt>
<totfact> 0.79262885E+03</totfact>
</mgrwt>
</event>
<event>
 6    1  0.1828142E-002  0.8509617E+02  0.7546771E-02  0.1441244E+00
         -2   -1    0    0    0  501 -0.00000000000E+00  0.00000000000E+00  0.95843230949E+02  0.95843230949E+02  0.00000000000E+00 0.  1.
          2   -1    0    0  501    0  0.00000000000E+00 -0.00000000000E+00 -0.26290040819E+02  0.26290040819E+02  0.00000000000E+00 0. -1.
         23    2    1    2    0    0  0.12392109746E+01  0.10708593161E+02  0.71538948375E+02  0.11117184635E+03  0.84410595754E+02 0.  0.
         11    1    3    3    0    0 -0.20092862653E+02 -0.11117390318E+01 -0.12483778532E+02  0.23681296833E+02  0.00000000000E+00 0. -1.
        -11    1    3    3    0    0  0.21332073627E+02  0.11820332192E+02  0.84022726907E+02  0.87490549520E+02  0.00000000000E+00 0.  1.
         22    1    1    2    0    0 -0.12392109746E+01 -0.10708593161E+02 -0.19857582453E+01  0.10961425415E+02  0.00000000000E+00 0. -1.
<mgrwt>
<rscale>  0 0.50767733E+02</rscale>
<asrwt>0</asrwt>
<pdfrwt beam="1">  1        2 0.40446217E-02 0.85096171E+02</pdfrwt>
<pdfrwt beam="2">  1       -2 0.14745112E-01 0.85096171E+02</pdfrwt>
<totfact> 0.62071884E+04</totfact>
</mgrwt>
</event>
<event>
 6    1  0.1828142E-002  0.9611422E+02  0.7546771E-02  0.1374035E+00
         -4   -1    0    0    0  501 -0.00000000000E+00  0.00000000000E+00  0.14571672553E+03  0.14571672553E+03  0.00000000000E+00 0.  1.
          4   -1    0    0  501    0  0.00000000000E+00 -0.00000000000E+00 -0.25407622163E+02  0.25407622163E+02  0.00000000000E+00 0. -1.
         23    2    1    2    0    0  0.20311819372E+02 -0.68812891541E+01  0.11326941348E+03  0.14855269777E+03  0.93691097958E+02 0.  0.
         11    1    3    3    0    0 -0.54144255884E+01  0.31199999343E+01 -0.15576600175E+02  0.16783351186E+02  0.00000000000E+00 0. -1.
        -11    1    3    3    0    0  0.25726244960E+02 -0.10001289088E+02  0.12884601366E+03  0.13176934658E+03  0.00000000000E+00 0.  1.
         22    1    1    2    0    0 -0.20311819372E+02  0.68812891541E+01  0.70396898830E+01  0.22571649923E+02  0.00000000000E+00 0. -1.
<mgrwt>
<rscale>  0 0.66058132E+02</rscale>
<asrwt>0</asrwt>
<pdfrwt beam="1">  1        4 0.39088650E-02 0.96114224E+02</pdfrwt>
<pdfrwt beam="2">  1       -4 0.22417957E-01 0.96114224E+02</pdfrwt>
<totfact> 0.96093755E+03</totfact>
</mgrwt>
</event>
<event>
 6    1  0.1828142E-002  0.9124982E+02  0.7546771E-02  0.1409208E+00
         -2   -1    0    0    0  501 -0.00000000000E+00  0.00000000000E+00  0.19297629195E+03  0.19297629195E+03  0.00000000000E+00 0.  1.
          2   -1    0    0  501    0  0.00000000000E+00 -0.00000000000E+00 -0.17345040611E+02  0.17345040611E+02  0.00000000000E+00 0. -1.
         23    2    1    2    0    0 -0.93660723119E+01 -0.10750853365E+02  0.17332474507E+03  0.19587750586E+03  0.90128940342E+02 0.  0.
         11    1    3    3    0    0 -0.24820318612E+02 -0.66725575628E+01  0.42519721254E+01  0.26050921431E+02  0.00000000000E+00 0. -1.
        -11    1    3    3    0    0  0.15454246300E+02 -0.40782958021E+01  0.16907277295E+03  0.16982658443E+03  0.00000000000E+00 0.  1.
         22    1    1    2    0    0  0.93660723119E+01  0.10750853365E+02  0.23065062622E+01  0.14443826701E+02  0.00000000000E+00 0. -1.
<mgrwt>
<rscale>  0 0.57370985E+02</rscale>
<asrwt>0</asrwt>
<pdfrwt beam="1">  1        2 0.26684679E-02 0.91249822E+02</pdfrwt>
<pdfrwt beam="2">  1       -2 0.29688659E-01 0.91249822E+02</pdfrwt>
<totfact> 0.33322380E+04</totfact>
</mgrwt>
</event>
<event>
 6    1  0.1828142E-002  0.9371294E+02  0.7546771E-02  0.1393987E+00
          2   -1    0    0  501    0  0.00000000000E+00  0.00000000000E+00  0.21877158974E+02  0.21877158974E+02  0.00000000000E+00 0.  1.
         -2   -1    0    0    0  501 -0.00000000000E+00 -0.00000000000E+00 -0.14387250494E+03  0.14387250494E+03  0.00000000000E+00 0. -1.
         23    2    1    2    0    0  0.13799136561E+02  0.94802756209E+01 -0.11279871352E+03  0.14664809738E+03  0.92205330091E+02 0.  0.
         13    1    3    3    0    0  0.12884477674E+01  0.37446399233E+02 -0.91546118801E+01  0.38570712100E+02  0.00000000000E+00 0.  1.
        -13    1    3    3    0    0  0.12510688793E+02 -0.27966123613E+02 -0.10364410164E+03  0.10807738528E+03  0.00000000000E+00 0. -1.
         22    1    1    2    0    0 -0.13799136561E+02 -0.94802756209E+01 -0.91966324428E+01  0.19101566532E+02  0.00000000000E+00 0.  1.
<mgrwt>
<rscale>  0 0.60925761E+02</rscale>
<asrwt>0</asrwt>
<pdfrwt beam="1">  1        2 0.33657167E-02 0.93712938E+02</pdfrwt>
<pdfrwt beam="2">  1       -2 0.22134232E-01 0.93712938E+02</pdfrwt>
<totfact> 0.40935800E+04</totfact>
</mgrwt>
</event>
<event>
 6    1  0.1828142E-002  0.9275822E+02  0.7546771E-02  0.1391143E+00
         -4   -1    0    0    0  501 -0.00000000000E+00  0.00000000000E+00  0.36660314221E+02  0.36660314221E+02  0.00000000000E+00 0.  1.
          4   -1    0    0  501    0  0.00000000000E+00 -0.00000000000E+00 -0.90430646516E+02  0.90430646516E+02  0.00000000000E+00 0. -1.
         23    2    1    2    0    0 -0.91764283371E+01  0.15564739902E+02 -0.30530192136E+02  0.97653364370E+02  0.90981421047E+02 0.  0.
         11    1    3    3    0    0  0.19071225321E+02 -0.14467782388E+02 -0.47403353532E+02  0.53104672944E+02  0.00000000000E+00 0. -1.
        -11    1    3    3    0    0 -0.28247653658E+02  0.30032522289E+02  0.16873161396E+02  0.44548691426E+02  0.00000000000E+00 0.  1.
         22    1    1    2    0    0  0.91764283371E+01 -0.15564739902E+02 -0.23240140160E+02  0.29437596367E+02  0.00000000000E+00 0. -1.
<mgrwt>
<rscale>  0 0.61623217E+02</rscale>
<asrwt>0</asrwt>
<pdfrwt beam="1">  1        4 0.13912407E-01 0.92758218E+02</pdfrwt>
<pdfrwt beam="2">  1       -4 0.56400485E-02 0.92758218E+02</pdfrwt>
<totfact> 0.12305046E+04</totfact>
</mgrwt>
</event>
<event>
 6    1  0.1828142E-002  0.1072608E+03  0.7546771E-02  0.1348761E+00
         -2   -1    0    0    0  501 -0.00000000000E+00  0.00000000000E+00  0.37219320575E+02  0.37219320575E+02  0.00000000000E+00 0.  1.
          2   -1    0    0  501    0  0.00000000000E+00 -0.00000000000E+00 -0.17441729618E+03  0.17441729618E+03  0.00000000000E+00 0. -1.
         23    2    1    2    0    0  0.22940949035E+02  0.54375715762E+01 -0.44736044376E+02  0.11621616269E+03  0.10463760546E+03 0.  0.
         11    1    3    3    0    0  0.25392869386E+02 -0.35392759085E+02 -0.58609025918E+02  0.73023716219E+02  0.00000000000E+00 0. -1.
        -11    1    3    3    0    0 -0.24519203511E+01  0.40830330661E+02  0.13872981542E+02  0.43192446471E+02  0.00000000000E+00 0.  1.
         22    1    1    2    0    0 -0.22940949035E+02 -0.54375715762E+01 -0.92461931233E+02  0.95420454068E+02  0.00000000000E+00 0. -1.
<mgrwt>
<rscale>  0 0.73443091E+02</rscale>
<asrwt>0</asrwt>
<pdfrwt beam="1">  1        2 0.26833430E-01 0.10726082E+03</pdfrwt>
<pdfrwt beam="2">  1       -2 0.57260494E-02 0.10726082E+03</pdfrwt>
<totfact> 0.28440545E+04</totfact>
</mgrwt>
</event>
<event>
 6    1  0.1828142E-002  0.9942313E+02  0.7546771E-02  0.1394982E+00
          2   -1    0    0  501    0  0.00000000000E+00  0.00000000000E+00  0.24692120166E+02  0.24692120166E+02  0.00000000000E+00 0. -1.
         -2   -1    0    0    0  501 -0.00000000000E+00 -0.00000000000E+00 -0.23481813757E+03  0.23481813757E+03  0.00000000000E+00 0.  1.
         23    2    1    2    0    0 -0.22994485699E+01  0.13605898527E+02 -0.22074276075E+03  0.24209982472E+03  0.98460909843E+02 0.  0.
         13    1    3    3    0    0  0.33621298760E+02 -0.19062445646E+02 -0.15857997099E+03  0.16322186056E+03  0.00000000000E+00 0. -1.
        -13    1    3    3    0    0 -0.35920747330E+02  0.32668344173E+02 -0.62162789762E+02  0.78877964165E+02  0.00000000000E+00 0.  1.
         22    1    1    2    0    0  0.22994485699E+01 -0.13605898527E+02  0.10616743348E+02  0.17410433015E+02  0.00000000000E+00 0. -1.
<mgrwt>
<rscale>  0 0.60684280E+02</rscale>
<asrwt>0</asrwt>
<pdfrwt beam="1">  1        2 0.37987877E-02 0.99423130E+02</pdfrwt>
<pdfrwt beam="2">  1       -2 0.36125868E-01 0.99423130E+02</pdfrwt>
<totfact> 0.14780433E+04</totfact>
</mgrwt>
</event>
<event>
 6    1  0.1828142E-002  0.9710517E+02  0.7546771E-02  0.1415929E+00
          2   -1    0    0  501    0  0.00000000000E+00  0.00000000000E+00  0.29827823358E+03  0.29827823358E+03  0.00000000000E+00 0. -1.
         -2   -1    0    0    0  501 -0.00000000000E+00 -0.00000000000E+00 -0.99563365477E+01  0.99563365477E+01  0.00000000000E+00 0.  1.
         23    2    1    2    0    0 -0.93799039113E+01  0.50597417200E+01  0.24316432861E+03  0.26183640670E+03  0.96518545273E+02 0.  0.
         11    1    3    3    0    0  0.40622255487E+02  0.18825157858E+02  0.12558659199E+03  0.13332871520E+03  0.00000000000E+00 0.  1.
        -11    1    3    3    0    0 -0.50002159398E+02 -0.13765416138E+02  0.11757773662E+03  0.12850769150E+03  0.00000000000E+00 0. -1.
         22    1    1    2    0    0  0.93799039113E+01 -0.50597417200E+01  0.45157568423E+02  0.46398163429E+02  0.00000000000E+00 0.  1.
<mgrwt>
<rscale>  0 0.55891555E+02</rscale>
<asrwt>0</asrwt>
<pdfrwt beam="1">  1        2 0.45888952E-01 0.97105165E+02</pdfrwt>
<pdfrwt beam="2">  1       -2 0.15317443E-02 0.97105165E+02</pdfrwt>
<totfact> 0.10893486E+05</totfact>
</mgrwt>
</event>
<event>
 6    1  0.1828142E-002  0.1059081E+03  0.7546771E-02  0.1298693E+00
          2   -1    0    0  501    0  0.00000000000E+00  0.00000000000E+00  0.10579204422E+03  0.10579204422E+03  0.00000000000E+00 0.  1.
         -2   -1    0    0    0  501 -0.00000000000E+00 -0.00000000000E+00 -0.70205412210E+02  0.70205412210E+02  0.00000000000E+00 0. -1.
         23    2    1    2    0    0 -0.62243614942E+01 -0.59300295380E+02 -0.12404629978E+01  0.10591534291E+03  0.87528586233E+02 0.  0.
         13    1    3    3    0    0 -0.37468128981E+01 -0.70574294866E+02 -0.28583961488E+02  0.76235244849E+02  0.00000000000E+00 0. -1.
        -13    1    3    3    0    0 -0.24775485961E+01  0.11273999486E+02  0.27343498490E+02  0.29680098065E+02  0.00000000000E+00 0.  1.
         22    1    1    2    0    0  0.62243614942E+01  0.59300295380E+02  0.36827095006E+02  0.70082113516E+02  0.00000000000E+00 0.  1.
<mgrwt>
<rscale>  0 0.91739392E+02</rscale>
<asrwt>0</asrwt>
<pdfrwt beam="1">  1        2 0.16275699E-01 0.10590808E+03</pdfrwt>
<pdfrwt beam="2">  1       -2 0.10800833E-01 0.10590808E+03</pdfrwt>
<totfact> 0.18753243E+04</totfact>
</mgrwt>
</event>
<event>
 6    1  0.1828142E-002  0.9661897E+02  0.7546771E-02  0.1350411E+00
          2   -1    0    0  501    0  0.00000000000E+00  0.00000000000E+00  0.10586881631E+03  0.10586881631E+03  0.00000000000E+00 0. -1.
         -2   -1    0    0    0  501 -0.00000000000E+00 -0.00000000000E+00 -0.39163248666E+02  0.39163248666E+02  0.00000000000E+00 0.  1.
         23    2    1    2    0    0  0.56384015855E+01  0.30849469099E+02  0.57114755818E+02  0.11223778213E+03  0.91387871671E+02 0.  0.
         11    1    3    3    0    0  0.30741612558E+02 -0.18531280139E+02  0.41112822955E+02  0.54577644669E+02  0.00000000000E+00 0. -1.
        -11    1    3    3    0    0 -0.25103210972E+02  0.49380749238E+02  0.16001932863E+02  0.57660137459E+02  0.00000000000E+00 0.  1.
         22    1    1    2    0    0 -0.56384015855E+01 -0.30849469099E+02  0.95908118262E+01  0.32794282850E+02  0.00000000000E+00 0. -1.
<mgrwt>
<rscale>  0 0.72927706E+02</rscale>
<asrwt>0</asrwt>
<pdfrwt beam="1">  1        2 0.16287510E-01 0.96618965E+02</pdfrwt>
<pdfrwt beam="2">  1       -2 0.60251152E-02 0.96618965E+02</pdfrwt>
<totfact> 0.45403015E+04</totfact>
</mgrwt>
</event>
<event>
 6    1  0.1828142E-002  0.9966110E+02  0.7546771E-02  0.1328373E+00
         -2   -1    0    0    0  501 -0.00000000000E+00  0.00000000000E+00  0.20233421646E+02  0.20233421646E+02  0.00000000000E+00 0.  1.
          2   -1    0    0  501    0  0.00000000000E+00 -0.00000000000E+00 -0.25445955112E+03  0.25445955112E+03  0.00000000000E+00 0. -1.
         23    2    1    2    0    0  0.72033728352E-01  0.41876919162E+02 -0.14286657958E+03  0.17419297821E+03  0.90435903003E+02 0.  0.
         11    1    3    3    0    0 -0.43855802174E+01  0.41070183361E+02 -0.11673347814E+02  0.42921560134E+02  0.00000000000E+00 0.  1.
        -11    1    3    3    0    0  0.44576139457E+01  0.80673580124E+00 -0.13119323176E+03  0.13127141808E+03  0.00000000000E+00 0. -1.
         22    1    1    2    0    0 -0.72033728352E-01 -0.41876919162E+02 -0.91359549894E+02  0.10049999455E+03  0.00000000000E+00 0.  1.
<mgrwt>
<rscale>  0 0.80239476E+02</rscale>
<asrwt>0</asrwt>
<pdfrwt beam="1">  1        2 0.39147622E-01 0.99661096E+02</pdfrwt>
<pdfrwt beam="2">  1       -2 0.31128342E-02 0.99661096E+02</pdfrwt>
<totfact> 0.46405016E+04</totfact>
</mgrwt>
</event>
<event>
 6    1  0.1828142E-002  0.9949799E+02  0.7546771E-02  0.1329862E+00
          2   -1    0    0  501    0  0.00000000000E+00  0.00000000000E+00  0.99188215230E+02  0.99188215230E+02  0.00000000000E+00 0. -1.
         -2   -1    0    0    0  501 -0.00000000000E+00 -0.00000000000E+00 -0.16050098130E+03  0.16050098130E+03  0.00000000000E+00 0.  1.
         23    2    1    2    0    0 -0.87289131831E+01 -0.40053663396E+02 -0.13953481646E+03  0.17137623573E+03  0.90660682175E+02 0.  0.
         13    1    3    3    0    0 -0.13994568446E+02 -0.40891033770E+02 -0.15189021700E+03  0.15791948141E+03  0.00000000000E+00 0.  1.
        -13    1    3    3    0    0  0.52656552633E+01  0.83737037321E+00  0.12355400538E+02  0.13456754324E+02  0.00000000000E+00 0. -1.
         22    1    1    2    0    0  0.87289131831E+01  0.40053663396E+02  0.78222050392E+02  0.88312960795E+02  0.00000000000E+00 0. -1.
<mgrwt>
<rscale>  0 0.79715028E+02</rscale>
<asrwt>0</asrwt>
<pdfrwt beam="1">  1        2 0.15259726E-01 0.99497986E+02</pdfrwt>
<pdfrwt beam="2">  1       -2 0.24692458E-01 0.99497986E+02</pdfrwt>
<totfact> 0.51637877E+03</totfact>
</mgrwt>
</event>
<event>
 6    1  0.1828142E-002  0.9232049E+02  0.7546771E-02  0.1400940E+00
         -2   -1    0    0    0  501 -0.00000000000E+00  0.00000000000E+00  0.34269198968E+03  0.34269198968E+03  0.00000000000E+00 0.  1.
          2   -1    0    0  501    0  0.00000000000E+00 -0.00000000000E+00 -0.86400145232E+01  0.86400145232E+01  0.00000000000E+00 0. -1.
         23    2    1    2    0    0  0.15582078304E+02 -0.17390175311E+01  0.29911648670E+03  0.31303952844E+03  0.90979384503E+02 0.  0.
         11    1    3    3    0    0  0.12228981707E+02 -0.12408566502E+02  0.30116580522E+03  0.30166929369E+03  0.00000000000E+00 0.  1.
        -11    1    3    3    0    0  0.33530965974E+01  0.10669548971E+02 -0.20493185225E+01  0.11370234757E+02  0.00000000000E+00 0. -1.
         22    1    1    2    0    0 -0.15582078304E+02  0.17390175311E+01  0.34935488453E+02  0.38292475758E+02  0.00000000000E+00 0. -1.
<mgrwt>
<rscale>  0 0.59265496E+02</rscale>
<asrwt>0</asrwt>
<pdfrwt beam="1">  1        2 0.13292333E-02 0.92320495E+02</pdfrwt>
<pdfrwt beam="2">  1       -2 0.52721834E-01 0.92320495E+02</pdfrwt>
<totfact> 0.29129547E+04</totfact>
</mgrwt>
</event>
<event>
 6    1  0.1828142E-002  0.9442629E+02  0.7546771E-02  0.1362426E+00
         -4   -1    0    0    0  501 -0.00000000000E+00  0.00000000000E+00  0.17388989419E+03  0.17388989419E+03  0.00000000000E+00 0. -1.
          4   -1    0    0  501    0  0.00000000000E+00 -0.00000000000E+00 -0.25866238199E+02  0.25866238199E+02  0.00000000000E+00 0.  1.
         23    2    1    2    0    0  0.14662699623E+02  0.23174055800E+02  0.14376823000E+03  0.17200473111E+03  0.90356471511E+02 0.  0.
         11    1    3    3    0    0  0.13056086763E+02 -0.12014010642E+02 -0.55481127819E+01  0.18589766236E+02  0.00000000000E+00 0.  1.
        -11    1    3    3    0    0  0.16066128595E+01  0.35188066442E+02  0.14931634278E+03  0.15341496487E+03  0.00000000000E+00 0. -1.
         22    1    1    2    0    0 -0.14662699623E+02 -0.23174055800E+02  0.42554259850E+01  0.27751401275E+02  0.00000000000E+00 0.  1.
<mgrwt>
<rscale>  0 0.69318506E+02</rscale>
<asrwt>0</asrwt>
<pdfrwt beam="1">  1        4 0.39794214E-02 0.94426286E+02</pdfrwt>
<pdfrwt beam="2">  1       -4 0.26752291E-01 0.94426286E+02</pdfrwt>
<totfact> 0.67292838E+03</totfact>
</mgrwt>
</event>
<event>
 6    1  0.1828142E-002  0.9133516E+02  0.7546771E-02  0.1379275E+00
         -2   -1    0    0    0  501 -0.00000000000E+00  0.00000000000E+00  0.61337042831E+02  0.61337042831E+02  0.00000000000E+00 0.  1.
          2   -1    0    0  501    0  0.00000000000E+00 -0.00000000000E+00 -0.54109728823E+02  0.54109728823E+02  0.00000000000E+00 0. -1.
         23    2    1    2    0    0  0.14043355954E+02 -0.18131824841E+02 -0.21438791902E+00  0.91335408232E+02  0.88408890481E+02 0.  0.
         13    1    3    3    0    0  0.61464235375E+01  0.11444616841E+02  0.39276360471E+02  0.41368952958E+02  0.00000000000E+00 0.  1.
        -13    1    3    3    0    0  0.78969324169E+01 -0.29576441682E+02 -0.39490748390E+02  0.49966455274E+02  0.00000000000E+00 0. -1.
         22    1    1    2    0    0 -0.14043355954E+02  0.18131824841E+02  0.74417019274E+01  0.24111363423E+02  0.00000000000E+00 0. -1.
<mgrwt>
<rscale>  0 0.64654614E+02</rscale>
<asrwt>0</asrwt>
<pdfrwt beam="1">  1        2 0.83245737E-02 0.91335157E+02</pdfrwt>
<pdfrwt beam="2">  1       -2 0.94364681E-02 0.91335157E+02</pdfrwt>
<totfact> 0.50625420E+04</totfact>
</mgrwt>
</event>
<event>
 6    1  0.1828142E-002  0.9683305E+02  0.7546771E-02  0.1331669E+00
         -2   -1    0    0    0  501 -0.00000000000E+00  0.00000000000E+00  0.42464518984E+02  0.42464518984E+02  0.00000000000E+00 0.  1.
          2   -1    0    0  501    0  0.00000000000E+00 -0.00000000000E+00 -0.14671498909E+03  0.14671498909E+03  0.00000000000E+00 0. -1.
         23    2    1    2    0    0 -0.37575557854E+02 -0.21074806873E+02 -0.26668750995E+02  0.10043834979E+03  0.86721218839E+02 0.  0.
         13    1    3    3    0    0 -0.86511845544E+00 -0.16079210161E+02 -0.52735014379E+02  0.55138654054E+02  0.00000000000E+00 0. -1.
        -13    1    3    3    0    0 -0.36710439399E+02 -0.49955967126E+01  0.26066263384E+02  0.45299695740E+02  0.00000000000E+00 0.  1.
         22    1    1    2    0    0  0.37575557854E+02  0.21074806873E+02 -0.77581719115E+02  0.88741158284E+02  0.00000000000E+00 0. -1.
<mgrwt>
<rscale>  0 0.79084616E+02</rscale>
<asrwt>0</asrwt>
<pdfrwt beam="1">  1        2 0.22571537E-01 0.96833051E+02</pdfrwt>
<pdfrwt beam="2">  1       -2 0.65330030E-02 0.96833051E+02</pdfrwt>
<totfact> 0.27850149E+04</totfact>
</mgrwt>
</event>
<event>
 6    1  0.1828142E-002  0.8849594E+02  0.7546771E-02  0.1417238E+00
          3   -1    0    0  501    0  0.00000000000E+00  0.00000000000E+00  0.79954313185E+02  0.79954313185E+02  0.00000000000E+00 0. -1.
         -3   -1    0    0    0  501 -0.00000000000E+00 -0.00000000000E+00 -0.42098018057E+02  0.42098018057E+02  0.00000000000E+00 0.  1.
         23    2    1    2    0    0 -0.23346260724E+01  0.13599495036E+02  0.76285494042E+01  0.88824130031E+02  0.87413583416E+02 0.  0.
         11    1    3    3    0    0 -0.69016262714E+01 -0.20787558226E+02  0.37247579860E+02  0.43210383331E+02  0.00000000000E+00 0. -1.
        -11    1    3    3    0    0  0.45670001990E+01  0.34387053262E+02 -0.29619030456E+02  0.45613746700E+02  0.00000000000E+00 0.  1.
         22    1    1    2    0    0  0.23346260724E+01 -0.13599495036E+02  0.30227745724E+02  0.33228201211E+02  0.00000000000E+00 0. -1.
<mgrwt>
<rscale>  0 0.55609623E+02</rscale>
<asrwt>0</asrwt>
<pdfrwt beam="1">  1        3 0.12300664E-01 0.88495940E+02</pdfrwt>
<pdfrwt beam="2">  1       -3 0.64766181E-02 0.88495940E+02</pdfrwt>
<totfact> 0.15941916E+04</totfact>
</mgrwt>
</event>
<event>
 6    1  0.1828142E-002  0.9158193E+02  0.7546771E-02  0.1404210E+00
          2   -1    0    0  501    0  0.00000000000E+00  0.00000000000E+00  0.42508502901E+02  0.42508502901E+02  0.00000000000E+00 0. -1.
         -2   -1    0    0    0  501 -0.00000000000E+00 -0.00000000000E+00 -0.67672257924E+02  0.67672257924E+02  0.00000000000E+00 0.  1.
         23    2    1    2    0    0  0.14757912051E+02  0.38570168405E+01 -0.24973781788E+02  0.94925970205E+02  0.90302699270E+02 0.  0.
         11    1    3    3    0    0 -0.33430586639E+02 -0.18680775779E+02 -0.84101963429E+01  0.39208505573E+02  0.00000000000E+00 0. -1.
        -11    1    3    3    0    0  0.48188498691E+02  0.22537792619E+02 -0.16563585446E+02  0.55717464632E+02  0.00000000000E+00 0.  1.
         22    1    1    2    0    0 -0.14757912051E+02 -0.38570168405E+01 -0.18997323491E+00  0.15254790620E+02  0.00000000000E+00 0. -1.
<mgrwt>
<rscale>  0 0.58506011E+02</rscale>
<asrwt>0</asrwt>
<pdfrwt beam="1">  1        2 0.65397698E-02 0.91581931E+02</pdfrwt>
<pdfrwt beam="2">  1       -2 0.10411116E-01 0.91581931E+02</pdfrwt>
<totfact> 0.58767467E+04</totfact>
</mgrwt>
</event>
<event>
 6    1  0.1828142E-002  0.9161329E+02  0.7546771E-02  0.1404512E+00
          2   -1    0    0  501    0  0.00000000000E+00  0.00000000000E+00  0.15441851629E+03  0.15441851629E+03  0.00000000000E+00 0.  1.
         -2   -1    0    0    0  501 -0.00000000000E+00 -0.00000000000E+00 -0.20203894867E+02  0.20203894867E+02  0.00000000000E+00 0. -1.
         23    2    1    2    0    0  0.58622481441E+01  0.13986888980E+02  0.92294578334E+02  0.13004339110E+03  0.90349296414E+02 0.  0.
         11    1    3    3    0    0  0.52533216383E+01  0.92691376932E+01  0.11060917263E+03  0.11112112028E+03  0.00000000000E+00 0.  1.
        -11    1    3    3    0    0  0.60892650579E+00  0.47177512864E+01 -0.18314594299E+02  0.18922270821E+02  0.00000000000E+00 0. -1.
         22    1    1    2    0    0 -0.58622481441E+01 -0.13986888980E+02  0.41920043085E+02  0.44579020053E+02  0.00000000000E+00 0. -1.
<mgrwt>
<rscale>  0 0.58436554E+02</rscale>
<asrwt>0</asrwt>
<pdfrwt beam="1">  1        2 0.23756694E-01 0.91613287E+02</pdfrwt>
<pdfrwt beam="2">  1       -2 0.31082916E-02 0.91613287E+02</pdfrwt>
<totfact> 0.78515513E+04</totfact>
</mgrwt>
</event>
<event>
 6    1  0.1828142E-002  0.9390249E+02  0.7546771E-02  0.1377898E+00
         -2   -1    0    0    0  501 -0.00000000000E+00  0.00000000000E+00  0.31722237670E+03  0.31722237670E+03  0.00000000000E+00 0.  1.
          2   -1    0    0  501    0  0.00000000000E+00 -0.00000000000E+00 -0.10551623167E+02  0.10551623167E+02  0.00000000000E+00 0. -1.
         23    2    1    2    0    0 -0.36791650710E+01 -0.21268888729E+02  0.24104638410E+03  0.25869100813E+03  0.91388054572E+02 0.  0.
         13    1    3    3    0    0  0.20072152541E+02 -0.19669771199E+02  0.15899381083E+02  0.32289031039E+02  0.00000000000E+00 0. -1.
        -13    1    3    3    0    0 -0.23751317612E+02 -0.15991175299E+01  0.22514700302E+03  0.22640197709E+03  0.00000000000E+00 0.  1.
         22    1    1    2    0    0  0.36791650710E+01  0.21268888729E+02  0.65624369436E+02  0.69082991736E+02  0.00000000000E+00 0. -1.
<mgrwt>
<rscale>  0 0.65019654E+02</rscale>
<asrwt>0</asrwt>
<pdfrwt beam="1">  1        2 0.16233269E-02 0.93902494E+02</pdfrwt>
<pdfrwt beam="2">  1       -2 0.48803435E-01 0.93902494E+02</pdfrwt>
<totfact> 0.25900541E+04</totfact>
</mgrwt>
</event>
<event>
 6    1  0.1828142E-002  0.9495692E+02  0.7546771E-02  0.1335465E+00
          2   -1    0    0  501    0  0.00000000000E+00  0.00000000000E+00  0.41889775849E+03  0.41889775849E+03  0.00000000000E+00 0. -1.
         -2   -1    0    0    0  501 -0.00000000000E+00 -0.00000000000E+00 -0.11353082880E+02  0.11353082880E+02  0.00000000000E+00 0.  1.
         23    2    1    2    0    0 -0.72494363426E+01  0.42131914717E+02  0.29193043964E+03  0.30698566330E+03  0.84788933944E+02 0.  0.
         11    1    3    3    0    0  0.16813022498E+02 -0.14257806486E+02  0.26038424176E+02  0.34116891782E+02  0.00000000000E+00 0.  1.
        -11    1    3    3    0    0 -0.24062458841E+02  0.56389721204E+02  0.26589201546E+03  0.27286877152E+03  0.00000000000E+00 0. -1.
         22    1    1    2    0    0  0.72494363426E+01 -0.42131914717E+02  0.11561423597E+03  0.12326517806E+03  0.00000000000E+00 0.  1.
<mgrwt>
<rscale>  0 0.77782457E+02</rscale>
<asrwt>0</asrwt>
<pdfrwt beam="1">  1        2 0.64445797E-01 0.94956916E+02</pdfrwt>
<pdfrwt beam="2">  1       -2 0.17466285E-02 0.94956916E+02</pdfrwt>
<totfact> 0.62989344E+04</totfact>
</mgrwt>
</event>
<event>
 6    1  0.1828142E-002  0.9515988E+02  0.7546771E-02  0.1357012E+00
         -2   -1    0    0    0  501 -0.00000000000E+00  0.00000000000E+00  0.20511332978E+03  0.20511332978E+03  0.00000000000E+00 0.  1.
          2   -1    0    0  501    0  0.00000000000E+00 -0.00000000000E+00 -0.19493509528E+02  0.19493509528E+02  0.00000000000E+00 0. -1.
         23    2    1    2    0    0  0.49626517639E+01 -0.28924667095E+02  0.15717114760E+03  0.18373397233E+03  0.90521481828E+02 0.  0.
         11    1    3    3    0    0 -0.21662322120E+01 -0.53586999731E+02  0.49291052605E+02  0.72841382257E+02  0.00000000000E+00 0. -1.
        -11    1    3    3    0    0  0.71288839759E+01  0.24662332636E+02  0.10788009499E+03  0.11089259008E+03  0.00000000000E+00 0.  1.
         22    1    1    2    0    0 -0.49626517639E+01  0.28924667095E+02  0.28448672651E+02  0.40872866975E+02  0.00000000000E+00 0.  1.
<mgrwt>
<rscale>  0 0.70914080E+02</rscale>
<asrwt>0</asrwt>
<pdfrwt beam="1">  1        2 0.29990016E-02 0.95159881E+02</pdfrwt>
<pdfrwt beam="2">  1       -2 0.31555895E-01 0.95159881E+02</pdfrwt>
<totfact> 0.25716303E+04</totfact>
</mgrwt>
</event>
<event>
 6    1  0.1828142E-002  0.1214735E+03  0.7546771E-02  0.1262018E+00
          2   -1    0    0  501    0  0.00000000000E+00  0.00000000000E+00  0.78940105525E+03  0.78940105525E+03  0.00000000000E+00 0. -1.
         -2   -1    0    0    0  501 -0.00000000000E+00 -0.00000000000E+00 -0.14181886931E+02  0.14181886931E+02  0.00000000000E+00 0.  1.
         23    2    1    2    0    0  0.63484165696E+02 -0.47680045319E+02  0.33688414261E+03  0.35811552387E+03  0.91935721439E+02 0.  0.
         11    1    3    3    0    0  0.63562354094E+01 -0.32696299699E+02  0.27642513287E+02  0.43284619478E+02  0.00000000000E+00 0. -1.
        -11    1    3    3    0    0  0.57127930286E+02 -0.14983745620E+02  0.30924162933E+03  0.31483090439E+03  0.00000000000E+00 0.  1.
         22    1    1    2    0    0 -0.63484165696E+02  0.47680045319E+02  0.43833502570E+03  0.44546741831E+03  0.00000000000E+00 0. -1.
<mgrwt>
<rscale>  0 0.10922194E+03</rscale>
<asrwt>0</asrwt>
<pdfrwt beam="1">  1        2 0.12144628E+00 0.12147347E+03</pdfrwt>
<pdfrwt beam="2">  1       -2 0.21818294E-02 0.12147347E+03</pdfrwt>
<totfact> 0.23000751E+04</totfact>
</mgrwt>
</event>
<event>
 6    1  0.1828142E-002  0.9694876E+02  0.7546771E-02  0.1351371E+00
          2   -1    0    0  501    0  0.00000000000E+00  0.00000000000E+00  0.11466487109E+02  0.11466487109E+02  0.00000000000E+00 0. -1.
         -2   -1    0    0    0  501 -0.00000000000E+00 -0.00000000000E+00 -0.38594616040E+03  0.38594616040E+03  0.00000000000E+00 0.  1.
         23    2    1    2    0    0 -0.12208816883E+01  0.30513634061E+02 -0.32605429333E+03  0.34016240873E+03  0.92013529981E+02 0.  0.
         13    1    3    3    0    0 -0.22449716752E+02 -0.23635043449E+02 -0.18046680877E+03  0.18338722455E+03  0.00000000000E+00 0. -1.
        -13    1    3    3    0    0  0.21228835064E+02  0.54148677510E+02 -0.14558748456E+03  0.15677518418E+03  0.00000000000E+00 0.  1.
         22    1    1    2    0    0  0.12208816883E+01 -0.30513634061E+02 -0.48425379961E+02  0.57250238778E+02  0.00000000000E+00 0. -1.
<mgrwt>
<rscale>  0 0.72630162E+02</rscale>
<asrwt>0</asrwt>
<pdfrwt beam="1">  1        2 0.17640751E-02 0.96948760E+02</pdfrwt>
<pdfrwt beam="2">  1       -2 0.59376326E-01 0.96948760E+02</pdfrwt>
<totfact> 0.15714403E+04</totfact>
</mgrwt>
</event>
<event>
 6    1  0.1828142E-002  0.9499327E+02  0.7546771E-02  0.1405866E+00
          1   -1    0    0  501    0  0.00000000000E+00  0.00000000000E+00  0.44829885492E+03  0.44829885492E+03  0.00000000000E+00 0. -1.
         -1   -1    0    0    0  501 -0.00000000000E+00 -0.00000000000E+00 -0.65734400180E+01  0.65734400180E+01  0.00000000000E+00 0.  1.
         23    2    1    2    0    0 -0.47529669700E+01 -0.12440399296E+02  0.37626657880E+03  0.38807249364E+03  0.94055131536E+02 0.  0.
         11    1    3    3    0    0  0.57279608521E+01 -0.17093512926E+02  0.81619156211E+01  0.19789254314E+02  0.00000000000E+00 0.  1.
        -11    1    3    3    0    0 -0.10480927822E+02  0.46531136305E+01  0.36810466318E+03  0.36828323933E+03  0.00000000000E+00 0. -1.
         22    1    1    2    0    0  0.47529669700E+01  0.12440399296E+02  0.65458836098E+02  0.66799801295E+02  0.00000000000E+00 0.  1.
<mgrwt>
<rscale>  0 0.58126588E+02</rscale>
<asrwt>0</asrwt>
<pdfrwt beam="1">  1        1 0.68969031E-01 0.94993273E+02</pdfrwt>
<pdfrwt beam="2">  1       -1 0.10112988E-02 0.94993273E+02</pdfrwt>
<totfact> 0.84461725E+04</totfact>
</mgrwt>
</event>
<event>
 6    1  0.1828142E-002  0.9278588E+02  0.7546771E-02  0.1416337E+00
          2   -1    0    0  501    0  0.00000000000E+00  0.00000000000E+00  0.62134227668E+02  0.62134227668E+02  0.00000000000E+00 0. -1.
         -2   -1    0    0    0  501 -0.00000000000E+00 -0.00000000000E+00 -0.47798256759E+02  0.47798256759E+02  0.00000000000E+00 0.  1.
         23    2    1    2    0    0 -0.30389544922E+01 -0.11752868428E+02  0.22656234100E+01  0.92813534417E+02  0.91988336004E+02 0.  0.
         13    1    3    3    0    0 -0.14428235700E+02  0.34779683846E+02 -0.16827542266E+02  0.41242776005E+02  0.00000000000E+00 0.  1.
        -13    1    3    3    0    0  0.11389281208E+02 -0.46532552275E+02  0.19093165676E+02  0.51570758412E+02  0.00000000000E+00 0. -1.
         22    1    1    2    0    0  0.30389544922E+01  0.11752868428E+02  0.12070347499E+02  0.17118950010E+02  0.00000000000E+00 0. -1.
<mgrwt>
<rscale>  0 0.55803413E+02</rscale>
<asrwt>0</asrwt>
<pdfrwt beam="1">  1        2 0.95591120E-02 0.92785878E+02</pdfrwt>
<pdfrwt beam="2">  1       -2 0.73535779E-02 0.92785878E+02</pdfrwt>
<totfact> 0.62769042E+04</totfact>
</mgrwt>
</event>
<event>
 6    1  0.1828142E-002  0.9712254E+02  0.7546771E-02  0.1344591E+00
          2   -1    0    0  501    0  0.00000000000E+00  0.00000000000E+00  0.25492616653E+02  0.25492616653E+02  0.00000000000E+00 0. -1.
         -2   -1    0    0    0  501 -0.00000000000E+00 -0.00000000000E+00 -0.17023748217E+03  0.17023748217E+03  0.00000000000E+00 0.  1.
         23    2    1    2    0    0 -0.10053718574E+02  0.32596680342E+02 -0.99219910451E+02  0.13884299694E+03  0.90934956666E+02 0.  0.
         11    1    3    3    0    0 -0.20940677797E+02  0.18840356199E+02 -0.11304836165E+03  0.11650494874E+03  0.00000000000E+00 0.  1.
        -11    1    3    3    0    0  0.10886959223E+02  0.13756324143E+02  0.13828451201E+02  0.22338048206E+02  0.00000000000E+00 0. -1.
         22    1    1    2    0    0  0.10053718574E+02 -0.32596680342E+02 -0.45524955070E+02  0.56887101882E+02  0.00000000000E+00 0. -1.
<mgrwt>
<rscale>  0 0.74768118E+02</rscale>
<asrwt>0</asrwt>
<pdfrwt beam="1">  1        2 0.39219412E-02 0.97122537E+02</pdfrwt>
<pdfrwt beam="2">  1       -2 0.26190381E-01 0.97122537E+02</pdfrwt>
<totfact> 0.25164196E+04</totfact>
</mgrwt>
</event>
<event>
 6    1  0.1828142E-002  0.9882739E+02  0.7546771E-02  0.1341805E+00
          2   -1    0    0  501    0  0.00000000000E+00  0.00000000000E+00  0.98031285347E+02  0.98031285347E+02  0.00000000000E+00 0. -1.
         -2   -1    0    0    0  501 -0.00000000000E+00 -0.00000000000E+00 -0.84894014654E+02  0.84894014654E+02  0.00000000000E+00 0.  1.
         23    2    1    2    0    0  0.23157523432E+02 -0.24852685841E+02 -0.50355343164E+02  0.11091669705E+03  0.92805852258E+02 0.  0.
         11    1    3    3    0    0  0.18817379213E+02  0.59963062742E+01  0.23537353547E+02  0.30725501808E+02  0.00000000000E+00 0. -1.
        -11    1    3    3    0    0  0.43401442190E+01 -0.30848992116E+02 -0.73892696711E+02  0.80191195238E+02  0.00000000000E+00 0.  1.
         22    1    1    2    0    0 -0.23157523432E+02  0.24852685841E+02  0.63492613857E+02  0.72008602954E+02  0.00000000000E+00 0. -1.
<mgrwt>
<rscale>  0 0.75671141E+02</rscale>
<asrwt>0</asrwt>
<pdfrwt beam="1">  1        2 0.15081736E-01 0.98827390E+02</pdfrwt>
<pdfrwt beam="2">  1       -2 0.13060618E-01 0.98827390E+02</pdfrwt>
<totfact> 0.15047107E+04</totfact>
</mgrwt>
</event>
<event>
 6    1  0.1828142E-002  0.9576390E+02  0.7546771E-02  0.1363469E+00
         -2   -1    0    0    0  501 -0.00000000000E+00  0.00000000000E+00  0.86773782385E+01  0.86773782385E+01  0.00000000000E+00 0.  1.
          2   -1    0    0  501    0  0.00000000000E+00 -0.00000000000E+00 -0.42727338540E+03  0.42727338540E+03  0.00000000000E+00 0. -1.
         23    2    1    2    0    0  0.10592908074E+01  0.25813495219E+02 -0.31957013418E+03  0.33361024306E+03  0.92213149726E+02 0.  0.
         11    1    3    3    0    0 -0.44675055303E+01  0.26955589621E+02 -0.32478135690E+03  0.32592866122E+03  0.00000000000E+00 0. -1.
        -11    1    3    3    0    0  0.55267963377E+01 -0.11420944018E+01  0.52112227156E+01  0.76815818406E+01  0.00000000000E+00 0.  1.
         22    1    1    2    0    0 -0.10592908074E+01 -0.25813495219E+02 -0.99025872976E+02  0.10234052057E+03  0.00000000000E+00 0.  1.
<mgrwt>
<rscale>  0 0.69016733E+02</rscale>
<asrwt>0</asrwt>
<pdfrwt beam="1">  1        2 0.65734360E-01 0.95763895E+02</pdfrwt>
<pdfrwt beam="2">  1       -2 0.13349814E-02 0.95763895E+02</pdfrwt>
<totfact> 0.90669086E+04</totfact>
</mgrwt>
</event>
<event>
 6    1  0.1828142E-002  0.9613435E+02  0.7546771E-02  0.1321078E+00
         -1   -1    0    0    0  501 -0.00000000000E+00  0.00000000000E+00  0.17916185172E+03  0.17916185172E+03  0.00000000000E+00 0.  1.
          1   -1    0    0  501    0  0.00000000000E+00 -0.00000000000E+00 -0.34932052526E+02  0.34932052526E+02  0.00000000000E+00 0. -1.
         23    2    1    2    0    0 -0.38332798717E+02 -0.36747801105E+02  0.56395068939E+02  0.11145500235E+03  0.80137440717E+02 0.  0.
         13    1    3    3    0    0 -0.47789681785E+02  0.89884175174E+01  0.35943677683E+02  0.60469771787E+02  0.00000000000E+00 0. -1.
        -13    1    3    3    0    0  0.94568830682E+01 -0.45736218622E+02  0.20451391256E+02  0.50985230563E+02  0.00000000000E+00 0.  1.
         22    1    1    2    0    0  0.38332798717E+02  0.36747801105E+02  0.87834730258E+02  0.10263890190E+03  0.00000000000E+00 0.  1.
<mgrwt>
<rscale>  0 0.82877440E+02</rscale>
<asrwt>0</asrwt>
<pdfrwt beam="1">  1        1 0.53741620E-02 0.96134353E+02</pdfrwt>
<pdfrwt beam="2">  1       -1 0.27563361E-01 0.96134353E+02</pdfrwt>
<totfact> 0.15951668E+04</totfact>
</mgrwt>
</event>
<event>
 6    1  0.1828142E-002  0.9795603E+02  0.7546771E-02  0.1383809E+00
          1   -1    0    0  501    0  0.00000000000E+00  0.00000000000E+00  0.11477410856E+03  0.11477410856E+03  0.00000000000E+00 0. -1.
         -1   -1    0    0    0  501 -0.00000000000E+00 -0.00000000000E+00 -0.29863456129E+02  0.29863456129E+02  0.00000000000E+00 0.  1.
         23    2    1    2    0    0 -0.13406024729E+02 -0.10885559768E+02  0.61927291071E+02  0.11588948980E+03  0.96421820954E+02 0.  0.
         11    1    3    3    0    0 -0.40757392103E+02 -0.16198586942E+02 -0.42716385743E+01  0.44065929312E+02  0.00000000000E+00 0.  1.
        -11    1    3    3    0    0  0.27351367374E+02  0.53130271740E+01  0.66198929646E+02  0.71823560488E+02  0.00000000000E+00 0. -1.
         22    1    1    2    0    0  0.13406024729E+02  0.10885559768E+02  0.22983361363E+02  0.28748074893E+02  0.00000000000E+00 0. -1.
<mgrwt>
<rscale>  0 0.63473132E+02</rscale>
<asrwt>0</asrwt>
<pdfrwt beam="1">  1        1 0.17657555E-01 0.97956033E+02</pdfrwt>
<pdfrwt beam="2">  1       -1 0.45943779E-02 0.97956033E+02</pdfrwt>
<totfact> 0.52324290E+04</totfact>
</mgrwt>
</event>
<event>
 6    1  0.1828142E-002  0.9444400E+02  0.7546771E-02  0.1409082E+00
          2   -1    0    0  501    0  0.00000000000E+00  0.00000000000E+00  0.59824288875E+02  0.59824288875E+02  0.00000000000E+00 0. -1.
         -2   -1    0    0    0  501 -0.00000000000E+00 -0.00000000000E+00 -0.51223086607E+02  0.51223086607E+02  0.00000000000E+00 0.  1.
         23    2    1    2    0    0  0.12871465347E+02 -0.60088656161E+00 -0.18410675932E+01  0.94461939561E+02  0.93560850845E+02 0.  0.
         13    1    3    3    0    0 -0.21315496562E+02  0.84287603685E+01 -0.37687570968E+02  0.44110626843E+02  0.00000000000E+00 0.  1.
        -13    1    3    3    0    0  0.34186961909E+02 -0.90296469302E+01  0.35846503375E+02  0.50351312718E+02  0.00000000000E+00 0. -1.
         22    1    1    2    0    0 -0.12871465347E+02  0.60088656161E+00  0.10442269861E+02  0.16585435921E+02  0.00000000000E+00 0.  1.
<mgrwt>
<rscale>  0 0.57399214E+02</rscale>
<asrwt>0</asrwt>
<pdfrwt beam="1">  1        2 0.92037368E-02 0.94443997E+02</pdfrwt>
<pdfrwt beam="2">  1       -2 0.78804749E-02 0.94443997E+02</pdfrwt>
<totfact> 0.59309437E+04</totfact>
</mgrwt>
</event>
<event>
 6    1  0.1828142E-002  0.6011398E+02  0.7546771E-02  0.1460976E+00
         -1   -1    0    0    0  501 -0.00000000000E+00  0.00000000000E+00  0.66817016660E+03  0.66817016660E+03  0.00000000000E+00 0. -1.
          1   -1    0    0  501    0  0.00000000000E+00 -0.00000000000E+00 -0.32141230766E+01  0.32141230766E+01  0.00000000000E+00 0.  1.
         23    2    1    2    0    0  0.14345314035E+01  0.22829601716E+02  0.58896976385E+03  0.59202962193E+03  0.55591743236E+02 0.  0.
         11    1    3    3    0    0 -0.66030865968E+01 -0.17093796551E+02  0.23816908518E+03  0.23887300343E+03  0.00000000000E+00 0. -1.
        -11    1    3    3    0    0  0.80376180003E+01  0.39923398267E+02  0.35080067867E+03  0.35315661849E+03  0.00000000000E+00 0.  1.
         22    1    1    2    0    0 -0.14345314035E+01 -0.22829601716E+02  0.75986279674E+02  0.79354667749E+02  0.00000000000E+00 0. -1.
<mgrwt>
<rscale>  0 0.47213926E+02</rscale>
<asrwt>0</asrwt>
<pdfrwt beam="1">  1        1 0.49448101E-03 0.60113979E+02</pdfrwt>
<pdfrwt beam="2">  1       -1 0.10279530E+00 0.60113979E+02</pdfrwt>
<totfact> 0.34324514E+04</totfact>
</mgrwt>
</event>
<event>
 6    1  0.1828142E-002  0.1011980E+03  0.7546771E-02  0.1325375E+00
          2   -1    0    0  501    0  0.00000000000E+00  0.00000000000E+00  0.17073845431E+03  0.17073845431E+03  0.00000000000E+00 0. -1.
         -2   -1    0    0    0  501 -0.00000000000E+00 -0.00000000000E+00 -0.30319011215E+02  0.30319011215E+02  0.00000000000E+00 0.  1.
         23    2    1    2    0    0 -0.14224108864E+02  0.39704388020E+02  0.10672072438E+03  0.14707258483E+03  0.91990589164E+02 0.  0.
         11    1    3    3    0    0 -0.30747591729E+02  0.55870071254E+02  0.10628888518E+03  0.12395243592E+03  0.00000000000E+00 0. -1.
        -11    1    3    3    0    0  0.16523482865E+02 -0.16165683234E+02  0.43183920650E+00  0.23120148907E+02  0.00000000000E+00 0.  1.
         22    1    1    2    0    0  0.14224108864E+02 -0.39704388020E+02  0.33698718715E+02  0.53984880698E+02  0.00000000000E+00 0.  1.
<mgrwt>
<rscale>  0 0.81309948E+02</rscale>
<asrwt>0</asrwt>
<pdfrwt beam="1">  1        2 0.26267454E-01 0.10119799E+03</pdfrwt>
<pdfrwt beam="2">  1       -2 0.46644634E-02 0.10119799E+03</pdfrwt>
<totfact> 0.39266409E+04</totfact>
</mgrwt>
</event>
<event>
 6    1  0.1828142E-002  0.9477687E+02  0.7546771E-02  0.1379333E+00
         -2   -1    0    0    0  501 -0.00000000000E+00  0.00000000000E+00  0.89138185629E+02  0.89138185629E+02  0.00000000000E+00 0. -1.
          2   -1    0    0  501    0  0.00000000000E+00 -0.00000000000E+00 -0.73816197791E+02  0.73816197791E+02  0.00000000000E+00 0.  1.
         23    2    1    2    0    0 -0.25854015690E+01 -0.20342375409E+02  0.61119777710E+02  0.11277536295E+03  0.92531933526E+02 0.  0.
         11    1    3    3    0    0  0.82426948058E+01  0.24327729513E+01 -0.23212969042E+02  0.24752824761E+02  0.00000000000E+00 0.  1.
        -11    1    3    3    0    0 -0.10828096375E+02 -0.22775148360E+02  0.84332746752E+02  0.88022538186E+02  0.00000000000E+00 0. -1.
         22    1    1    2    0    0  0.25854015690E+01  0.20342375409E+02 -0.45797789872E+02  0.50179020474E+02  0.00000000000E+00 0.  1.
<mgrwt>
<rscale>  0 0.64639364E+02</rscale>
<asrwt>0</asrwt>
<pdfrwt beam="1">  1        2 0.11356338E-01 0.94776871E+02</pdfrwt>
<pdfrwt beam="2">  1       -2 0.13713567E-01 0.94776871E+02</pdfrwt>
<totfact> 0.19351499E+04</totfact>
</mgrwt>
</event>
<event>
 6    1  0.1828142E-002  0.9483591E+02  0.7546771E-02  0.1376498E+00
         -2   -1    0    0    0  501 -0.00000000000E+00  0.00000000000E+00  0.46682729227E+02  0.46682729227E+02  0.00000000000E+00 0.  1.
          2   -1    0    0  501    0  0.00000000000E+00 -0.00000000000E+00 -0.85297064257E+02  0.85297064257E+02  0.00000000000E+00 0. -1.
         23    2    1    2    0    0 -0.50550528087E+01 -0.20835063929E+02 -0.87806914408E+01  0.95241533622E+02  0.92380710848E+02 0.  0.
         11    1    3    3    0    0 -0.78484464855E+01 -0.53485570863E+02  0.13370562674E+02  0.55687308689E+02  0.00000000000E+00 0.  1.
        -11    1    3    3    0    0  0.27933936768E+01  0.32650506933E+02 -0.22151254115E+02  0.39554224934E+02  0.00000000000E+00 0. -1.
         22    1    1    2    0    0  0.50550528087E+01  0.20835063929E+02 -0.29833643589E+02  0.36738259861E+02  0.00000000000E+00 0. -1.
<mgrwt>
<rscale>  0 0.65393324E+02</rscale>
<asrwt>0</asrwt>
<pdfrwt beam="1">  1        2 0.13122625E-01 0.94835907E+02</pdfrwt>
<pdfrwt beam="2">  1       -2 0.71819584E-02 0.94835907E+02</pdfrwt>
<totfact> 0.44647322E+04</totfact>
</mgrwt>
</event>
<event>
 6    1  0.1828142E-002  0.9321828E+02  0.7546771E-02  0.1387339E+00
         -2   -1    0    0    0  501 -0.00000000000E+00  0.00000000000E+00  0.13121043871E+03  0.13121043871E+03  0.00000000000E+00 0.  1.
          2   -1    0    0  501    0  0.00000000000E+00 -0.00000000000E+00 -0.26698977377E+02  0.26698977377E+02  0.00000000000E+00 0. -1.
         23    2    1    2    0    0  0.18302311783E+02 -0.48177294079E+01  0.10300575202E+03  0.13892383488E+03  0.91276841610E+02 0.  0.
         13    1    3    3    0    0  0.53846762556E+02  0.96000083483E+01  0.56444489716E+02  0.78597801606E+02  0.00000000000E+00 0.  1.
        -13    1    3    3    0    0 -0.35544450773E+02 -0.14417737756E+02  0.46561262307E+02  0.60326033272E+02  0.00000000000E+00 0. -1.
         22    1    1    2    0    0 -0.18302311783E+02  0.48177294079E+01  0.15057093092E+01  0.18985581207E+02  0.00000000000E+00 0. -1.
<mgrwt>
<rscale>  0 0.62573327E+02</rscale>
<asrwt>0</asrwt>
<pdfrwt beam="1">  1        2 0.41075351E-02 0.93218276E+02</pdfrwt>
<pdfrwt beam="2">  1       -2 0.20186221E-01 0.93218276E+02</pdfrwt>
<totfact> 0.36785609E+04</totfact>
</mgrwt>
</event>
<event>
 6    1  0.1828142E-002  0.9328374E+02  0.7546771E-02  0.1396882E+00
          2   -1    0    0  501    0  0.00000000000E+00  0.00000000000E+00  0.10178226573E+04  0.10178226573E+04  0.00000000000E+00 0. -1.
         -2   -1    0    0    0  501 -0.00000000000E+00 -0.00000000000E+00 -0.39118581855E+01  0.39118581855E+01  0.00000000000E+00 0.  1.
         23    2    1    2    0    0  0.16159144973E+02 -0.12647579451E+01  0.97672805208E+03  0.98117253506E+03  0.91864782435E+02 0.  0.
         13    1    3    3    0    0 -0.68624891128E+00  0.43067630745E+02  0.34739668406E+03  0.35005677803E+03  0.00000000000E+00 0.  1.
        -13    1    3    3    0    0  0.16845393884E+02 -0.44332388690E+02  0.62933136802E+03  0.63111575702E+03  0.00000000000E+00 0. -1.
         22    1    1    2    0    0 -0.16159144973E+02  0.12647579451E+01  0.37182746989E+02  0.40561980383E+02  0.00000000000E+00 0.  1.
<mgrwt>
<rscale>  0 0.60226912E+02</rscale>
<asrwt>0</asrwt>
<pdfrwt beam="1">  1        2 0.15658789E+00 0.93283738E+02</pdfrwt>
<pdfrwt beam="2">  1       -2 0.60182515E-03 0.93283738E+02</pdfrwt>
<totfact> 0.10104952E+05</totfact>
</mgrwt>
</event>
<event>
 6    1  0.1828142E-002  0.9541715E+02  0.7546771E-02  0.1419401E+00
         -2   -1    0    0    0  501 -0.00000000000E+00  0.00000000000E+00  0.69226807975E+01  0.69226807975E+01  0.00000000000E+00 0.  1.
          2   -1    0    0  501    0  0.00000000000E+00 -0.00000000000E+00 -0.41284882103E+03  0.41284882103E+03  0.00000000000E+00 0. -1.
         23    2    1    2    0    0 -0.40348890968E+01  0.98530938216E+01 -0.37874724705E+03  0.39058150315E+03  0.94821251158E+02 0.  0.
         11    1    3    3    0    0  0.77415434170E+00  0.16459155949E+02 -0.38157826795E+03  0.38193386561E+03  0.00000000000E+00 0. -1.
        -11    1    3    3    0    0 -0.48090434385E+01 -0.66060621271E+01  0.28310209054E+01  0.86476375379E+01  0.00000000000E+00 0.  1.
         22    1    1    2    0    0  0.40348890968E+01 -0.98530938216E+01 -0.27178893186E+02  0.29189998676E+02  0.00000000000E+00 0.  1.
<mgrwt>
<rscale>  0 0.55147921E+02</rscale>
<asrwt>0</asrwt>
<pdfrwt beam="1">  1        2 0.63515211E-01 0.95417155E+02</pdfrwt>
<pdfrwt beam="2">  1       -2 0.10650277E-02 0.95417155E+02</pdfrwt>
<totfact> 0.12958124E+05</totfact>
</mgrwt>
</event>
<event>
 6    1  0.1828142E-002  0.9327299E+02  0.7546771E-02  0.1376453E+00
          1   -1    0    0  501    0  0.00000000000E+00  0.00000000000E+00  0.18507546202E+02  0.18507546202E+02  0.00000000000E+00 0. -1.
         -1   -1    0    0    0  501 -0.00000000000E+00 -0.00000000000E+00 -0.23423384825E+03  0.23423384825E+03  0.00000000000E+00 0.  1.
         23    2    1    2    0    0 -0.18413813732E+02  0.13020497245E+02 -0.20953111649E+03  0.22935374368E+03  0.90505519585E+02 0.  0.
         11    1    3    3    0    0  0.40965433204E+01  0.44574169460E+02 -0.59860357387E+02  0.74745572689E+02  0.00000000000E+00 0. -1.
        -11    1    3    3    0    0 -0.22510357052E+02 -0.31553672214E+02 -0.14967075911E+03  0.15460817099E+03  0.00000000000E+00 0.  1.
         22    1    1    2    0    0  0.18413813732E+02 -0.13020497245E+02 -0.61951855531E+01  0.23387650774E+02  0.00000000000E+00 0. -1.
<mgrwt>
<rscale>  0 0.65405486E+02</rscale>
<asrwt>0</asrwt>
<pdfrwt beam="1">  1        1 0.28473146E-02 0.93272992E+02</pdfrwt>
<pdfrwt beam="2">  1       -1 0.36035979E-01 0.93272992E+02</pdfrwt>
<totfact> 0.24094405E+04</totfact>
</mgrwt>
</event>
<event>
 6    1  0.1828142E-002  0.9820513E+02  0.7546771E-02  0.1369660E+00
          2   -1    0    0  501    0  0.00000000000E+00  0.00000000000E+00  0.29015759493E+03  0.29015759493E+03  0.00000000000E+00 0. -1.
         -2   -1    0    0    0  501 -0.00000000000E+00 -0.00000000000E+00 -0.12391900503E+02  0.12391900503E+02  0.00000000000E+00 0.  1.
         23    2    1    2    0    0 -0.10961253721E+02 -0.18624505033E+02  0.22249713418E+03  0.24320612998E+03  0.95797837521E+02 0.  0.
         13    1    3    3    0    0 -0.23990565026E+01  0.35888360276E+02  0.46662575088E+02  0.58916260822E+02  0.00000000000E+00 0.  1.
        -13    1    3    3    0    0 -0.85621972183E+01 -0.54512865309E+02  0.17583455909E+03  0.18428986916E+03  0.00000000000E+00 0. -1.
         22    1    1    2    0    0  0.10961253721E+02  0.18624505033E+02  0.55268560252E+02  0.59343365452E+02  0.00000000000E+00 0. -1.
<mgrwt>
<rscale>  0 0.67261679E+02</rscale>
<asrwt>0</asrwt>
<pdfrwt beam="1">  1        2 0.44639625E-01 0.98205127E+02</pdfrwt>
<pdfrwt beam="2">  1       -2 0.19064465E-02 0.98205127E+02</pdfrwt>
<totfact> 0.82069948E+04</totfact>
</mgrwt>
</event>
<event>
 6    1  0.1828142E-002  0.9200849E+02  0.7546771E-02  0.1413879E+00
         -4   -1    0    0    0  501 -0.00000000000E+00  0.00000000000E+00  0.60236751383E+02  0.60236751383E+02  0.00000000000E+00 0.  1.
          4   -1    0    0  501    0  0.00000000000E+00 -0.00000000000E+00 -0.52656025997E+02  0.52656025997E+02  0.00000000000E+00 0. -1.
         23    2    1    2    0    0 -0.61376744308E+01 -0.11383800477E+02  0.20873611981E+02  0.94346543402E+02  0.91095008722E+02 0.  0.
         13    1    3    3    0    0  0.19603917510E+02 -0.26660380831E+01 -0.30425826041E+02  0.36292591959E+02  0.00000000000E+00 0. -1.
        -13    1    3    3    0    0 -0.25741591941E+02 -0.87177623938E+01  0.51299438022E+02  0.58053951443E+02  0.00000000000E+00 0.  1.
         22    1    1    2    0    0  0.61376744308E+01  0.11383800477E+02 -0.13292886595E+02  0.18546233977E+02  0.00000000000E+00 0.  1.
<mgrwt>
<rscale>  0 0.56337242E+02</rscale>
<asrwt>0</asrwt>
<pdfrwt beam="1">  1        4 0.81009271E-02 0.92008492E+02</pdfrwt>
<pdfrwt beam="2">  1       -4 0.92671925E-02 0.92008492E+02</pdfrwt>
<totfact> 0.13539251E+04</totfact>
</mgrwt>
</event>
<event>
 6    1  0.1828142E-002  0.9815932E+02  0.7546771E-02  0.1358082E+00
          1   -1    0    0  501    0  0.00000000000E+00  0.00000000000E+00  0.53649190496E+01  0.53649190496E+01  0.00000000000E+00 0. -1.
         -1   -1    0    0    0  501 -0.00000000000E+00 -0.00000000000E+00 -0.79659733229E+03  0.79659733229E+03  0.00000000000E+00 0.  1.
         23    2    1    2    0    0 -0.32643896217E+01  0.26056520287E+02 -0.70556539344E+03  0.71236070687E+03  0.94581466418E+02 0.  0.
         11    1    3    3    0    0 -0.14814186810E+02 -0.26953584304E+02 -0.45254841320E+03  0.45359235237E+03  0.00000000000E+00 0. -1.
        -11    1    3    3    0    0  0.11549797188E+02  0.53010104591E+02 -0.25301698024E+03  0.25876835451E+03  0.00000000000E+00 0.  1.
         22    1    1    2    0    0  0.32643896217E+01 -0.26056520287E+02 -0.85667019807E+02  0.89601544471E+02  0.00000000000E+00 0. -1.
<mgrwt>
<rscale>  0 0.70594879E+02</rscale>
<asrwt>0</asrwt>
<pdfrwt beam="1">  1        1 0.82537316E-03 0.98159321E+02</pdfrwt>
<pdfrwt beam="2">  1       -1 0.12255329E+00 0.98159321E+02</pdfrwt>
<totfact> 0.12170018E+04</totfact>
</mgrwt>
</event>
<event>
 6    1  0.1828142E-002  0.1040412E+03  0.7546771E-02  0.1384434E+00
          2   -1    0    0  501    0  0.00000000000E+00  0.00000000000E+00  0.41732864859E+02  0.41732864859E+02  0.00000000000E+00 0. -1.
         -2   -1    0    0    0  501 -0.00000000000E+00 -0.00000000000E+00 -0.83848822531E+02  0.83848822531E+02  0.00000000000E+00 0.  1.
         23    2    1    2    0    0  0.12953693253E+02  0.59795363638E+01 -0.37161915066E+02  0.11047885447E+03  0.10305831519E+03 0.  0.
         13    1    3    3    0    0 -0.16123030680E+02  0.43347304040E+02 -0.42525883494E+02  0.62828271127E+02  0.00000000000E+00 0.  1.
        -13    1    3    3    0    0  0.29076723933E+02 -0.37367767676E+02  0.53639684284E+01  0.47650583345E+02  0.00000000000E+00 0. -1.
         22    1    1    2    0    0 -0.12953693253E+02 -0.59795363638E+01 -0.49540426063E+01  0.15102832918E+02  0.00000000000E+00 0. -1.
<mgrwt>
<rscale>  0 0.63312386E+02</rscale>
<asrwt>0</asrwt>
<pdfrwt beam="1">  1        2 0.64204408E-02 0.10404119E+03</pdfrwt>
<pdfrwt beam="2">  1       -2 0.12899819E-01 0.10404119E+03</pdfrwt>
<totfact> 0.43654064E+04</totfact>
</mgrwt>
</event>
<event>
 6    1  0.1828142E-002  0.9196285E+02  0.7546771E-02  0.1427829E+00
          2   -1    0    0  501    0  0.00000000000E+00  0.00000000000E+00  0.22953322214E+03  0.22953322214E+03  0.00000000000E+00 0. -1.
         -2   -1    0    0    0  501 -0.00000000000E+00 -0.00000000000E+00 -0.11821366827E+02  0.11821366827E+02  0.00000000000E+00 0.  1.
         23    2    1    2    0    0  0.72612436078E+01  0.75202467280E+01  0.17880900092E+03  0.20107169124E+03  0.91366768781E+02 0.  0.
         11    1    3    3    0    0 -0.13186160647E+02  0.19991580977E+02  0.17522550927E+03  0.17685450868E+03  0.00000000000E+00 0. -1.
        -11    1    3    3    0    0  0.20447404255E+02 -0.12471334249E+02  0.35834916559E+01  0.24217182560E+02  0.00000000000E+00 0.  1.
         22    1    1    2    0    0 -0.72612436078E+01 -0.75202467280E+01  0.38902854388E+02  0.40282897725E+02  0.00000000000E+00 0. -1.
<mgrwt>
<rscale>  0 0.53398222E+02</rscale>
<asrwt>0</asrwt>
<pdfrwt beam="1">  1        2 0.35312800E-01 0.91962852E+02</pdfrwt>
<pdfrwt beam="2">  1       -2 0.18186720E-02 0.91962852E+02</pdfrwt>
<totfact> 0.11127415E+05</totfact>
</mgrwt>
</event>
<event>
 6    1  0.1828142E-002  0.9719950E+02  0.7546771E-02  0.1413386E+00
          2   -1    0    0  501    0  0.00000000000E+00  0.00000000000E+00  0.44003032528E+03  0.44003032528E+03  0.00000000000E+00 0. -1.
         -2   -1    0    0    0  501 -0.00000000000E+00 -0.00000000000E+00 -0.67480315957E+01  0.67480315957E+01  0.00000000000E+00 0.  1.
         23    2    1    2    0    0  0.88583043439E+01  0.66120189535E+01  0.37092819180E+03  0.38345204029E+03  0.96568915186E+02 0.  0.
         13    1    3    3    0    0  0.31111600959E+02 -0.36935708426E+02  0.18285653637E+03  0.18912612502E+03  0.00000000000E+00 0. -1.
        -13    1    3    3    0    0 -0.22253296615E+02  0.43547727380E+02  0.18807165543E+03  0.19432591527E+03  0.00000000000E+00 0.  1.
         22    1    1    2    0    0 -0.88583043439E+01 -0.66120189535E+01  0.62354101882E+02  0.63326316583E+02  0.00000000000E+00 0.  1.
<mgrwt>
<rscale>  0 0.56445167E+02</rscale>
<asrwt>0</asrwt>
<pdfrwt beam="1">  1        2 0.67696951E-01 0.97199505E+02</pdfrwt>
<pdfrwt beam="2">  1       -2 0.10381590E-02 0.97199505E+02</pdfrwt>
<totfact> 0.12592288E+05</totfact>
</mgrwt>
</event>
<event>
 6    1  0.1828142E-002  0.1467751E+03  0.7546771E-02  0.1213374E+00
          1   -1    0    0  501    0  0.00000000000E+00  0.00000000000E+00  0.10698505104E+03  0.10698505104E+03  0.00000000000E+00 0. -1.
         -1   -1    0    0    0  501 -0.00000000000E+00 -0.00000000000E+00 -0.18281440563E+03  0.18281440563E+03  0.00000000000E+00 0.  1.
         23    2    1    2    0    0  0.12019510556E+03  0.16910460732E+02 -0.82252031223E+02  0.16825079210E+03  0.82523362276E+02 0.  0.
         13    1    3    3    0    0  0.77229977752E+02  0.45576353879E+02 -0.29449753187E+02  0.94387295010E+02  0.00000000000E+00 0. -1.
        -13    1    3    3    0    0  0.42965127803E+02 -0.28665893147E+02 -0.52802278036E+02  0.73863497093E+02  0.00000000000E+00 0.  1.
         22    1    1    2    0    0 -0.12019510556E+03 -0.16910460732E+02  0.64226766345E+01  0.12154866456E+03  0.00000000000E+00 0. -1.
<mgrwt>
<rscale>  0 0.13996681E+03</rscale>
<asrwt>0</asrwt>
<pdfrwt beam="1">  1        1 0.16459239E-01 0.14677511E+03</pdfrwt>
<pdfrwt beam="2">  1       -1 0.28125293E-01 0.14677511E+03</pdfrwt>
<totfact> 0.36305544E+03</totfact>
</mgrwt>
</event>
<event>
 6    1  0.1828142E-002  0.1167112E+03  0.7546771E-02  0.1270769E+00
          2   -1    0    0  501    0  0.00000000000E+00  0.00000000000E+00  0.46977618646E+02  0.46977618646E+02  0.00000000000E+00 0.  1.
         -2   -1    0    0    0  501 -0.00000000000E+00 -0.00000000000E+00 -0.62223885707E+03  0.62223885707E+03  0.00000000000E+00 0. -1.
         23    2    1    2    0    0 -0.57825458325E+02 -0.48549741237E+02 -0.58183648808E+03  0.59342666827E+03  0.88998037842E+02 0.  0.
         11    1    3    3    0    0 -0.19721161896E+02 -0.86390406032E+00 -0.41996729188E+03  0.42043096557E+03  0.00000000000E+00 0. -1.
        -11    1    3    3    0    0 -0.38104296429E+02 -0.47685837177E+02 -0.16186919620E+03  0.17299570270E+03  0.00000000000E+00 0.  1.
         22    1    1    2    0    0  0.57825458325E+02  0.48549741237E+02  0.65752496629E+01  0.75789807447E+02  0.00000000000E+00 0.  1.
<mgrwt>
<rscale>  0 0.10467116E+03</rscale>
<asrwt>0</asrwt>
<pdfrwt beam="1">  1        2 0.72273263E-02 0.11671123E+03</pdfrwt>
<pdfrwt beam="2">  1       -2 0.95729050E-01 0.11671123E+03</pdfrwt>
<totfact> 0.89077692E+02</totfact>
</mgrwt>
</event>
<event>
 6    1  0.1828142E-002  0.9973595E+02  0.7546771E-02  0.1393106E+00
          1   -1    0    0  501    0  0.00000000000E+00  0.00000000000E+00  0.50010288573E+01  0.50010288573E+01  0.00000000000E+00 0. -1.
         -1   -1    0    0    0  501 -0.00000000000E+00 -0.00000000000E+00 -0.76750617239E+03  0.76750617239E+03  0.00000000000E+00 0.  1.
         23    2    1    2    0    0  0.67030200298E+01  0.12388045305E+02 -0.73364505193E+03  0.74039335639E+03  0.98736345011E+02 0.  0.
         11    1    3    3    0    0  0.32769992356E+02 -0.33094256043E+02 -0.30054276048E+03  0.30412999368E+03  0.00000000000E+00 0. -1.
        -11    1    3    3    0    0 -0.26066972326E+02  0.45482301348E+02 -0.43310229145E+03  0.43626336271E+03  0.00000000000E+00 0.  1.
         22    1    1    2    0    0 -0.67030200298E+01 -0.12388045305E+02 -0.28860091606E+02  0.32113844857E+02  0.00000000000E+00 0. -1.
<mgrwt>
<rscale>  0 0.61140630E+02</rscale>
<asrwt>0</asrwt>
<pdfrwt beam="1">  1        1 0.76938881E-03 0.99735951E+02</pdfrwt>
<pdfrwt beam="2">  1       -1 0.11807791E+00 0.99735951E+02</pdfrwt>
<totfact> 0.14663161E+04</totfact>
</mgrwt>
</event>
<event>
 6    1  0.1828142E-002  0.9436295E+02  0.7546771E-02  0.1378572E+00
         -1   -1    0    0    0  501 -0.00000000000E+00  0.00000000000E+00  0.10684875270E+03  0.10684875270E+03  0.00000000000E+00 0.  1.
          1   -1    0    0  501    0  0.00000000000E+00 -0.00000000000E+00 -0.31846945013E+02  0.31846945013E+02  0.00000000000E+00 0. -1.
         23    2    1    2    0    0 -0.15109640244E+02 -0.14637388617E+02  0.68742905068E+02  0.11674738944E+03  0.91988105593E+02 0.  0.
         11    1    3    3    0    0  0.13165495546E+02 -0.22778256983E+02 -0.13377365319E+02  0.29514965137E+02  0.00000000000E+00 0. -1.
        -11    1    3    3    0    0 -0.28275135790E+02  0.81408683656E+01  0.82120270388E+02  0.87232424306E+02  0.00000000000E+00 0.  1.
         22    1    1    2    0    0  0.15109640244E+02  0.14637388617E+02  0.62589026152E+01  0.21948308267E+02  0.00000000000E+00 0. -1.
<mgrwt>
<rscale>  0 0.64840590E+02</rscale>
<asrwt>0</asrwt>
<pdfrwt beam="1">  1        1 0.48995300E-02 0.94362948E+02</pdfrwt>
<pdfrwt beam="2">  1       -1 0.16438269E-01 0.94362948E+02</pdfrwt>
<totfact> 0.41266711E+04</totfact>
</mgrwt>
</event>
<event>
 6    1  0.1828142E-002  0.8862847E+02  0.7546771E-02  0.1433310E+00
         -1   -1    0    0    0  501 -0.00000000000E+00  0.00000000000E+00  0.70896038744E+02  0.70896038744E+02  0.00000000000E+00 0.  1.
          1   -1    0    0  501    0  0.00000000000E+00 -0.00000000000E+00 -0.36329529457E+02  0.36329529457E+02  0.00000000000E+00 0. -1.
         23    2    1    2    0    0 -0.25894516851E+01 -0.10431388537E+02  0.37264871418E+02  0.96144039199E+02  0.87974351403E+02 0.  0.
         11    1    3    3    0    0 -0.39864676907E+02  0.13792990641E+02  0.80394805758E+01  0.42942662978E+02  0.00000000000E+00 0. -1.
        -11    1    3    3    0    0  0.37275225222E+02 -0.24224379178E+02  0.29225390843E+02  0.53201376221E+02  0.00000000000E+00 0.  1.
         22    1    1    2    0    0  0.25894516851E+01  0.10431388537E+02 -0.26983621322E+01  0.11081529002E+02  0.00000000000E+00 0. -1.
<mgrwt>
<rscale>  0 0.52301203E+02</rscale>
<asrwt>0</asrwt>
<pdfrwt beam="1">  1        1 0.55891584E-02 0.88628470E+02</pdfrwt>
<pdfrwt beam="2">  1       -1 0.10907083E-01 0.88628470E+02</pdfrwt>
<totfact> 0.64358600E+04</totfact>
</mgrwt>
</event>
<event>
 6    1  0.1828142E-002  0.9393602E+02  0.7546771E-02  0.1371645E+00
         -2   -1    0    0    0  501 -0.00000000000E+00  0.00000000000E+00  0.19360774116E+03  0.19360774116E+03  0.00000000000E+00 0.  1.
          2   -1    0    0  501    0  0.00000000000E+00 -0.00000000000E+00 -0.18020989288E+02  0.18020989288E+02  0.00000000000E+00 0. -1.
         23    2    1    2    0    0  0.44025818975E+01  0.23486626484E+02  0.13360291636E+03  0.16332089677E+03  0.90845867869E+02 0.  0.
         13    1    3    3    0    0 -0.29995009279E+02 -0.31926185995E+01  0.92224778910E+01  0.31542788298E+02  0.00000000000E+00 0. -1.
        -13    1    3    3    0    0  0.34397591176E+02  0.26679245084E+02  0.12438043847E+03  0.13177810847E+03  0.00000000000E+00 0.  1.
         22    1    1    2    0    0 -0.44025818975E+01 -0.23486626484E+02  0.41983835507E+02  0.48307833680E+02  0.00000000000E+00 0.  1.
<mgrwt>
<rscale>  0 0.66712013E+02</rscale>
<asrwt>0</asrwt>
<pdfrwt beam="1">  1        2 0.27724600E-02 0.93936021E+02</pdfrwt>
<pdfrwt beam="2">  1       -2 0.29785805E-01 0.93936021E+02</pdfrwt>
<totfact> 0.31606707E+04</totfact>
</mgrwt>
</event>
<event>
 6    1  0.1828142E-002  0.9080551E+02  0.7546771E-02  0.1426474E+00
          2   -1    0    0  501    0  0.00000000000E+00  0.00000000000E+00  0.18443721777E+01  0.18443721777E+01  0.00000000000E+00 0. -1.
         -2   -1    0    0    0  501 -0.00000000000E+00 -0.00000000000E+00 -0.18308102397E+04  0.18308102397E+04  0.00000000000E+00 0.  1.
         23    2    1    2    0    0  0.99904359688E+01  0.48025481615E+01 -0.17851608358E+04  0.17874688389E+04  0.90126394075E+02 0.  0.
         11    1    3    3    0    0  0.78790959752E+01 -0.36465738266E+02 -0.41179956639E+03  0.41348604946E+03  0.00000000000E+00 0. -1.
        -11    1    3    3    0    0  0.21113399936E+01  0.41268286428E+02 -0.13733612694E+04  0.13739827894E+04  0.00000000000E+00 0.  1.
         22    1    1    2    0    0 -0.99904359688E+01 -0.48025481615E+01 -0.43805031667E+02  0.45185772971E+02  0.00000000000E+00 0. -1.
<mgrwt>
<rscale>  0 0.53674292E+02</rscale>
<asrwt>0</asrwt>
<pdfrwt beam="1">  1        2 0.28374960E-03 0.90805507E+02</pdfrwt>
<pdfrwt beam="2">  1       -2 0.28166308E+00 0.90805507E+02</pdfrwt>
<totfact> 0.36747818E+03</totfact>
</mgrwt>
</event>
<event>
 6    1  0.1828142E-002  0.1002185E+03  0.7546771E-02  0.1397523E+00
         -4   -1    0    0    0  501 -0.00000000000E+00  0.00000000000E+00  0.15957516013E+02  0.15957516013E+02  0.00000000000E+00 0.  1.
          4   -1    0    0  501    0  0.00000000000E+00 -0.00000000000E+00 -0.20290142281E+03  0.20290142281E+03  0.00000000000E+00 0. -1.
         23    2    1    2    0    0 -0.24471795624E+01 -0.12705196052E+02 -0.15727917993E+03  0.18649527533E+03  0.99379759444E+02 0.  0.
         11    1    3    3    0    0 -0.39976216913E+02  0.65150389397E+01 -0.24858036648E+02  0.47523316772E+02  0.00000000000E+00 0.  1.
        -11    1    3    3    0    0  0.37529037351E+02 -0.19220234992E+02 -0.13242114328E+03  0.13897195856E+03  0.00000000000E+00 0. -1.
         22    1    1    2    0    0  0.24471795624E+01  0.12705196052E+02 -0.29664726868E+02  0.32363663493E+02  0.00000000000E+00 0.  1.
<mgrwt>
<rscale>  0 0.60073622E+02</rscale>
<asrwt>0</asrwt>
<pdfrwt beam="1">  1        4 0.31215603E-01 0.10021850E+03</pdfrwt>
<pdfrwt beam="2">  1       -4 0.24550025E-02 0.10021850E+03</pdfrwt>
<totfact> 0.10893989E+04</totfact>
</mgrwt>
</event>
<event>
 6    1  0.1828142E-002  0.9170640E+02  0.7546771E-02  0.1400578E+00
          2   -1    0    0  501    0  0.00000000000E+00  0.00000000000E+00  0.47131418717E+03  0.47131418717E+03  0.00000000000E+00 0.  1.
         -2   -1    0    0    0  501 -0.00000000000E+00 -0.00000000000E+00 -0.61634121797E+01  0.61634121797E+01  0.00000000000E+00 0. -1.
         23    2    1    2    0    0  0.17967164301E+01 -0.15987080057E+02  0.39605183181E+03  0.40653058484E+03  0.90284262276E+02 0.  0.
         11    1    3    3    0    0 -0.14435018532E+02  0.19554342135E+02  0.30992624697E+02  0.39386353499E+02  0.00000000000E+00 0. -1.
        -11    1    3    3    0    0  0.16231734963E+02 -0.35541422192E+02  0.36505920711E+03  0.36714423135E+03  0.00000000000E+00 0.  1.
         22    1    1    2    0    0 -0.17967164301E+01  0.15987080057E+02  0.69098943179E+02  0.70947014505E+02  0.00000000000E+00 0.  1.
<mgrwt>
<rscale>  0 0.59350363E+02</rscale>
<asrwt>0</asrwt>
<pdfrwt beam="1">  1        2 0.72509847E-01 0.91706395E+02</pdfrwt>
<pdfrwt beam="2">  1       -2 0.94821763E-03 0.91706395E+02</pdfrwt>
<totfact> 0.13188958E+05</totfact>
</mgrwt>
</event>
<event>
 6    1  0.1828142E-002  0.9395341E+02  0.7546771E-02  0.1380710E+00
          2   -1    0    0  501    0  0.00000000000E+00  0.00000000000E+00  0.12938647310E+03  0.12938647310E+03  0.00000000000E+00 0. -1.
         -2   -1    0    0    0  501 -0.00000000000E+00 -0.00000000000E+00 -0.33016384842E+02  0.33016384842E+02  0.00000000000E+00 0.  1.
         23    2    1    2    0    0 -0.17027341395E+02 -0.11563425348E+02  0.39493413372E+02  0.10191650157E+03  0.91671153763E+02 0.  0.
         13    1    3    3    0    0  0.52498602500E+01 -0.28736447963E+02 -0.20479036823E+02  0.35675417634E+02  0.00000000000E+00 0.  1.
        -13    1    3    3    0    0 -0.22277201645E+02  0.17173022615E+02  0.59972450195E+02  0.66241083938E+02  0.00000000000E+00 0. -1.
         22    1    1    2    0    0  0.17027341395E+02  0.11563425348E+02  0.56876674885E+02  0.60486356369E+02  0.00000000000E+00 0. -1.
<mgrwt>
<rscale>  0 0.64277569E+02</rscale>
<asrwt>0</asrwt>
<pdfrwt beam="1">  1        2 0.19905611E-01 0.93953412E+02</pdfrwt>
<pdfrwt beam="2">  1       -2 0.50794439E-02 0.93953412E+02</pdfrwt>
<totfact> 0.46524460E+04</totfact>
</mgrwt>
</event>
<event>
 6    1  0.1828142E-002  0.8956677E+02  0.7546771E-02  0.1434531E+00
         -1   -1    0    0    0  501 -0.00000000000E+00  0.00000000000E+00  0.27138008223E+03  0.27138008223E+03  0.00000000000E+00 0.  1.
          1   -1    0    0  501    0  0.00000000000E+00 -0.00000000000E+00 -0.12575827136E+02  0.12575827136E+02  0.00000000000E+00 0. -1.
         23    2    1    2    0    0 -0.92620235193E+01 -0.43292188916E+01  0.25866289906E+03  0.27373107697E+03  0.88981345990E+02 0.  0.
         13    1    3    3    0    0  0.14976182336E+02  0.60729509610E+00  0.11496244020E+01  0.15032514126E+02  0.00000000000E+00 0. -1.
        -13    1    3    3    0    0 -0.24238205855E+02 -0.49365139877E+01  0.25751327466E+03  0.25869856284E+03  0.00000000000E+00 0.  1.
         22    1    1    2    0    0  0.92620235193E+01  0.43292188916E+01  0.14135602994E+00  0.10224832390E+02  0.00000000000E+00 0. -1.
<mgrwt>
<rscale>  0 0.52061164E+02</rscale>
<asrwt>0</asrwt>
<pdfrwt beam="1">  1        1 0.19347428E-02 0.89566775E+02</pdfrwt>
<pdfrwt beam="2">  1       -1 0.41750778E-01 0.89566775E+02</pdfrwt>
<totfact> 0.31626994E+04</totfact>
</mgrwt>
</event>
<event>
 6    1  0.1828142E-002  0.1484794E+03  0.7546771E-02  0.1214084E+00
         -1   -1    0    0    0  501 -0.00000000000E+00  0.00000000000E+00  0.54954223631E+02  0.54954223631E+02  0.00000000000E+00 0.  1.
          1   -1    0    0  501    0  0.00000000000E+00 -0.00000000000E+00 -0.31781878067E+03  0.31781878067E+03  0.00000000000E+00 0. -1.
         23    2    1    2    0    0  0.80694099950E+01 -0.11521160502E+03 -0.15720210063E+03  0.21623743645E+03  0.93312909996E+02 0.  0.
         13    1    3    3    0    0  0.84899655381E+01 -0.12805998228E+03 -0.15775919672E+03  0.20337011267E+03  0.00000000000E+00 0. -1.
        -13    1    3    3    0    0 -0.42055554306E+00  0.12848377263E+02  0.55709609165E+00  0.12867323782E+02  0.00000000000E+00 0.  1.
         22    1    1    2    0    0 -0.80694099950E+01  0.11521160502E+03 -0.10566245641E+03  0.15653556786E+03  0.00000000000E+00 0.  1.
<mgrwt>
<rscale>  0 0.13944063E+03</rscale>
<asrwt>0</asrwt>
<pdfrwt beam="1">  1        1 0.48895197E-01 0.14847939E+03</pdfrwt>
<pdfrwt beam="2">  1       -1 0.84544960E-02 0.14847939E+03</pdfrwt>
<totfact> 0.61841250E+03</totfact>
</mgrwt>
</event>
<event>
 6    1  0.1828142E-002  0.9195884E+02  0.7546771E-02  0.1387725E+00
          2   -1    0    0  501    0  0.00000000000E+00  0.00000000000E+00  0.39459538203E+02  0.39459538203E+02  0.00000000000E+00 0. -1.
         -2   -1    0    0    0  501 -0.00000000000E+00 -0.00000000000E+00 -0.38332629216E+03  0.38332629216E+03  0.00000000000E+00 0.  1.
         23    2    1    2    0    0  0.59535920240E+01 -0.18665383599E+02 -0.37493969138E+03  0.38605206874E+03  0.89847569838E+02 0.  0.
         11    1    3    3    0    0  0.46860766092E+02 -0.42930857127E-02 -0.20180616722E+03  0.20717543422E+03  0.00000000000E+00 0. -1.
        -11    1    3    3    0    0 -0.40907174068E+02 -0.18661090513E+02 -0.17313352416E+03  0.17887663452E+03  0.00000000000E+00 0.  1.
         22    1    1    2    0    0 -0.59535920240E+01  0.18665383599E+02  0.31072937421E+02  0.36733761621E+02  0.00000000000E+00 0. -1.
<mgrwt>
<rscale>  0 0.62476132E+02</rscale>
<asrwt>0</asrwt>
<pdfrwt beam="1">  1        2 0.60706980E-02 0.91958836E+02</pdfrwt>
<pdfrwt beam="2">  1       -2 0.58973278E-01 0.91958836E+02</pdfrwt>
<totfact> 0.30990973E+03</totfact>
</mgrwt>
</event>
<event>
 6    1  0.1828142E-002  0.9090727E+02  0.7546771E-02  0.1424747E+00
         -2   -1    0    0    0  501 -0.00000000000E+00  0.00000000000E+00  0.10966530682E+04  0.10966530682E+04  0.00000000000E+00 0.  1.
          2   -1    0    0  501    0  0.00000000000E+00 -0.00000000000E+00 -0.26244716901E+01  0.26244716901E+01  0.00000000000E+00 0. -1.
         23    2    1    2    0    0 -0.16546394574E+01 -0.11221371749E+02  0.10453300460E+04  0.10492754816E+04  0.90196863088E+02 0.  0.
         11    1    3    3    0    0 -0.28183763513E+02  0.19386647631E+02  0.19474302655E+03  0.19772458882E+03  0.00000000000E+00 0. -1.
        -11    1    3    3    0    0  0.26529124056E+02 -0.30608019379E+02  0.85058701945E+03  0.85155089274E+03  0.00000000000E+00 0.  1.
         22    1    1    2    0    0  0.16546394574E+01  0.11221371749E+02  0.48698550469E+02  0.50002058292E+02  0.00000000000E+00 0.  1.
<mgrwt>
<rscale>  0 0.54029150E+02</rscale>
<asrwt>0</asrwt>
<pdfrwt beam="1">  1        2 0.40376575E-03 0.90907267E+02</pdfrwt>
<pdfrwt beam="2">  1       -2 0.16871549E+00 0.90907267E+02</pdfrwt>
<totfact> 0.10661498E+04</totfact>
</mgrwt>
</event>
<event>
 6    1  0.1828142E-002  0.1306344E+03  0.7546771E-02  0.1242372E+00
          2   -1    0    0  501    0  0.00000000000E+00  0.00000000000E+00  0.16065621493E+03  0.16065621493E+03  0.00000000000E+00 0. -1.
         -2   -1    0    0    0  501 -0.00000000000E+00 -0.00000000000E+00 -0.22743819836E+03  0.22743819836E+03  0.00000000000E+00 0.  1.
         23    2    1    2    0    0 -0.93911835943E+02 -0.94749994310E+01 -0.19142094783E+03  0.23174838683E+03  0.90311278279E+02 0.  0.
         11    1    3    3    0    0 -0.32163153867E+02  0.10916530715E+02 -0.50253301200E+01  0.34335012048E+02  0.00000000000E+00 0. -1.
        -11    1    3    3    0    0 -0.61748682075E+02 -0.20391530146E+02 -0.18639561771E+03  0.19741337478E+03  0.00000000000E+00 0.  1.
         22    1    1    2    0    0  0.93911835943E+02  0.94749994310E+01  0.12463896441E+03  0.15634602647E+03  0.00000000000E+00 0. -1.
<mgrwt>
<rscale>  0 0.12044061E+03</rscale>
<asrwt>0</asrwt>
<pdfrwt beam="1">  1        2 0.24716341E-01 0.13063436E+03</pdfrwt>
<pdfrwt beam="2">  1       -2 0.34990492E-01 0.13063436E+03</pdfrwt>
<totfact> 0.16323809E+03</totfact>
</mgrwt>
</event>
<event>
 6    1  0.1828142E-002  0.9104872E+02  0.7546771E-02  0.1421021E+00
         -2   -1    0    0    0  501 -0.00000000000E+00  0.00000000000E+00  0.10994157830E+03  0.10994157830E+03  0.00000000000E+00 0. -1.
          2   -1    0    0  501    0  0.00000000000E+00 -0.00000000000E+00 -0.38233239859E+02  0.38233239859E+02  0.00000000000E+00 0.  1.
         23    2    1    2    0    0 -0.10406626734E+02  0.58800758435E+01  0.88889568966E+02  0.12724474758E+03  0.90260717612E+02 0.  0.
         13    1    3    3    0    0  0.22610588492E+02  0.31900188470E+01  0.91221606910E+02  0.94036144644E+02  0.00000000000E+00 0. -1.
        -13    1    3    3    0    0 -0.33017215227E+02  0.26900569965E+01 -0.23320379443E+01  0.33208602936E+02  0.00000000000E+00 0.  1.
         22    1    1    2    0    0  0.10406626734E+02 -0.58800758435E+01 -0.17181230527E+02  0.20930070577E+02  0.00000000000E+00 0.  1.
<mgrwt>
<rscale>  0 0.54805512E+02</rscale>
<asrwt>0</asrwt>
<pdfrwt beam="1">  1        2 0.58820370E-02 0.91048725E+02</pdfrwt>
<pdfrwt beam="2">  1       -2 0.16914089E-01 0.91048725E+02</pdfrwt>
<totfact> 0.30931434E+04</totfact>
</mgrwt>
</event>
<event>
 6    1  0.1828142E-002  0.9488608E+02  0.7546771E-02  0.1379132E+00
         -2   -1    0    0    0  501 -0.00000000000E+00  0.00000000000E+00  0.62716419268E+02  0.62716419268E+02  0.00000000000E+00 0.  1.
          2   -1    0    0  501    0  0.00000000000E+00 -0.00000000000E+00 -0.56724274014E+02  0.56724274014E+02  0.00000000000E+00 0. -1.
         23    2    1    2    0    0  0.15390417612E+02  0.13545667086E+02  0.16646416027E+02  0.96335206125E+02  0.92644582796E+02 0.  0.
         13    1    3    3    0    0 -0.98680438072E+01  0.48453412732E+02  0.19497909637E+02  0.53153362774E+02  0.00000000000E+00 0. -1.
        -13    1    3    3    0    0  0.25258461419E+02 -0.34907745646E+02 -0.28514936095E+01  0.43181843350E+02  0.00000000000E+00 0.  1.
         22    1    1    2    0    0 -0.15390417612E+02 -0.13545667086E+02 -0.10654270773E+02  0.23105487158E+02  0.00000000000E+00 0.  1.
<mgrwt>
<rscale>  0 0.64692402E+02</rscale>
<asrwt>0</asrwt>
<pdfrwt beam="1">  1        2 0.87268114E-02 0.94886083E+02</pdfrwt>
<pdfrwt beam="2">  1       -2 0.96486799E-02 0.94886083E+02</pdfrwt>
<totfact> 0.46385896E+04</totfact>
</mgrwt>
</event>
<event>
 6    1  0.1828142E-002  0.9708683E+02  0.7546771E-02  0.1339147E+00
          2   -1    0    0  501    0  0.00000000000E+00  0.00000000000E+00  0.84790869118E+01  0.84790869118E+01  0.00000000000E+00 0. -1.
         -2   -1    0    0    0  501 -0.00000000000E+00 -0.00000000000E+00 -0.55420646291E+03  0.55420646291E+03  0.00000000000E+00 0.  1.
         23    2    1    2    0    0  0.15206553241E+02  0.34296996991E+02 -0.43740523516E+03  0.44805043539E+03  0.89545126318E+02 0.  0.
         11    1    3    3    0    0 -0.29969841157E+01  0.59601452560E+02 -0.20326231419E+03  0.21184164707E+03  0.00000000000E+00 0. -1.
        -11    1    3    3    0    0  0.18203537356E+02 -0.25304455569E+02 -0.23414292097E+03  0.23620878833E+03  0.00000000000E+00 0.  1.
         22    1    1    2    0    0 -0.15206553241E+02 -0.34296996991E+02 -0.10832214084E+03  0.11463511442E+03  0.00000000000E+00 0.  1.
<mgrwt>
<rscale>  0 0.76546827E+02</rscale>
<asrwt>0</asrwt>
<pdfrwt beam="1">  1        2 0.13044747E-02 0.97086832E+02</pdfrwt>
<pdfrwt beam="2">  1       -2 0.85262544E-01 0.97086832E+02</pdfrwt>
<totfact> 0.11009896E+04</totfact>
</mgrwt>
</event>
<event>
 6    1  0.1828142E-002  0.9246438E+02  0.7546771E-02  0.1405864E+00
          4   -1    0    0  501    0  0.00000000000E+00  0.00000000000E+00  0.63826096771E+02  0.63826096771E+02  0.00000000000E+00 0. -1.
         -4   -1    0    0    0  501 -0.00000000000E+00 -0.00000000000E+00 -0.60200920920E+02  0.60200920920E+02  0.00000000000E+00 0.  1.
         23    2    1    2    0    0 -0.60050735869E+01  0.13132868762E+02 -0.21606437692E+02  0.94955253508E+02  0.91329780840E+02 0.  0.
         11    1    3    3    0    0  0.12016131491E+01 -0.16731264341E+02 -0.50235489434E+02  0.52962094740E+02  0.00000000000E+00 0.  1.
        -11    1    3    3    0    0 -0.72066867360E+01  0.29864133103E+02  0.28629051742E+02  0.41993158768E+02  0.00000000000E+00 0. -1.
         22    1    1    2    0    0  0.60050735869E+01 -0.13132868762E+02  0.25231613544E+02  0.29071764183E+02  0.00000000000E+00 0. -1.
<mgrwt>
<rscale>  0 0.58126978E+02</rscale>
<asrwt>0</asrwt>
<pdfrwt beam="1">  1        4 0.98193994E-02 0.92464382E+02</pdfrwt>
<pdfrwt beam="2">  1       -4 0.92616802E-02 0.92464382E+02</pdfrwt>
<totfact> 0.98698193E+03</totfact>
</mgrwt>
</event>
<event>
 6    1  0.1828142E-002  0.9054636E+02  0.7546771E-02  0.1412902E+00
         -2   -1    0    0    0  501 -0.00000000000E+00  0.00000000000E+00  0.91810103931E+02  0.91810103931E+02  0.00000000000E+00 0.  1.
          2   -1    0    0  501    0  0.00000000000E+00 -0.00000000000E+00 -0.37184490820E+02  0.37184490820E+02  0.00000000000E+00 0. -1.
         23    2    1    2    0    0  0.13607536070E+02 -0.21550827385E+01  0.65241059455E+02  0.11160215040E+03  0.89492093032E+02 0.  0.
         11    1    3    3    0    0 -0.17884859777E+02  0.35163429139E+02  0.16988978834E+02  0.42953001757E+02  0.00000000000E+00 0. -1.
        -11    1    3    3    0    0  0.31492395847E+02 -0.37318511878E+02  0.48252080621E+02  0.68649148641E+02  0.00000000000E+00 0.  1.
         22    1    1    2    0    0 -0.13607536070E+02  0.21550827385E+01 -0.10615446344E+02  0.17392444353E+02  0.00000000000E+00 0. -1.
<mgrwt>
<rscale>  0 0.56551351E+02</rscale>
<asrwt>0</asrwt>
<pdfrwt beam="1">  1        2 0.57206909E-02 0.90546365E+02</pdfrwt>
<pdfrwt beam="2">  1       -2 0.14124631E-01 0.90546365E+02</pdfrwt>
<totfact> 0.42907737E+04</totfact>
</mgrwt>
</event>
<event>
 6    1  0.1828142E-002  0.9288584E+02  0.7546771E-02  0.1426320E+00
          2   -1    0    0  501    0  0.00000000000E+00  0.00000000000E+00  0.43920624931E+02  0.43920624931E+02  0.00000000000E+00 0. -1.
         -2   -1    0    0    0  501 -0.00000000000E+00 -0.00000000000E+00 -0.11326339275E+03  0.11326339275E+03  0.00000000000E+00 0.  1.
         23    2    1    2    0    0  0.37971414290E+01  0.96615221301E+01 -0.92943455437E+02  0.13140116002E+03  0.92303930865E+02 0.  0.
         13    1    3    3    0    0  0.37245857339E+02  0.36180247225E+01 -0.58059521470E+01  0.37868893200E+02  0.00000000000E+00 0. -1.
        -13    1    3    3    0    0 -0.33448715910E+02  0.60434974076E+01 -0.87137503290E+02  0.93532266821E+02  0.00000000000E+00 0.  1.
         22    1    1    2    0    0 -0.37971414290E+01 -0.96615221301E+01  0.23600687620E+02  0.25782857658E+02  0.00000000000E+00 0. -1.
<mgrwt>
<rscale>  0 0.53705775E+02</rscale>
<asrwt>0</asrwt>
<pdfrwt beam="1">  1        2 0.67570192E-02 0.92885838E+02</pdfrwt>
<pdfrwt beam="2">  1       -2 0.17425137E-01 0.92885838E+02</pdfrwt>
<totfact> 0.24769070E+04</totfact>
</mgrwt>
</event>
<event>
 6    1  0.1828142E-002  0.9403260E+02  0.7546771E-02  0.1402859E+00
         -2   -1    0    0    0  501 -0.00000000000E+00  0.00000000000E+00  0.45341948662E+02  0.45341948662E+02  0.00000000000E+00 0. -1.
          2   -1    0    0  501    0  0.00000000000E+00 -0.00000000000E+00 -0.66357859360E+02  0.66357859360E+02  0.00000000000E+00 0.  1.
         23    2    1    2    0    0 -0.29066141422E+01 -0.14098446058E+02 -0.12202360523E+02  0.94821026855E+02  0.92924243040E+02 0.  0.
         13    1    3    3    0    0 -0.22723706711E+02  0.22951539155E+01  0.34576170351E+02  0.41438462017E+02  0.00000000000E+00 0. -1.
        -13    1    3    3    0    0  0.19817092569E+02 -0.16393599973E+02 -0.46778530874E+02  0.53382564838E+02  0.00000000000E+00 0.  1.
         22    1    1    2    0    0  0.29066141422E+01  0.14098446058E+02 -0.88135501740E+01  0.16878781167E+02  0.00000000000E+00 0.  1.
<mgrwt>
<rscale>  0 0.58818151E+02</rscale>
<asrwt>0</asrwt>
<pdfrwt beam="1">  1        2 0.10208901E-01 0.94032598E+02</pdfrwt>
<pdfrwt beam="2">  1       -2 0.69756845E-02 0.94032598E+02</pdfrwt>
<totfact> 0.62901996E+04</totfact>
</mgrwt>
</event>
<event>
 6    1  0.1828142E-002  0.8822544E+02  0.7546771E-02  0.1397196E+00
         -4   -1    0    0    0  501 -0.00000000000E+00  0.00000000000E+00  0.18389589068E+04  0.18389589068E+04  0.00000000000E+00 0.  1.
          4   -1    0    0  501    0  0.00000000000E+00 -0.00000000000E+00 -0.21809076763E+01  0.21809076763E+01  0.00000000000E+00 0. -1.
         23    2    1    2    0    0 -0.13609399816E+02  0.13349810157E+02  0.17530613113E+04  0.17552799460E+04  0.86141131075E+02 0.  0.
         11    1    3    3    0    0  0.36659608108E+02  0.60199752478E+01  0.80965189116E+03  0.81050376423E+03  0.00000000000E+00 0. -1.
        -11    1    3    3    0    0 -0.50269007924E+02  0.73298349097E+01  0.94340942012E+03  0.94477618176E+03  0.00000000000E+00 0.  1.
         22    1    1    2    0    0  0.13609399816E+02 -0.13349810157E+02  0.83716687873E+02  0.85859868525E+02  0.00000000000E+00 0. -1.
<mgrwt>
<rscale>  0 0.60151773E+02</rscale>
<asrwt>0</asrwt>
<pdfrwt beam="1">  1        4 0.33552573E-03 0.88225437E+02</pdfrwt>
<pdfrwt beam="2">  1       -4 0.28291552E+00 0.88225437E+02</pdfrwt>
<totfact> 0.10889297E+03</totfact>
</mgrwt>
</event>
<event>
 6    1  0.1828142E-002  0.9033648E+02  0.7546771E-02  0.1432834E+00
         -2   -1    0    0    0  501 -0.00000000000E+00  0.00000000000E+00  0.10825208827E+03  0.10825208827E+03  0.00000000000E+00 0.  1.
          2   -1    0    0  501    0  0.00000000000E+00 -0.00000000000E+00 -0.39474861820E+02  0.39474861820E+02  0.00000000000E+00 0. -1.
         23    2    1    2    0    0  0.95032906864E+00 -0.10178858092E+02  0.87899381795E+02  0.12604356699E+03  0.89756154011E+02 0.  0.
         13    1    3    3    0    0  0.19938289503E+02  0.60797562020E+01 -0.11322462831E+02  0.23721234966E+02  0.00000000000E+00 0. -1.
        -13    1    3    3    0    0 -0.18987960434E+02 -0.16258614294E+02  0.99221844626E+02  0.10232233203E+03  0.00000000000E+00 0.  1.
         22    1    1    2    0    0 -0.95032906864E+00  0.10178858092E+02 -0.19122155346E+02  0.21683383096E+02  0.00000000000E+00 0. -1.
<mgrwt>
<rscale>  0 0.52395415E+02</rscale>
<asrwt>0</asrwt>
<pdfrwt beam="1">  1        2 0.60730557E-02 0.90336479E+02</pdfrwt>
<pdfrwt beam="2">  1       -2 0.16654167E-01 0.90336479E+02</pdfrwt>
<totfact> 0.30430488E+04</totfact>
</mgrwt>
</event>
<event>
 6    1  0.1828142E-002  0.9431943E+02  0.7546771E-02  0.1363761E+00
         -4   -1    0    0    0  501 -0.00000000000E+00  0.00000000000E+00  0.98982845290E+02  0.98982845290E+02  0.00000000000E+00 0.  1.
          4   -1    0    0  501    0  0.00000000000E+00 -0.00000000000E+00 -0.38473901801E+02  0.38473901801E+02  0.00000000000E+00 0. -1.
         23    2    1    2    0    0  0.15722591070E+02  0.21837640857E+02  0.57291960900E+02  0.11035635217E+03  0.90399520194E+02 0.  0.
         13    1    3    3    0    0  0.51534970213E+02  0.43215390971E+01  0.19048655076E+02  0.55112431585E+02  0.00000000000E+00 0. -1.
        -13    1    3    3    0    0 -0.35812379143E+02  0.17516101760E+02  0.38243305824E+02  0.55243920580E+02  0.00000000000E+00 0.  1.
         22    1    1    2    0    0 -0.15722591070E+02 -0.21837640857E+02  0.32169825887E+01  0.27100394926E+02  0.00000000000E+00 0.  1.
<mgrwt>
<rscale>  0 0.68932557E+02</rscale>
<asrwt>0</asrwt>
<pdfrwt beam="1">  1        4 0.59190619E-02 0.94319434E+02</pdfrwt>
<pdfrwt beam="2">  1       -4 0.15228130E-01 0.94319434E+02</pdfrwt>
<totfact> 0.97887491E+03</totfact>
</mgrwt>
</event>
<event>
 6    1  0.1828142E-002  0.9165995E+02  0.7546771E-02  0.1428219E+00
         -2   -1    0    0    0  501 -0.00000000000E+00  0.00000000000E+00  0.36181301935E+02  0.36181301935E+02  0.00000000000E+00 0. -1.
          2   -1    0    0  501    0  0.00000000000E+00 -0.00000000000E+00 -0.73396238579E+02  0.73396238579E+02  0.00000000000E+00 0.  1.
         23    2    1    2    0    0  0.25884614982E+01 -0.10171021513E+02 -0.37607256756E+02  0.99074982416E+02  0.91057106084E+02 0.  0.
         11    1    3    3    0    0 -0.59627125406E+01 -0.30757146088E+01  0.29908089148E+02  0.30651390796E+02  0.00000000000E+00 0. -1.
        -11    1    3    3    0    0  0.85511740389E+01 -0.70953069038E+01 -0.67515345905E+02  0.68423591620E+02  0.00000000000E+00 0.  1.
         22    1    1    2    0    0 -0.25884614982E+01  0.10171021513E+02  0.39232011250E+00  0.10502558098E+02  0.00000000000E+00 0. -1.
<mgrwt>
<rscale>  0 0.53319084E+02</rscale>
<asrwt>0</asrwt>
<pdfrwt beam="1">  1        2 0.11291729E-01 0.91659950E+02</pdfrwt>
<pdfrwt beam="2">  1       -2 0.55663542E-02 0.91659950E+02</pdfrwt>
<totfact> 0.77956375E+04</totfact>
</mgrwt>
</event>
<event>
 6    1  0.1828142E-002  0.9090404E+02  0.7546771E-02  0.1405676E+00
         -2   -1    0    0    0  501 -0.00000000000E+00  0.00000000000E+00  0.14471390921E+03  0.14471390921E+03  0.00000000000E+00 0.  1.
          2   -1    0    0  501    0  0.00000000000E+00 -0.00000000000E+00 -0.19749432631E+02  0.19749432631E+02  0.00000000000E+00 0. -1.
         23    2    1    2    0    0  0.11553144917E+02 -0.99420555848E+01  0.11335907118E+03  0.14530596568E+03  0.89617102262E+02 0.  0.
         13    1    3    3    0    0  0.17655745303E+02 -0.89141598648E+01 -0.97433142471E+01  0.22048123748E+02  0.00000000000E+00 0. -1.
        -13    1    3    3    0    0 -0.61026003859E+01 -0.10278957200E+01  0.12310238542E+03  0.12325784193E+03  0.00000000000E+00 0.  1.
         22    1    1    2    0    0 -0.11553144917E+02  0.99420555848E+01  0.11605405402E+02  0.19157376158E+02  0.00000000000E+00 0. -1.
<mgrwt>
<rscale>  0 0.58169875E+02</rscale>
<asrwt>0</asrwt>
<pdfrwt beam="1">  1        2 0.30383743E-02 0.90904041E+02</pdfrwt>
<pdfrwt beam="2">  1       -2 0.22263678E-01 0.90904041E+02</pdfrwt>
<totfact> 0.46214331E+04</totfact>
</mgrwt>
</event>
<event>
 6    1  0.1828142E-002  0.8939090E+02  0.7546771E-02  0.1381910E+00
         -2   -1    0    0    0  501 -0.00000000000E+00  0.00000000000E+00  0.31057229096E+03  0.31057229096E+03  0.00000000000E+00 0.  1.
          2   -1    0    0  501    0  0.00000000000E+00 -0.00000000000E+00 -0.12516929820E+02  0.12516929820E+02  0.00000000000E+00 0. -1.
         23    2    1    2    0    0  0.16024536481E+02 -0.17100502601E+02  0.27873035580E+03  0.29271375716E+03  0.86264241892E+02 0.  0.
         11    1    3    3    0    0  0.40846353845E+02 -0.61794192674E+01  0.63328355597E+02  0.75611444025E+02  0.00000000000E+00 0. -1.
        -11    1    3    3    0    0 -0.24821817364E+02 -0.10921083334E+02  0.21540200020E+03  0.21710231314E+03  0.00000000000E+00 0.  1.
         22    1    1    2    0    0 -0.16024536481E+02  0.17100502601E+02  0.19325005341E+02  0.30375463619E+02  0.00000000000E+00 0. -1.
<mgrwt>
<rscale>  0 0.63964288E+02</rscale>
<asrwt>0</asrwt>
<pdfrwt beam="1">  1        2 0.19256817E-02 0.89390897E+02</pdfrwt>
<pdfrwt beam="2">  1       -2 0.47780347E-01 0.89390897E+02</pdfrwt>
<totfact> 0.21276558E+04</totfact>
</mgrwt>
</event>
<event>
 6    1  0.1828142E-002  0.9304023E+02  0.7546771E-02  0.1402000E+00
         -1   -1    0    0    0  501 -0.00000000000E+00  0.00000000000E+00  0.16664289728E+02  0.16664289728E+02  0.00000000000E+00 0.  1.
          1   -1    0    0  501    0  0.00000000000E+00 -0.00000000000E+00 -0.19697687581E+03  0.19697687581E+03  0.00000000000E+00 0. -1.
         23    2    1    2    0    0  0.11599074611E+02 -0.96109337584E+01 -0.12208505942E+03  0.15349672739E+03  0.91812717011E+02 0.  0.
         13    1    3    3    0    0 -0.97348550525E+01 -0.43376311930E+02 -0.95997878568E+02  0.10579160897E+03  0.00000000000E+00 0. -1.
        -13    1    3    3    0    0  0.21333929663E+02  0.33765378172E+02 -0.26087180852E+02  0.47705118413E+02  0.00000000000E+00 0.  1.
         22    1    1    2    0    0 -0.11599074611E+02  0.96109337584E+01 -0.58227526664E+02  0.60144438155E+02  0.00000000000E+00 0. -1.
<mgrwt>
<rscale>  0 0.59017992E+02</rscale>
<asrwt>0</asrwt>
<pdfrwt beam="1">  1        1 0.30304136E-01 0.93040226E+02</pdfrwt>
<pdfrwt beam="2">  1       -1 0.25637368E-02 0.93040226E+02</pdfrwt>
<totfact> 0.61648678E+04</totfact>
</mgrwt>
</event>
<event>
 6    1  0.1828142E-002  0.9307120E+02  0.7546771E-02  0.1417578E+00
         -4   -1    0    0    0  501 -0.00000000000E+00  0.00000000000E+00  0.25561455428E+02  0.25561455428E+02  0.00000000000E+00 0.  1.
          4   -1    0    0  501    0  0.00000000000E+00 -0.00000000000E+00 -0.12281019856E+03  0.12281019856E+03  0.00000000000E+00 0. -1.
         23    2    1    2    0    0  0.11073552323E+02  0.40753258532E+01 -0.63632351078E+02  0.11274450624E+03  0.92320180578E+02 0.  0.
         11    1    3    3    0    0  0.44514862412E+01 -0.18629412089E+02  0.18888906596E+02  0.26900957547E+02  0.00000000000E+00 0.  1.
        -11    1    3    3    0    0  0.66220660817E+01  0.22704737942E+02 -0.82521257674E+02  0.85843548694E+02  0.00000000000E+00 0. -1.
         22    1    1    2    0    0 -0.11073552323E+02 -0.40753258532E+01 -0.33616392059E+02  0.35627147751E+02  0.00000000000E+00 0.  1.
<mgrwt>
<rscale>  0 0.55536537E+02</rscale>
<asrwt>0</asrwt>
<pdfrwt beam="1">  1        4 0.18893877E-01 0.93071196E+02</pdfrwt>
<pdfrwt beam="2">  1       -4 0.39325316E-02 0.93071196E+02</pdfrwt>
<totfact> 0.12807275E+04</totfact>
</mgrwt>
</event>
<event>
 6    1  0.1828142E-002  0.1053049E+03  0.7546771E-02  0.1330112E+00
          2   -1    0    0  501    0  0.00000000000E+00  0.00000000000E+00  0.28103890131E+03  0.28103890131E+03  0.00000000000E+00 0. -1.
         -2   -1    0    0    0  501 -0.00000000000E+00 -0.00000000000E+00 -0.17740652621E+02  0.17740652621E+02  0.00000000000E+00 0.  1.
         23    2    1    2    0    0 -0.32372896165E+02 -0.11715901518E+02  0.21573400456E+03  0.24006308202E+03  0.99518118297E+02 0.  0.
         13    1    3    3    0    0 -0.37602815482E+02  0.36822559944E+02  0.14378971296E+03  0.15311875850E+03  0.00000000000E+00 0. -1.
        -13    1    3    3    0    0  0.52299193172E+01 -0.48538461462E+02  0.71944291602E+02  0.86944323514E+02  0.00000000000E+00 0.  1.
         22    1    1    2    0    0  0.32372896165E+02  0.11715901518E+02  0.47564244129E+02  0.58716471914E+02  0.00000000000E+00 0. -1.
<mgrwt>
<rscale>  0 0.79627569E+02</rscale>
<asrwt>0</asrwt>
<pdfrwt beam="1">  1        2 0.43236751E-01 0.10530490E+03</pdfrwt>
<pdfrwt beam="2">  1       -2 0.27293314E-02 0.10530490E+03</pdfrwt>
<totfact> 0.50984599E+04</totfact>
</mgrwt>
</event>
<event>
 6    1  0.1828142E-002  0.9461955E+02  0.7546771E-02  0.1418524E+00
         -1   -1    0    0    0  501 -0.00000000000E+00  0.00000000000E+00  0.88042542729E+02  0.88042542729E+02  0.00000000000E+00 0.  1.
          1   -1    0    0  501    0  0.00000000000E+00 -0.00000000000E+00 -0.32743142068E+02  0.32743142068E+02  0.00000000000E+00 0. -1.
         23    2    1    2    0    0 -0.77650422687E+01 -0.78859164794E+01  0.55540121755E+02  0.10971583806E+03  0.93970082665E+02 0.  0.
         13    1    3    3    0    0 -0.23528833714E+02 -0.45178107852E+02  0.16685913404E+02  0.53601186098E+02  0.00000000000E+00 0. -1.
        -13    1    3    3    0    0  0.15763791445E+02  0.37292191372E+02  0.38854208352E+02  0.56114651961E+02  0.00000000000E+00 0.  1.
         22    1    1    2    0    0  0.77650422687E+01  0.78859164794E+01 -0.24072109453E+00  0.11069846738E+02  0.00000000000E+00 0.  1.
<mgrwt>
<rscale>  0 0.55334425E+02</rscale>
<asrwt>0</asrwt>
<pdfrwt beam="1">  1        1 0.50374065E-02 0.94619554E+02</pdfrwt>
<pdfrwt beam="2">  1       -1 0.13545006E-01 0.94619554E+02</pdfrwt>
<totfact> 0.53692023E+04</totfact>
</mgrwt>
</event>
<event>
 6    1  0.1828142E-002  0.1004902E+03  0.7546771E-02  0.1336846E+00
          1   -1    0    0  501    0  0.00000000000E+00  0.00000000000E+00  0.14507056269E+04  0.14507056269E+04  0.00000000000E+00 0. -1.
         -1   -1    0    0    0  501 -0.00000000000E+00 -0.00000000000E+00 -0.35807388917E+01  0.35807388917E+01  0.00000000000E+00 0.  1.
         23    2    1    2    0    0  0.79839641039E+01 -0.34295957128E+02  0.12506655708E+04  0.12546962366E+04  0.94118647269E+02 0.  0.
         13    1    3    3    0    0 -0.80967036689E+01  0.30987200774E+02  0.31734020188E+03  0.31895229573E+03  0.00000000000E+00 0.  1.
        -13    1    3    3    0    0  0.16080667773E+02 -0.65283157903E+02  0.93332536888E+03  0.93574394082E+03  0.00000000000E+00 0. -1.
         22    1    1    2    0    0 -0.79839641039E+01  0.34295957128E+02  0.19645931726E+03  0.19959012926E+03  0.00000000000E+00 0. -1.
<mgrwt>
<rscale>  0 0.77315847E+02</rscale>
<asrwt>0</asrwt>
<pdfrwt beam="1">  1        1 0.22318501E+00 0.10049018E+03</pdfrwt>
<pdfrwt beam="2">  1       -1 0.55088406E-03 0.10049018E+03</pdfrwt>
<totfact> 0.31932772E+04</totfact>
</mgrwt>
</event>
<event>
 6    1  0.1828142E-002  0.9109482E+02  0.7546771E-02  0.1398884E+00
         -2   -1    0    0    0  501 -0.00000000000E+00  0.00000000000E+00  0.56037255663E+03  0.56037255663E+03  0.00000000000E+00 0.  1.
          2   -1    0    0  501    0  0.00000000000E+00 -0.00000000000E+00 -0.82981005547E+01  0.82981005547E+01  0.00000000000E+00 0. -1.
         23    2    1    2    0    0  0.15935349991E+02 -0.55077981311E+01  0.54072888609E+03  0.54834842360E+03  0.89520914821E+02 0.  0.
         13    1    3    3    0    0 -0.25879277489E+02 -0.31757716615E+02  0.21051449182E+03  0.21446361191E+03  0.00000000000E+00 0.  1.
        -13    1    3    3    0    0  0.41814627480E+02  0.26249918483E+02  0.33021439427E+03  0.33388481168E+03  0.00000000000E+00 0. -1.
         22    1    1    2    0    0 -0.15935349991E+02  0.55077981311E+01  0.11345569981E+02  0.20322233582E+02  0.00000000000E+00 0.  1.
<mgrwt>
<rscale>  0 0.59749855E+02</rscale>
<asrwt>0</asrwt>
<pdfrwt beam="1">  1        2 0.12766313E-02 0.91094815E+02</pdfrwt>
<pdfrwt beam="2">  1       -2 0.86211133E-01 0.91094815E+02</pdfrwt>
<totfact> 0.10977692E+04</totfact>
</mgrwt>
</event>
<event>
 6    1  0.1828142E-002  0.9342811E+02  0.7546771E-02  0.1397118E+00
          2   -1    0    0  501    0  0.00000000000E+00  0.00000000000E+00  0.73308925365E+02  0.73308925365E+02  0.00000000000E+00 0. -1.
         -2   -1    0    0    0  501 -0.00000000000E+00 -0.00000000000E+00 -0.42432758080E+02  0.42432758080E+02  0.00000000000E+00 0.  1.
         23    2    1    2    0    0 -0.15265275747E+02  0.50314058369E+01  0.17998217520E+02  0.95145924695E+02  0.92035142548E+02 0.  0.
         11    1    3    3    0    0 -0.11325688848E+02 -0.16753150482E+02  0.51308692139E+02  0.55149987923E+02  0.00000000000E+00 0. -1.
        -11    1    3    3    0    0 -0.39395868984E+01  0.21784556319E+02 -0.33310474619E+02  0.39995936772E+02  0.00000000000E+00 0.  1.
         22    1    1    2    0    0  0.15265275747E+02 -0.50314058369E+01  0.12877949766E+02  0.20595758750E+02  0.00000000000E+00 0.  1.
<mgrwt>
<rscale>  0 0.60170399E+02</rscale>
<asrwt>0</asrwt>
<pdfrwt beam="1">  1        2 0.11278296E-01 0.93428107E+02</pdfrwt>
<pdfrwt beam="2">  1       -2 0.65281166E-02 0.93428107E+02</pdfrwt>
<totfact> 0.61622816E+04</totfact>
</mgrwt>
</event>
<event>
 6    1  0.1828142E-002  0.9239139E+02  0.7546771E-02  0.1392925E+00
         -2   -1    0    0    0  501 -0.00000000000E+00  0.00000000000E+00  0.26700238036E+02  0.26700238036E+02  0.00000000000E+00 0.  1.
          2   -1    0    0  501    0  0.00000000000E+00 -0.00000000000E+00 -0.13779678624E+03  0.13779678624E+03  0.00000000000E+00 0. -1.
         23    2    1    2    0    0  0.17369379720E+02 -0.37521281739E+01 -0.59417374732E+02  0.10984804635E+03  0.90666394264E+02 0.  0.
         13    1    3    3    0    0 -0.47906708207E+01 -0.40709999582E+02 -0.51850505137E+02  0.66096365072E+02  0.00000000000E+00 0. -1.
        -13    1    3    3    0    0  0.22160050541E+02  0.36957871408E+02 -0.75668695955E+01  0.43751681276E+02  0.00000000000E+00 0.  1.
         22    1    1    2    0    0 -0.17369379720E+02  0.37521281739E+01 -0.51679173474E+02  0.54648977929E+02  0.00000000000E+00 0. -1.
<mgrwt>
<rscale>  0 0.61185095E+02</rscale>
<asrwt>0</asrwt>
<pdfrwt beam="1">  1        2 0.21199506E-01 0.92391390E+02</pdfrwt>
<pdfrwt beam="2">  1       -2 0.41077289E-02 0.92391390E+02</pdfrwt>
<totfact> 0.59256146E+04</totfact>
</mgrwt>
</event>
<event>
 6    1  0.1828142E-002  0.9168774E+02  0.7546771E-02  0.1417995E+00
         -2   -1    0    0    0  501 -0.00000000000E+00  0.00000000000E+00  0.58610397699E+01  0.58610397699E+01  0.00000000000E+00 0.  1.
          2   -1    0    0  501    0  0.00000000000E+00 -0.00000000000E+00 -0.48020196449E+03  0.48020196449E+03  0.00000000000E+00 0. -1.
         23    2    1    2    0    0 -0.96739751587E+01 -0.75360234010E+01 -0.44340161430E+03  0.45278210323E+03  0.90863986251E+02 0.  0.
         13    1    3    3    0    0  0.38319373393E+02  0.49548166903E+01 -0.13507321100E+03  0.14049091400E+03  0.00000000000E+00 0.  1.
        -13    1    3    3    0    0 -0.47993348552E+02 -0.12490840091E+02 -0.30832840330E+03  0.31229118924E+03  0.00000000000E+00 0. -1.
         22    1    1    2    0    0  0.96739751587E+01  0.75360234010E+01 -0.30939310413E+02  0.33280901023E+02  0.00000000000E+00 0.  1.
<mgrwt>
<rscale>  0 0.55447412E+02</rscale>
<asrwt>0</asrwt>
<pdfrwt beam="1">  1        2 0.73877230E-01 0.91687739E+02</pdfrwt>
<pdfrwt beam="2">  1       -2 0.90169837E-03 0.91687739E+02</pdfrwt>
<totfact> 0.13879643E+05</totfact>
</mgrwt>
</event>
<event>
 6    1  0.1828142E-002  0.9414450E+02  0.7546771E-02  0.1418982E+00
          3   -1    0    0  501    0  0.00000000000E+00  0.00000000000E+00  0.39093263834E+03  0.39093263834E+03  0.00000000000E+00 0. -1.
         -3   -1    0    0    0  501 -0.00000000000E+00 -0.00000000000E+00 -0.71888117280E+01  0.71888117280E+01  0.00000000000E+00 0.  1.
         23    2    1    2    0    0  0.29463763776E+01  0.10760551292E+02  0.32657250812E+03  0.33987172684E+03  0.93481105302E+02 0.  0.
         11    1    3    3    0    0 -0.35208708347E+02 -0.90020432096E+01  0.62267999989E+02  0.72097113313E+02  0.00000000000E+00 0.  1.
        -11    1    3    3    0    0  0.38155084725E+02  0.19762594502E+02  0.26430450813E+03  0.26777461353E+03  0.00000000000E+00 0. -1.
         22    1    1    2    0    0 -0.29463763776E+01 -0.10760551292E+02  0.57171318484E+02  0.58249723219E+02  0.00000000000E+00 0.  1.
<mgrwt>
<rscale>  0 0.55236935E+02</rscale>
<asrwt>0</asrwt>
<pdfrwt beam="1">  1        3 0.60143467E-01 0.94144504E+02</pdfrwt>
<pdfrwt beam="2">  1       -3 0.11059713E-02 0.94144504E+02</pdfrwt>
<totfact> 0.13370842E+04</totfact>
</mgrwt>
</event>
<event>
 6    1  0.1828142E-002  0.1041680E+03  0.7546771E-02  0.1315924E+00
         -4   -1    0    0    0  501 -0.00000000000E+00  0.00000000000E+00  0.55909529202E+03  0.55909529202E+03  0.00000000000E+00 0.  1.
          4   -1    0    0  501    0  0.00000000000E+00 -0.00000000000E+00 -0.11892288364E+02  0.11892288364E+02  0.00000000000E+00 0. -1.
         23    2    1    2    0    0 -0.42404051564E+02 -0.17242091412E+02  0.46849754004E+03  0.47993845458E+03  0.93571266222E+02 0.  0.
         13    1    3    3    0    0 -0.31143357441E+02 -0.22683546198E+02  0.46548163935E+03  0.46707345092E+03  0.00000000000E+00 0.  1.
        -13    1    3    3    0    0 -0.11260694123E+02  0.54414547868E+01  0.30159006852E+01  0.12865003664E+02  0.00000000000E+00 0. -1.
         22    1    1    2    0    0  0.42404051564E+02  0.17242091412E+02  0.78705463615E+02  0.91049125796E+02  0.00000000000E+00 0. -1.
<mgrwt>
<rscale>  0 0.84812328E+02</rscale>
<asrwt>0</asrwt>
<pdfrwt beam="1">  1        4 0.18295833E-02 0.10416801E+03</pdfrwt>
<pdfrwt beam="2">  1       -4 0.86014640E-01 0.10416801E+03</pdfrwt>
<totfact> 0.21792147E+03</totfact>
</mgrwt>
</event>
<event>
 6    1  0.1828142E-002  0.9454654E+02  0.7546771E-02  0.1366478E+00
          2   -1    0    0  501    0  0.00000000000E+00  0.00000000000E+00  0.64788168149E+02  0.64788168149E+02  0.00000000000E+00 0.  1.
         -2   -1    0    0    0  501 -0.00000000000E+00 -0.00000000000E+00 -0.57716203242E+02  0.57716203242E+02  0.00000000000E+00 0. -1.
         23    2    1    2    0    0 -0.13011039908E+02 -0.21967681416E+02 -0.41000269021E+01  0.94635399626E+02  0.91033963198E+02 0.  0.
         11    1    3    3    0    0 -0.25771965504E+02  0.14358684438E+02 -0.34633393026E+02  0.45495471613E+02  0.00000000000E+00 0. -1.
        -11    1    3    3    0    0  0.12760925596E+02 -0.36326365855E+02  0.30533366124E+02  0.49139928013E+02  0.00000000000E+00 0.  1.
         22    1    1    2    0    0  0.13011039908E+02  0.21967681416E+02  0.11171991809E+02  0.27868971765E+02  0.00000000000E+00 0. -1.
<mgrwt>
<rscale>  0 0.68155992E+02</rscale>
<asrwt>0</asrwt>
<pdfrwt beam="1">  1        2 0.99674105E-02 0.94546542E+02</pdfrwt>
<pdfrwt beam="2">  1       -2 0.88794159E-02 0.94546542E+02</pdfrwt>
<totfact> 0.44816479E+04</totfact>
</mgrwt>
</event>
<event>
 6    1  0.1828142E-002  0.9976494E+02  0.7546771E-02  0.1324970E+00
          2   -1    0    0  501    0  0.00000000000E+00  0.00000000000E+00  0.12930825074E+02  0.12930825074E+02  0.00000000000E+00 0. -1.
         -2   -1    0    0    0  501 -0.00000000000E+00 -0.00000000000E+00 -0.42170684652E+03  0.42170684652E+03  0.00000000000E+00 0.  1.
         23    2    1    2    0    0 -0.21929494346E+02 -0.38532802770E+02 -0.32336488396E+03  0.33840492239E+03  0.89372052185E+02 0.  0.
         11    1    3    3    0    0 -0.12526026590E+02 -0.61061281035E+02 -0.13781402511E+03  0.15125503926E+03  0.00000000000E+00 0.  1.
        -11    1    3    3    0    0 -0.94034677567E+01  0.22528478265E+02 -0.18555085885E+03  0.18714988314E+03  0.00000000000E+00 0. -1.
         22    1    1    2    0    0  0.21929494346E+02  0.38532802770E+02 -0.85411137485E+02  0.96232749198E+02  0.00000000000E+00 0. -1.
<mgrwt>
<rscale>  0 0.81455901E+02</rscale>
<asrwt>0</asrwt>
<pdfrwt beam="1">  1        2 0.19893579E-02 0.99764940E+02</pdfrwt>
<pdfrwt beam="2">  1       -2 0.64877971E-01 0.99764940E+02</pdfrwt>
<totfact> 0.11168527E+04</totfact>
</mgrwt>
</event>
<event>
 6    1  0.1828142E-002  0.6598381E+02  0.7546771E-02  0.1497703E+00
         -2   -1    0    0    0  501 -0.00000000000E+00  0.00000000000E+00  0.38770949584E+03  0.38770949584E+03  0.00000000000E+00 0.  1.
          2   -1    0    0  501    0  0.00000000000E+00 -0.00000000000E+00 -0.54679704818E+01  0.54679704818E+01  0.00000000000E+00 0. -1.
         23    2    1    2    0    0 -0.86545160813E+01 -0.55652711752E+01  0.37458424942E+03  0.38035144719E+03  0.65176610645E+02 0.  0.
         11    1    3    3    0    0 -0.22636903129E+02 -0.30025417010E+02  0.19908406222E+03  0.20260409394E+03  0.00000000000E+00 0. -1.
        -11    1    3    3    0    0  0.13982387047E+02  0.24460145835E+02  0.17550018720E+03  0.17774735326E+03  0.00000000000E+00 0.  1.
         22    1    1    2    0    0  0.86545160813E+01  0.55652711752E+01  0.76572759298E+01  0.12826019122E+02  0.00000000000E+00 0. -1.
<mgrwt>
<rscale>  0 0.41464473E+02</rscale>
<asrwt>0</asrwt>
<pdfrwt beam="1">  1        2 0.84122653E-03 0.65983812E+02</pdfrwt>
<pdfrwt beam="2">  1       -2 0.59647593E-01 0.65983812E+02</pdfrwt>
<totfact> 0.40178366E+04</totfact>
</mgrwt>
</event>
<event>
 6    1  0.1828142E-002  0.9294471E+02  0.7546771E-02  0.1409888E+00
          4   -1    0    0  501    0  0.00000000000E+00  0.00000000000E+00  0.22195739450E+02  0.22195739450E+02  0.00000000000E+00 0. -1.
         -4   -1    0    0    0  501 -0.00000000000E+00 -0.00000000000E+00 -0.20170819536E+03  0.20170819536E+03  0.00000000000E+00 0.  1.
         23    2    1    2    0    0 -0.10985832066E+02  0.75852066967E+01 -0.18683547634E+03  0.20867729714E+03  0.91980950502E+02 0.  0.
         11    1    3    3    0    0  0.12412354197E+02  0.35330633303E+02 -0.15784394937E+03  0.16222525247E+03  0.00000000000E+00 0. -1.
        -11    1    3    3    0    0 -0.23398186262E+02 -0.27745426607E+02 -0.28991526973E+02  0.46452044672E+02  0.00000000000E+00 0.  1.
         22    1    1    2    0    0  0.10985832066E+02 -0.75852066967E+01  0.73230204248E+01  0.15226637677E+02  0.00000000000E+00 0. -1.
<mgrwt>
<rscale>  0 0.57218865E+02</rscale>
<asrwt>0</asrwt>
<pdfrwt beam="1">  1        4 0.34147293E-02 0.92944710E+02</pdfrwt>
<pdfrwt beam="2">  1       -4 0.31032029E-01 0.92944710E+02</pdfrwt>
<totfact> 0.64584463E+03</totfact>
</mgrwt>
</event>
<event>
 6    1  0.1828142E-002  0.7872531E+02  0.7546771E-02  0.1452112E+00
          2   -1    0    0  501    0  0.00000000000E+00  0.00000000000E+00  0.12701219966E+03  0.12701219966E+03  0.00000000000E+00 0. -1.
         -2   -1    0    0    0  501 -0.00000000000E+00 -0.00000000000E+00 -0.18445134253E+02  0.18445134253E+02  0.00000000000E+00 0.  1.
         23    2    1    2    0    0  0.43356371683E+01 -0.10749935828E+02  0.70547634500E+02  0.10571018312E+03  0.77867292307E+02 0.  0.
         13    1    3    3    0    0 -0.21701933988E+02  0.25629382399E+02  0.35601493075E+02  0.48941858262E+02  0.00000000000E+00 0.  1.
        -13    1    3    3    0    0  0.26037571156E+02 -0.36379318227E+02  0.34946141425E+02  0.56768324855E+02  0.00000000000E+00 0. -1.
         22    1    1    2    0    0 -0.43356371683E+01  0.10749935828E+02  0.38019430909E+02  0.39747150799E+02  0.00000000000E+00 0. -1.
<mgrwt>
<rscale>  0 0.48766217E+02</rscale>
<asrwt>0</asrwt>
<pdfrwt beam="1">  1        2 0.19540338E-01 0.78725308E+02</pdfrwt>
<pdfrwt beam="2">  1       -2 0.28377130E-02 0.78725308E+02</pdfrwt>
<totfact> 0.10858963E+05</totfact>
</mgrwt>
</event>
<event>
 6    1  0.1828142E-002  0.9546556E+02  0.7546771E-02  0.1379167E+00
         -1   -1    0    0    0  501 -0.00000000000E+00  0.00000000000E+00  0.22100156107E+02  0.22100156107E+02  0.00000000000E+00 0.  1.
          1   -1    0    0  501    0  0.00000000000E+00 -0.00000000000E+00 -0.15113327601E+03  0.15113327601E+03  0.00000000000E+00 0. -1.
         23    2    1    2    0    0 -0.18497685004E+02  0.79150007787E+01 -0.10627638975E+03  0.14285777813E+03  0.93321284636E+02 0.  0.
         11    1    3    3    0    0 -0.21502819334E+01  0.39775060037E+02 -0.98450342222E+02  0.10620333797E+03  0.00000000000E+00 0. -1.
        -11    1    3    3    0    0 -0.16347403070E+02 -0.31860059258E+02 -0.78260475244E+01  0.36654440153E+02  0.00000000000E+00 0.  1.
         22    1    1    2    0    0  0.18497685004E+02 -0.79150007787E+01 -0.22756730156E+02  0.30375653988E+02  0.00000000000E+00 0. -1.
<mgrwt>
<rscale>  0 0.64683226E+02</rscale>
<asrwt>0</asrwt>
<pdfrwt beam="1">  1        1 0.23251274E-01 0.95465563E+02</pdfrwt>
<pdfrwt beam="2">  1       -1 0.34000239E-02 0.95465563E+02</pdfrwt>
<totfact> 0.57158947E+04</totfact>
</mgrwt>
</event>
<event>
 6    1  0.1828142E-002  0.1002067E+03  0.7546771E-02  0.1353388E+00
          2   -1    0    0  501    0  0.00000000000E+00  0.00000000000E+00  0.30489817232E+02  0.30489817232E+02  0.00000000000E+00 0. -1.
         -2   -1    0    0    0  501 -0.00000000000E+00 -0.00000000000E+00 -0.14321425571E+03  0.14321425571E+03  0.00000000000E+00 0.  1.
         23    2    1    2    0    0 -0.15755880828E+02 -0.21583772330E+02 -0.10656865449E+03  0.14628144205E+03  0.96577819189E+02 0.  0.
         11    1    3    3    0    0 -0.93060392816E+01  0.12280604501E+02 -0.11051428119E+03  0.11158325125E+03  0.00000000000E+00 0.  1.
        -11    1    3    3    0    0 -0.64498415462E+01 -0.33864376832E+02  0.39456267005E+01  0.34698190792E+02  0.00000000000E+00 0. -1.
         22    1    1    2    0    0  0.15755880828E+02  0.21583772330E+02 -0.61557839902E+01  0.27422630895E+02  0.00000000000E+00 0. -1.
<mgrwt>
<rscale>  0 0.72010027E+02</rscale>
<asrwt>0</asrwt>
<pdfrwt beam="1">  1        2 0.46907411E-02 0.10020670E+03</pdfrwt>
<pdfrwt beam="2">  1       -2 0.22032962E-01 0.10020670E+03</pdfrwt>
<totfact> 0.26936298E+04</totfact>
</mgrwt>
</event>
<event>
 6    1  0.1828142E-002  0.9132653E+02  0.7546771E-02  0.1426966E+00
          2   -1    0    0  501    0  0.00000000000E+00  0.00000000000E+00  0.18408370127E+02  0.18408370127E+02  0.00000000000E+00 0. -1.
         -2   -1    0    0    0  501 -0.00000000000E+00 -0.00000000000E+00 -0.14212017335E+03  0.14212017335E+03  0.00000000000E+00 0.  1.
         23    2    1    2    0    0 -0.52316340359E+01 -0.94653739361E+01 -0.10772954171E+03  0.14123097935E+03  0.90683912966E+02 0.  0.
         11    1    3    3    0    0 -0.11373631137E+02 -0.43497353475E+02 -0.93668621615E+02  0.10389990337E+03  0.00000000000E+00 0.  1.
        -11    1    3    3    0    0  0.61419971008E+01  0.34031979539E+02 -0.14060920098E+02  0.37331075978E+02  0.00000000000E+00 0. -1.
         22    1    1    2    0    0  0.52316340359E+01  0.94653739361E+01 -0.15982261508E+02  0.19297564130E+02  0.00000000000E+00 0.  1.
<mgrwt>
<rscale>  0 0.53573982E+02</rscale>
<asrwt>0</asrwt>
<pdfrwt beam="1">  1        2 0.28320568E-02 0.91326532E+02</pdfrwt>
<pdfrwt beam="2">  1       -2 0.21864643E-01 0.91326532E+02</pdfrwt>
<totfact> 0.52361811E+04</totfact>
</mgrwt>
</event>
<event>
 6    1  0.1828142E-002  0.9327113E+02  0.7546771E-02  0.1367551E+00
          2   -1    0    0  501    0  0.00000000000E+00  0.00000000000E+00  0.26952285628E+03  0.26952285628E+03  0.00000000000E+00 0. -1.
         -2   -1    0    0    0  501 -0.00000000000E+00 -0.00000000000E+00 -0.13509941438E+02  0.13509941438E+02  0.00000000000E+00 0.  1.
         23    2    1    2    0    0  0.25778676707E+02  0.42293778389E+01  0.18131296595E+03  0.20389677448E+03  0.89538121554E+02 0.  0.
         13    1    3    3    0    0 -0.40737825365E+01  0.18492475772E+02  0.16662604428E+03  0.16769855693E+03  0.00000000000E+00 0. -1.
        -13    1    3    3    0    0  0.29852459244E+02 -0.14263097934E+02  0.14686921672E+02  0.36198217549E+02  0.00000000000E+00 0.  1.
         22    1    1    2    0    0 -0.25778676707E+02 -0.42293778389E+01  0.74699948897E+02  0.79136023244E+02  0.00000000000E+00 0. -1.
<mgrwt>
<rscale>  0 0.67852758E+02</rscale>
<asrwt>0</asrwt>
<pdfrwt beam="1">  1        2 0.41465051E-01 0.93271126E+02</pdfrwt>
<pdfrwt beam="2">  1       -2 0.20784527E-02 0.93271126E+02</pdfrwt>
<totfact> 0.77738006E+04</totfact>
</mgrwt>
</event>
<event>
 6    1  0.1828142E-002  0.9370774E+02  0.7546771E-02  0.1329298E+00
          2   -1    0    0  501    0  0.00000000000E+00  0.00000000000E+00  0.34827103011E+03  0.34827103011E+03  0.00000000000E+00 0. -1.
         -2   -1    0    0    0  501 -0.00000000000E+00 -0.00000000000E+00 -0.17359326782E+02  0.17359326782E+02  0.00000000000E+00 0.  1.
         23    2    1    2    0    0  0.31619850426E+02  0.38164790518E+02  0.14056310239E+03  0.16893527293E+03  0.79528450943E+02 0.  0.
         11    1    3    3    0    0 -0.10332074222E+02  0.48155528650E+02  0.88967336841E+02  0.10169018498E+03  0.00000000000E+00 0. -1.
        -11    1    3    3    0    0  0.41951924648E+02 -0.99907381319E+01  0.51595765547E+02  0.67245087943E+02  0.00000000000E+00 0.  1.
         22    1    1    2    0    0 -0.31619850426E+02 -0.38164790518E+02  0.19034860094E+03  0.19669508397E+03  0.00000000000E+00 0. -1.
<mgrwt>
<rscale>  0 0.79913148E+02</rscale>
<asrwt>0</asrwt>
<pdfrwt beam="1">  1        2 0.53580153E-01 0.93707741E+02</pdfrwt>
<pdfrwt beam="2">  1       -2 0.26706659E-02 0.93707741E+02</pdfrwt>
<totfact> 0.41416706E+04</totfact>
</mgrwt>
</event>
<event>
 6    1  0.1828142E-002  0.9120870E+02  0.7546771E-02  0.1411166E+00
          2   -1    0    0  501    0  0.00000000000E+00  0.00000000000E+00  0.63744039328E+03  0.63744039328E+03  0.00000000000E+00 0.  1.
         -2   -1    0    0    0  501 -0.00000000000E+00 -0.00000000000E+00 -0.43605412338E+01  0.43605412338E+01  0.00000000000E+00 0. -1.
         23    2    1    2    0    0 -0.54723211987E+01 -0.12721101193E+02  0.56657977007E+03  0.57387425627E+03  0.90151280845E+02 0.  0.
         11    1    3    3    0    0  0.38007995517E+02 -0.23784150729E+02  0.33513978577E+03  0.33812567124E+03  0.00000000000E+00 0.  1.
        -11    1    3    3    0    0 -0.43480316716E+02  0.11063049535E+02  0.23143998431E+03  0.23574858503E+03  0.00000000000E+00 0. -1.
         22    1    1    2    0    0  0.54723211987E+01  0.12721101193E+02  0.66500081970E+02  0.67926678241E+02  0.00000000000E+00 0. -1.
<mgrwt>
<rscale>  0 0.56934503E+02</rscale>
<asrwt>0</asrwt>
<pdfrwt beam="1">  1        2 0.98067679E-01 0.91208696E+02</pdfrwt>
<pdfrwt beam="2">  1       -2 0.67085300E-03 0.91208696E+02</pdfrwt>
<totfact> 0.15402521E+05</totfact>
</mgrwt>
</event>
<event>
 6    1  0.1828142E-002  0.1723386E+03  0.7546771E-02  0.1183006E+00
          2   -1    0    0  501    0  0.00000000000E+00  0.00000000000E+00  0.20839269213E+04  0.20839269213E+04  0.00000000000E+00 0. -1.
         -2   -1    0    0    0  501 -0.00000000000E+00 -0.00000000000E+00 -0.14023428552E+02  0.14023428552E+02  0.00000000000E+00 0.  1.
         23    2    1    2    0    0  0.37232833313E+02 -0.14046927521E+03  0.14976691463E+04  0.15075521381E+04  0.92642734337E+02 0.  0.
         11    1    3    3    0    0 -0.27033030959E+02 -0.47004514775E+02  0.33460210452E+03  0.33896722190E+03  0.00000000000E+00 0.  1.
        -11    1    3    3    0    0  0.64265864272E+02 -0.93464760440E+02  0.11630670418E+04  0.11685849162E+04  0.00000000000E+00 0. -1.
         22    1    1    2    0    0 -0.37232833313E+02  0.14046927521E+03  0.57223434643E+03  0.59039821171E+03  0.00000000000E+00 0.  1.
<mgrwt>
<rscale>  0 0.16514605E+03</rscale>
<asrwt>0</asrwt>
<pdfrwt beam="1">  1        2 0.32060390E+00 0.17233855E+03</pdfrwt>
<pdfrwt beam="2">  1       -2 0.21574522E-02 0.17233855E+03</pdfrwt>
<totfact> 0.46288449E+03</totfact>
</mgrwt>
</event>
<event>
 6    1  0.1828142E-002  0.9199096E+02  0.7546771E-02  0.1402373E+00
          2   -1    0    0  501    0  0.00000000000E+00  0.00000000000E+00  0.80377574749E+02  0.80377574749E+02  0.00000000000E+00 0. -1.
         -2   -1    0    0    0  501 -0.00000000000E+00 -0.00000000000E+00 -0.41820999901E+02  0.41820999901E+02  0.00000000000E+00 0.  1.
         23    2    1    2    0    0 -0.15261114159E+02  0.26716586433E+01  0.13838125279E+02  0.93025965675E+02  0.90676883566E+02 0.  0.
         11    1    3    3    0    0  0.22626812464E+02  0.12657727515E+02 -0.26302415726E+02  0.36932475968E+02  0.00000000000E+00 0.  1.
        -11    1    3    3    0    0 -0.37887926623E+02 -0.99860688720E+01  0.40140541004E+02  0.56093489707E+02  0.00000000000E+00 0. -1.
         22    1    1    2    0    0  0.15261114159E+02 -0.26716586433E+01  0.24718449569E+02  0.29172608975E+02  0.00000000000E+00 0. -1.
<mgrwt>
<rscale>  0 0.58931049E+02</rscale>
<asrwt>0</asrwt>
<pdfrwt beam="1">  1        2 0.12365781E-01 0.91990959E+02</pdfrwt>
<pdfrwt beam="2">  1       -2 0.64340000E-02 0.91990959E+02</pdfrwt>
<totfact> 0.56327114E+04</totfact>
</mgrwt>
</event>
<event>
 6    1  0.1828142E-002  0.1025282E+03  0.7546771E-02  0.1316861E+00
         -2   -1    0    0    0  501 -0.00000000000E+00  0.00000000000E+00  0.19158677830E+03  0.19158677830E+03  0.00000000000E+00 0.  1.
          2   -1    0    0  501    0  0.00000000000E+00 -0.00000000000E+00 -0.32277021794E+02  0.32277021794E+02  0.00000000000E+00 0. -1.
         23    2    1    2    0    0 -0.43721358930E+02 -0.17799782345E+02  0.13838585222E+03  0.17222854810E+03  0.91014499978E+02 0.  0.
         11    1    3    3    0    0  0.25334131216E+02 -0.14536272985E+02  0.65786047730E+02  0.71978646228E+02  0.00000000000E+00 0.  1.
        -11    1    3    3    0    0 -0.69055490146E+02 -0.32635093604E+01  0.72599804489E+02  0.10024990187E+03  0.00000000000E+00 0. -1.
         22    1    1    2    0    0  0.43721358930E+02  0.17799782345E+02  0.20923904283E+02  0.51635251996E+02  0.00000000000E+00 0. -1.
<mgrwt>
<rscale>  0 0.84456161E+02</rscale>
<asrwt>0</asrwt>
<pdfrwt beam="1">  1        2 0.49656958E-02 0.10252818E+03</pdfrwt>
<pdfrwt beam="2">  1       -2 0.29474888E-01 0.10252818E+03</pdfrwt>
<totfact> 0.15116329E+04</totfact>
</mgrwt>
</event>
<event>
 6    1  0.1828142E-002  0.9054729E+02  0.7546771E-02  0.1416959E+00
          2   -1    0    0  501    0  0.00000000000E+00  0.00000000000E+00  0.23212400575E+02  0.23212400575E+02  0.00000000000E+00 0. -1.
         -2   -1    0    0    0  501 -0.00000000000E+00 -0.00000000000E+00 -0.12718276985E+03  0.12718276985E+03  0.00000000000E+00 0.  1.
         23    2    1    2    0    0  0.52647065446E+01  0.11817662871E+02 -0.10340427935E+03  0.13744546971E+03  0.89618289788E+02 0.  0.
         13    1    3    3    0    0  0.22690199998E+02 -0.22533996699E+02 -0.91809764490E+02  0.97219643276E+02  0.00000000000E+00 0. -1.
        -13    1    3    3    0    0 -0.17425493453E+02  0.34351659570E+02 -0.11594514862E+02  0.40225826433E+02  0.00000000000E+00 0.  1.
         22    1    1    2    0    0 -0.52647065446E+01 -0.11817662871E+02 -0.56608992021E+00  0.12949700712E+02  0.00000000000E+00 0. -1.
<mgrwt>
<rscale>  0 0.55669548E+02</rscale>
<asrwt>0</asrwt>
<pdfrwt beam="1">  1        2 0.35711384E-02 0.90547292E+02</pdfrwt>
<pdfrwt beam="2">  1       -2 0.19566581E-01 0.90547292E+02</pdfrwt>
<totfact> 0.46378858E+04</totfact>
</mgrwt>
</event>
<event>
 6    1  0.1828142E-002  0.9109694E+02  0.7546771E-02  0.1372871E+00
          4   -1    0    0  501    0  0.00000000000E+00  0.00000000000E+00  0.29157140432E+02  0.29157140432E+02  0.00000000000E+00 0. -1.
         -4   -1    0    0    0  501 -0.00000000000E+00 -0.00000000000E+00 -0.15178125017E+03  0.15178125017E+03  0.00000000000E+00 0.  1.
         23    2    1    2    0    0 -0.53357584539E+01  0.25114951464E+02 -0.12552740766E+03  0.15509926825E+03  0.87403786137E+02 0.  0.
         13    1    3    3    0    0 -0.20028366867E+02  0.88815011779E+01 -0.13076390804E+03  0.13258663654E+03  0.00000000000E+00 0.  1.
        -13    1    3    3    0    0  0.14692608413E+02  0.16233450286E+02  0.52365003792E+01  0.22512631708E+02  0.00000000000E+00 0. -1.
         22    1    1    2    0    0  0.53357584539E+01 -0.25114951464E+02  0.29032979234E+01  0.25839122356E+02  0.00000000000E+00 0. -1.
<mgrwt>
<rscale>  0 0.66375463E+02</rscale>
<asrwt>0</asrwt>
<pdfrwt beam="1">  1        4 0.44857139E-02 0.91096943E+02</pdfrwt>
<pdfrwt beam="2">  1       -4 0.23350961E-01 0.91096943E+02</pdfrwt>
<totfact> 0.70712441E+03</totfact>
</mgrwt>
</event>
<event>
 6    1  0.1828142E-002  0.8434266E+02  0.7546771E-02  0.1389979E+00
          2   -1    0    0  501    0  0.00000000000E+00  0.00000000000E+00  0.33398649173E+03  0.33398649173E+03  0.00000000000E+00 0. -1.
         -2   -1    0    0    0  501 -0.00000000000E+00 -0.00000000000E+00 -0.90926856199E+01  0.90926856199E+01  0.00000000000E+00 0.  1.
         23    2    1    2    0    0  0.23134449776E+02 -0.80289624083E+01  0.22680250938E+03  0.24197739944E+03  0.80709457757E+02 0.  0.
         13    1    3    3    0    0  0.47865257521E+02  0.22942978687E+01  0.84223671190E+02  0.96901875467E+02  0.00000000000E+00 0.  1.
        -13    1    3    3    0    0 -0.24730807745E+02 -0.10323260277E+02  0.14257883819E+03  0.14507552397E+03  0.00000000000E+00 0. -1.
         22    1    1    2    0    0 -0.23134449776E+02  0.80289624083E+01  0.98091296726E+02  0.10110177791E+03  0.00000000000E+00 0. -1.
<mgrwt>
<rscale>  0 0.61911913E+02</rscale>
<asrwt>0</asrwt>
<pdfrwt beam="1">  1        2 0.51382528E-01 0.84342656E+02</pdfrwt>
<pdfrwt beam="2">  1       -2 0.13988750E-02 0.84342656E+02</pdfrwt>
<totfact> 0.10782956E+05</totfact>
</mgrwt>
</event>
<event>
 6    1  0.1828142E-002  0.9383419E+02  0.7546771E-02  0.1381949E+00
         -2   -1    0    0    0  501 -0.00000000000E+00  0.00000000000E+00  0.12231269424E+02  0.12231269424E+02  0.00000000000E+00 0.  1.
          2   -1    0    0  501    0  0.00000000000E+00 -0.00000000000E+00 -0.31466981501E+03  0.31466981501E+03  0.00000000000E+00 0. -1.
         23    2    1    2    0    0  0.18419087107E+02 -0.84111470546E+01 -0.18192934060E+03  0.20470256296E+03  0.91623382092E+02 0.  0.
         13    1    3    3    0    0  0.18298717537E+02 -0.68844627809E+01 -0.19276766626E+03  0.19375657937E+03  0.00000000000E+00 0. -1.
        -13    1    3    3    0    0  0.12036957043E+00 -0.15266842737E+01  0.10838325661E+02  0.10945983594E+02  0.00000000000E+00 0.  1.
         22    1    1    2    0    0 -0.18419087107E+02  0.84111470546E+01 -0.12050920498E+03  0.12219852147E+03  0.00000000000E+00 0. -1.
<mgrwt>
<rscale>  0 0.63954358E+02</rscale>
<asrwt>0</asrwt>
<pdfrwt beam="1">  1        2 0.48410733E-01 0.93834185E+02</pdfrwt>
<pdfrwt beam="2">  1       -2 0.18817341E-02 0.93834185E+02</pdfrwt>
<totfact> 0.76328040E+04</totfact>
</mgrwt>
</event>
<event>
 6    1  0.1828142E-002  0.9913109E+02  0.7546771E-02  0.1369197E+00
         -2   -1    0    0    0  501 -0.00000000000E+00  0.00000000000E+00  0.73788772782E+01  0.73788772782E+01  0.00000000000E+00 0.  1.
          2   -1    0    0  501    0  0.00000000000E+00 -0.00000000000E+00 -0.49115036063E+03  0.49115036063E+03  0.00000000000E+00 0. -1.
         23    2    1    2    0    0 -0.42868860308E+01 -0.20734148213E+02 -0.40603358091E+03  0.41795961727E+03  0.96843639681E+02 0.  0.
         13    1    3    3    0    0 -0.12347850568E+02 -0.19093340778E+02 -0.40868466324E+03  0.40931672217E+03  0.00000000000E+00 0. -1.
        -13    1    3    3    0    0  0.80609645367E+01 -0.16408074346E+01  0.26510823282E+01  0.86428951059E+01  0.00000000000E+00 0.  1.
         22    1    1    2    0    0  0.42868860308E+01  0.20734148213E+02 -0.77737902438E+02  0.80569620636E+02  0.00000000000E+00 0.  1.
<mgrwt>
<rscale>  0 0.67390916E+02</rscale>
<asrwt>0</asrwt>
<pdfrwt beam="1">  1        2 0.75561589E-01 0.99131089E+02</pdfrwt>
<pdfrwt beam="2">  1       -2 0.11352120E-02 0.99131089E+02</pdfrwt>
<totfact> 0.98852425E+04</totfact>
</mgrwt>
</event>
<event>
 6    1  0.1828142E-002  0.9468836E+02  0.7546771E-02  0.1381088E+00
          1   -1    0    0  501    0  0.00000000000E+00  0.00000000000E+00  0.13753107373E+02  0.13753107373E+02  0.00000000000E+00 0. -1.
         -1   -1    0    0    0  501 -0.00000000000E+00 -0.00000000000E+00 -0.26439360484E+03  0.26439360484E+03  0.00000000000E+00 0.  1.
         23    2    1    2    0    0 -0.19797951213E+02 -0.27180484296E+01 -0.23294558495E+03  0.25145482977E+03  0.92555600625E+02 0.  0.
         13    1    3    3    0    0 -0.28218527228E+01 -0.20367113564E+02 -0.36839755191E+01  0.20889084311E+02  0.00000000000E+00 0. -1.
        -13    1    3    3    0    0 -0.16976098490E+02  0.17649065134E+02 -0.22926160943E+03  0.23056574546E+03  0.00000000000E+00 0.  1.
         22    1    1    2    0    0  0.19797951213E+02  0.27180484296E+01 -0.17694912521E+02  0.26691882448E+02  0.00000000000E+00 0. -1.
<mgrwt>
<rscale>  0 0.64178743E+02</rscale>
<asrwt>0</asrwt>
<pdfrwt beam="1">  1        1 0.21158628E-02 0.94688362E+02</pdfrwt>
<pdfrwt beam="2">  1       -1 0.40675936E-01 0.94688362E+02</pdfrwt>
<totfact> 0.29475217E+04</totfact>
</mgrwt>
</event>
<event>
 6    1  0.1828142E-002  0.1340377E+03  0.7546771E-02  0.1237306E+00
         -1   -1    0    0    0  501 -0.00000000000E+00  0.00000000000E+00  0.31032696551E+02  0.31032696551E+02  0.00000000000E+00 0.  1.
          1   -1    0    0  501    0  0.00000000000E+00 -0.00000000000E+00 -0.43804384699E+03  0.43804384699E+03  0.00000000000E+00 0. -1.
         23    2    1    2    0    0  0.54767674809E+02 -0.79880208849E+02 -0.20324171812E+03  0.24346110187E+03  0.92659409519E+02 0.  0.
         11    1    3    3    0    0  0.32624067128E+02  0.70180507940E+01 -0.10624600548E+03  0.11136335337E+03  0.00000000000E+00 0. -1.
        -11    1    3    3    0    0  0.22143607681E+02 -0.86898259643E+02 -0.96995712634E+02  0.13209774850E+03  0.00000000000E+00 0.  1.
         22    1    1    2    0    0 -0.54767674809E+02  0.79880208849E+02 -0.20376943232E+03  0.22561544167E+03  0.00000000000E+00 0.  1.
<mgrwt>
<rscale>  0 0.12357985E+03</rscale>
<asrwt>0</asrwt>
<pdfrwt beam="1">  1        1 0.67391356E-01 0.13403773E+03</pdfrwt>
<pdfrwt beam="2">  1       -1 0.47742614E-02 0.13403773E+03</pdfrwt>
<totfact> 0.96474223E+03</totfact>
</mgrwt>
</event>
<event>
 6    1  0.1828142E-002  0.9154219E+02  0.7546771E-02  0.1427416E+00
         -2   -1    0    0    0  501 -0.00000000000E+00  0.00000000000E+00  0.60810655720E+01  0.60810655720E+01  0.00000000000E+00 0.  1.
          2   -1    0    0  501    0  0.00000000000E+00 -0.00000000000E+00 -0.45322309855E+03  0.45322309855E+03  0.00000000000E+00 0. -1.
         23    2    1    2    0    0 -0.31172144357E+01  0.10199673017E+02 -0.42473992107E+03  0.43449277615E+03  0.90918763820E+02 0.  0.
         13    1    3    3    0    0 -0.17785655393E+02  0.64638220837E+01 -0.41711500814E+03  0.41754405821E+03  0.00000000000E+00 0. -1.
        -13    1    3    3    0    0  0.14668440957E+02  0.37358509333E+01 -0.76249129318E+01  0.16948717932E+02  0.00000000000E+00 0.  1.
         22    1    1    2    0    0  0.31172144357E+01 -0.10199673017E+02 -0.22402111907E+02  0.24811387977E+02  0.00000000000E+00 0.  1.
<mgrwt>
<rscale>  0 0.53482298E+02</rscale>
<asrwt>0</asrwt>
<pdfrwt beam="1">  1        2 0.69726652E-01 0.91542187E+02</pdfrwt>
<pdfrwt beam="2">  1       -2 0.93554827E-03 0.91542187E+02</pdfrwt>
<totfact> 0.14012855E+05</totfact>
</mgrwt>
</event>
<event>
 6    1  0.1828142E-002  0.9145689E+02  0.7546771E-02  0.1401850E+00
         -2   -1    0    0    0  501 -0.00000000000E+00  0.00000000000E+00  0.45639381341E+02  0.45639381341E+02  0.00000000000E+00 0.  1.
          2   -1    0    0  501    0  0.00000000000E+00 -0.00000000000E+00 -0.91011047956E+02  0.91011047956E+02  0.00000000000E+00 0. -1.
         23    2    1    2    0    0  0.71804065029E+01 -0.14182899640E+02 -0.31232687504E+01  0.91510203312E+02  0.90064696873E+02 0.  0.
         11    1    3    3    0    0 -0.33416309022E+01  0.32372199672E+02 -0.22954363413E+02  0.39824974681E+02  0.00000000000E+00 0. -1.
        -11    1    3    3    0    0  0.10522037405E+02 -0.46555099312E+02  0.19831094663E+02  0.51685228631E+02  0.00000000000E+00 0.  1.
         22    1    1    2    0    0 -0.71804065029E+01  0.14182899640E+02 -0.42248397865E+02  0.45140225984E+02  0.00000000000E+00 0. -1.
<mgrwt>
<rscale>  0 0.59052833E+02</rscale>
<asrwt>0</asrwt>
<pdfrwt beam="1">  1        2 0.14001700E-01 0.91456889E+02</pdfrwt>
<pdfrwt beam="2">  1       -2 0.70214433E-02 0.91456889E+02</pdfrwt>
<totfact> 0.42622304E+04</totfact>
</mgrwt>
</event>
<event>
 6    1  0.1828142E-002  0.9255812E+02  0.7546771E-02  0.1399654E+00
          2   -1    0    0  501    0  0.00000000000E+00  0.00000000000E+00  0.39192453788E+03  0.39192453788E+03  0.00000000000E+00 0. -1.
         -2   -1    0    0    0  501 -0.00000000000E+00 -0.00000000000E+00 -0.75738811155E+01  0.75738811155E+01  0.00000000000E+00 0.  1.
         23    2    1    2    0    0  0.12875516286E+02 -0.92920276068E+01  0.31277991778E+03  0.32618749637E+03  0.91185991952E+02 0.  0.
         11    1    3    3    0    0 -0.24737721185E+02 -0.64662578735E+01  0.24372585166E+02  0.35324074623E+02  0.00000000000E+00 0.  1.
        -11    1    3    3    0    0  0.37613237471E+02 -0.28257697333E+01  0.28840733261E+03  0.29086342175E+03  0.00000000000E+00 0. -1.
         22    1    1    2    0    0 -0.12875516286E+02  0.92920276068E+01  0.71570738984E+02  0.73310922620E+02  0.00000000000E+00 0. -1.
<mgrwt>
<rscale>  0 0.59567855E+02</rscale>
<asrwt>0</asrwt>
<pdfrwt beam="1">  1        2 0.60296067E-01 0.92558121E+02</pdfrwt>
<pdfrwt beam="2">  1       -2 0.11652128E-02 0.92558121E+02</pdfrwt>
<totfact> 0.11993768E+05</totfact>
</mgrwt>
</event>
<event>
 6    1  0.1828142E-002  0.8909809E+02  0.7546771E-02  0.1419963E+00
          2   -1    0    0  501    0  0.00000000000E+00  0.00000000000E+00  0.22796037028E+02  0.22796037028E+02  0.00000000000E+00 0. -1.
         -2   -1    0    0    0  501 -0.00000000000E+00 -0.00000000000E+00 -0.11437982941E+03  0.11437982941E+03  0.00000000000E+00 0.  1.
         23    2    1    2    0    0 -0.76925278451E+01 -0.10435600333E+02 -0.78302610613E+02  0.11861605695E+03  0.88149834936E+02 0.  0.
         13    1    3    3    0    0 -0.21254127104E+02 -0.29094329960E+02  0.98201023019E+00  0.36044171496E+02  0.00000000000E+00 0. -1.
        -13    1    3    3    0    0  0.13561599258E+02  0.18658729627E+02 -0.79284620843E+02  0.82571885457E+02  0.00000000000E+00 0.  1.
         22    1    1    2    0    0  0.76925278451E+01  0.10435600333E+02 -0.13281181769E+02  0.18559809486E+02  0.00000000000E+00 0. -1.
<mgrwt>
<rscale>  0 0.55028764E+02</rscale>
<asrwt>0</asrwt>
<pdfrwt beam="1">  1        2 0.35070826E-02 0.89098093E+02</pdfrwt>
<pdfrwt beam="2">  1       -2 0.17596897E-01 0.89098093E+02</pdfrwt>
<totfact> 0.56500994E+04</totfact>
</mgrwt>
</event>
<event>
 6    1  0.1828142E-002  0.1033078E+03  0.7546771E-02  0.1315723E+00
          2   -1    0    0  501    0  0.00000000000E+00  0.00000000000E+00  0.57676258045E+03  0.57676258045E+03  0.00000000000E+00 0. -1.
         -2   -1    0    0    0  501 -0.00000000000E+00 -0.00000000000E+00 -0.10894954638E+02  0.10894954638E+02  0.00000000000E+00 0.  1.
         23    2    1    2    0    0  0.14621835029E+02  0.44771188930E+02  0.29122359011E+03  0.30900433887E+03  0.91946966147E+02 0.  0.
         13    1    3    3    0    0 -0.14552507002E+02  0.63888392646E+02  0.15285927752E+03  0.16631133725E+03  0.00000000000E+00 0.  1.
        -13    1    3    3    0    0  0.29174342031E+02 -0.19117203715E+02  0.13836431260E+03  0.14269300162E+03  0.00000000000E+00 0. -1.
         22    1    1    2    0    0 -0.14621835029E+02 -0.44771188930E+02  0.27464403570E+03  0.27865319622E+03  0.00000000000E+00 0. -1.
<mgrwt>
<rscale>  0 0.84888984E+02</rscale>
<asrwt>0</asrwt>
<pdfrwt beam="1">  1        2 0.88732681E-01 0.10330780E+03</pdfrwt>
<pdfrwt beam="2">  1       -2 0.16761473E-02 0.10330780E+03</pdfrwt>
<totfact> 0.47752392E+04</totfact>
</mgrwt>
</event>
<event>
 6    1  0.1828142E-002  0.1573914E+03  0.7546771E-02  0.1202128E+00
         -2   -1    0    0    0  501 -0.00000000000E+00  0.00000000000E+00  0.13511959315E+02  0.13511959315E+02  0.00000000000E+00 0.  1.
          2   -1    0    0  501    0  0.00000000000E+00 -0.00000000000E+00 -0.23648270818E+04  0.23648270818E+04  0.00000000000E+00 0. -1.
         23    2    1    2    0    0  0.30356678018E+02  0.12153529147E+03 -0.19843426664E+04  0.19905747590E+04  0.95287451528E+02 0.  0.
         13    1    3    3    0    0 -0.16523120581E+02  0.10498271617E+03 -0.12219243046E+04  0.12265371541E+04  0.00000000000E+00 0. -1.
        -13    1    3    3    0    0  0.46879798599E+02  0.16552575306E+02 -0.76241836177E+03  0.76403760485E+03  0.00000000000E+00 0.  1.
         22    1    1    2    0    0 -0.30356678018E+02 -0.12153529147E+03 -0.36697245606E+03  0.38776428211E+03  0.00000000000E+00 0.  1.
<mgrwt>
<rscale>  0 0.14866090E+03</rscale>
<asrwt>0</asrwt>
<pdfrwt beam="1">  1        2 0.36381934E+00 0.15739140E+03</pdfrwt>
<pdfrwt beam="2">  1       -2 0.20787642E-02 0.15739140E+03</pdfrwt>
<totfact> 0.34835822E+03</totfact>
</mgrwt>
</event>
<event>
 6    1  0.1828142E-002  0.9373026E+02  0.7546771E-02  0.1377313E+00
         -2   -1    0    0    0  501 -0.00000000000E+00  0.00000000000E+00  0.22203304426E+03  0.22203304426E+03  0.00000000000E+00 0.  1.
          2   -1    0    0  501    0  0.00000000000E+00 -0.00000000000E+00 -0.15058516571E+02  0.15058516571E+02  0.00000000000E+00 0. -1.
         23    2    1    2    0    0 -0.21828483157E+02  0.19183780454E+01  0.16709070839E+03  0.19158461748E+03  0.91132858913E+02 0.  0.
         13    1    3    3    0    0 -0.99967027374E-01 -0.39374615672E+02  0.39689090543E+02  0.55907014416E+02  0.00000000000E+00 0. -1.
        -13    1    3    3    0    0 -0.21728516129E+02  0.41292993718E+02  0.12740161785E+03  0.13567760307E+03  0.00000000000E+00 0.  1.
         22    1    1    2    0    0  0.21828483157E+02 -0.19183780454E+01  0.39883819292E+02  0.45506943344E+02  0.00000000000E+00 0.  1.
<mgrwt>
<rscale>  0 0.65175357E+02</rscale>
<asrwt>0</asrwt>
<pdfrwt beam="1">  1        2 0.23166950E-02 0.93730256E+02</pdfrwt>
<pdfrwt beam="2">  1       -2 0.34158928E-01 0.93730256E+02</pdfrwt>
<totfact> 0.31392603E+04</totfact>
</mgrwt>
</event>
<event>
 6    1  0.1828142E-002  0.1014738E+03  0.7546771E-02  0.1323308E+00
         -2   -1    0    0    0  501 -0.00000000000E+00  0.00000000000E+00  0.60119581060E+01  0.60119581060E+01  0.00000000000E+00 0.  1.
          2   -1    0    0  501    0  0.00000000000E+00 -0.00000000000E+00 -0.87981168944E+03  0.87981168944E+03  0.00000000000E+00 0. -1.
         23    2    1    2    0    0 -0.43392171564E+02 -0.53522705351E+00 -0.64709055325E+03  0.65499856562E+03  0.91726603725E+02 0.  0.
         11    1    3    3    0    0 -0.44496972048E+02 -0.18380211650E+02 -0.62371010715E+03  0.62556543259E+03  0.00000000000E+00 0. -1.
        -11    1    3    3    0    0  0.11048004838E+01  0.17844984596E+02 -0.23380446106E+02  0.29433133022E+02  0.00000000000E+00 0.  1.
         22    1    1    2    0    0  0.43392171564E+02  0.53522705351E+00 -0.22670917808E+03  0.23082508193E+03  0.00000000000E+00 0.  1.
<mgrwt>
<rscale>  0 0.82059076E+02</rscale>
<asrwt>0</asrwt>
<pdfrwt beam="1">  1        2 0.13535570E+00 0.10147382E+03</pdfrwt>
<pdfrwt beam="2">  1       -2 0.92491628E-03 0.10147382E+03</pdfrwt>
<totfact> 0.67453641E+04</totfact>
</mgrwt>
</event>
<event>
 6    1  0.1828142E-002  0.9130251E+02  0.7546771E-02  0.1419989E+00
         -2   -1    0    0    0  501 -0.00000000000E+00  0.00000000000E+00  0.69459084490E+02  0.69459084490E+02  0.00000000000E+00 0. -1.
          2   -1    0    0  501    0  0.00000000000E+00 -0.00000000000E+00 -0.38905155302E+02  0.38905155302E+02  0.00000000000E+00 0.  1.
         23    2    1    2    0    0  0.11954358819E+02 -0.14594864665E+01  0.23023792148E+02  0.94160727574E+02  0.90504755769E+02 0.  0.
         13    1    3    3    0    0 -0.12350358834E+02 -0.14465959591E+02  0.51274802067E+02  0.54689127596E+02  0.00000000000E+00 0. -1.
        -13    1    3    3    0    0  0.24304717653E+02  0.13006473125E+02 -0.28251009919E+02  0.39471599977E+02  0.00000000000E+00 0.  1.
         22    1    1    2    0    0 -0.11954358819E+02  0.14594864665E+01  0.75301370395E+01  0.14203512219E+02  0.00000000000E+00 0. -1.
<mgrwt>
<rscale>  0 0.55023321E+02</rscale>
<asrwt>0</asrwt>
<pdfrwt beam="1">  1        2 0.59854085E-02 0.91302506E+02</pdfrwt>
<pdfrwt beam="2">  1       -2 0.10686013E-01 0.91302506E+02</pdfrwt>
<totfact> 0.63100336E+04</totfact>
</mgrwt>
</event>
<event>
 6    1  0.1828142E-002  0.9805265E+02  0.7546771E-02  0.1368524E+00
          4   -1    0    0  501    0  0.00000000000E+00  0.00000000000E+00  0.51241786996E+03  0.51241786996E+03  0.00000000000E+00 0.  1.
         -4   -1    0    0    0  501 -0.00000000000E+00 -0.00000000000E+00 -0.70466560644E+01  0.70466560644E+01  0.00000000000E+00 0. -1.
         23    2    1    2    0    0 -0.16587630104E+01 -0.22062468457E+02  0.41089662420E+03  0.42243384991E+03  0.95523911987E+02 0.  0.
         13    1    3    3    0    0 -0.15289279988E+02 -0.28944862142E+02  0.40459178529E+03  0.40591388231E+03  0.00000000000E+00 0.  1.
        -13    1    3    3    0    0  0.13630516977E+02  0.68823936851E+01  0.63048389131E+01  0.16519967604E+02  0.00000000000E+00 0. -1.
         22    1    1    2    0    0  0.16587630104E+01  0.22062468457E+02  0.94474589689E+02  0.97030676108E+02  0.00000000000E+00 0.  1.
<mgrwt>
<rscale>  0 0.67579353E+02</rscale>
<asrwt>0</asrwt>
<pdfrwt beam="1">  1        4 0.78833489E-01 0.98052648E+02</pdfrwt>
<pdfrwt beam="2">  1       -4 0.10841013E-02 0.98052648E+02</pdfrwt>
<totfact> 0.57370490E+03</totfact>
</mgrwt>
</event>
<event>
 6    1  0.1828142E-002  0.1160049E+03  0.7546771E-02  0.1281267E+00
         -2   -1    0    0    0  501 -0.00000000000E+00  0.00000000000E+00  0.86991113399E+01  0.86991113399E+01  0.00000000000E+00 0.  1.
          2   -1    0    0  501    0  0.00000000000E+00 -0.00000000000E+00 -0.12066481661E+04  0.12066481661E+04  0.00000000000E+00 0. -1.
         23    2    1    2    0    0  0.62653157394E+02  0.54151692205E+01 -0.10207380402E+04  0.10273087551E+04  0.97480200407E+02 0.  0.
         13    1    3    3    0    0  0.68947451740E+02  0.34474962445E+02 -0.51933492635E+03  0.52502479929E+03  0.00000000000E+00 0.  1.
        -13    1    3    3    0    0 -0.62942943459E+01 -0.29059793224E+02 -0.50140311386E+03  0.50228395586E+03  0.00000000000E+00 0. -1.
         22    1    1    2    0    0 -0.62653157394E+02 -0.54151692205E+01 -0.17721101451E+03  0.18803852226E+03  0.00000000000E+00 0.  1.
<mgrwt>
<rscale>  0 0.99539845E+02</rscale>
<asrwt>0</asrwt>
<pdfrwt beam="1">  1        2 0.18563819E+00 0.11600488E+03</pdfrwt>
<pdfrwt beam="2">  1       -2 0.13383248E-02 0.11600488E+03</pdfrwt>
<totfact> 0.26034753E+04</totfact>
</mgrwt>
</event>
<event>
 6    1  0.1828142E-002  0.9108614E+02  0.7546771E-02  0.1412502E+00
          2   -1    0    0  501    0  0.00000000000E+00  0.00000000000E+00  0.48115582263E+02  0.48115582263E+02  0.00000000000E+00 0. -1.
         -2   -1    0    0    0  501 -0.00000000000E+00 -0.00000000000E+00 -0.58325390795E+02  0.58325390795E+02  0.00000000000E+00 0.  1.
         23    2    1    2    0    0 -0.87211549500E+01 -0.10459032130E+02 -0.14345383196E+02  0.92208865885E+02  0.90062395216E+02 0.  0.
         11    1    3    3    0    0 -0.11005782410E+02 -0.78188208464E+01  0.37701102026E+02  0.40045402980E+02  0.00000000000E+00 0. -1.
        -11    1    3    3    0    0  0.22846274599E+01 -0.26402112838E+01 -0.52046485222E+02  0.52163462905E+02  0.00000000000E+00 0.  1.
         22    1    1    2    0    0  0.87211549500E+01  0.10459032130E+02  0.41355746642E+01  0.14232107172E+02  0.00000000000E+00 0.  1.
<mgrwt>
<rscale>  0 0.56639257E+02</rscale>
<asrwt>0</asrwt>
<pdfrwt beam="1">  1        2 0.74023973E-02 0.91086140E+02</pdfrwt>
<pdfrwt beam="2">  1       -2 0.89731370E-02 0.91086140E+02</pdfrwt>
<totfact> 0.63288912E+04</totfact>
</mgrwt>
</event>
<event>
 6    1  0.1828142E-002  0.9369734E+02  0.7546771E-02  0.1390479E+00
         -2   -1    0    0    0  501 -0.00000000000E+00  0.00000000000E+00  0.40334151277E+03  0.40334151277E+03  0.00000000000E+00 0.  1.
          2   -1    0    0  501    0  0.00000000000E+00 -0.00000000000E+00 -0.77451524893E+01  0.77451524893E+01  0.00000000000E+00 0. -1.
         23    2    1    2    0    0 -0.15578235861E+02 -0.84419489936E+01  0.34402879618E+03  0.35655995985E+03  0.92006762973E+02 0.  0.
         11    1    3    3    0    0 -0.37230783597E+02  0.28064319162E+02  0.12401611144E+03  0.13249050213E+03  0.00000000000E+00 0. -1.
        -11    1    3    3    0    0  0.21652547737E+02 -0.36506268156E+02  0.22001268474E+03  0.22406945772E+03  0.00000000000E+00 0.  1.
         22    1    1    2    0    0  0.15578235861E+02  0.84419489936E+01  0.51567564094E+02  0.54526705401E+02  0.00000000000E+00 0.  1.
<mgrwt>
<rscale>  0 0.61787791E+02</rscale>
<asrwt>0</asrwt>
<pdfrwt beam="1">  1        2 0.11915622E-02 0.93697345E+02</pdfrwt>
<pdfrwt beam="2">  1       -2 0.62052524E-01 0.93697345E+02</pdfrwt>
<totfact> 0.24388711E+04</totfact>
</mgrwt>
</event>
<event>
 6    1  0.1828142E-002  0.9197212E+02  0.7546771E-02  0.1421404E+00
          4   -1    0    0  501    0  0.00000000000E+00  0.00000000000E+00  0.23839699916E+02  0.23839699916E+02  0.00000000000E+00 0. -1.
         -4   -1    0    0    0  501 -0.00000000000E+00 -0.00000000000E+00 -0.14421523187E+03  0.14421523187E+03  0.00000000000E+00 0.  1.
         23    2    1    2    0    0 -0.11097864963E+02  0.31217084081E+01 -0.12537252035E+03  0.15548999791E+03  0.91246714590E+02 0.  0.
         11    1    3    3    0    0 -0.45354268723E+02  0.12292867456E+02 -0.35558282052E+02  0.58928055323E+02  0.00000000000E+00 0. -1.
        -11    1    3    3    0    0  0.34256403759E+02 -0.91711590481E+01 -0.89814238294E+02  0.96561942592E+02  0.00000000000E+00 0.  1.
         22    1    1    2    0    0  0.11097864963E+02 -0.31217084081E+01  0.49969883944E+01  0.12564933870E+02  0.00000000000E+00 0. -1.
<mgrwt>
<rscale>  0 0.54725016E+02</rscale>
<asrwt>0</asrwt>
<pdfrwt beam="1">  1        4 0.36676461E-02 0.91972119E+02</pdfrwt>
<pdfrwt beam="2">  1       -4 0.22186959E-01 0.91972119E+02</pdfrwt>
<totfact> 0.10682972E+04</totfact>
</mgrwt>
</event>
<event>
 6    1  0.1828142E-002  0.9163462E+02  0.7546771E-02  0.1414856E+00
          3   -1    0    0  501    0  0.00000000000E+00  0.00000000000E+00  0.42592164598E+02  0.42592164598E+02  0.00000000000E+00 0. -1.
         -3   -1    0    0    0  501 -0.00000000000E+00 -0.00000000000E+00 -0.66920557346E+02  0.66920557346E+02  0.00000000000E+00 0.  1.
         23    2    1    2    0    0 -0.59806187875E+01  0.11424161508E+02 -0.28492507883E+02  0.95962108596E+02  0.90722786628E+02 0.  0.
         11    1    3    3    0    0 -0.22479100610E+02  0.43561618728E+02  0.14502155359E+01  0.49041081916E+02  0.00000000000E+00 0. -1.
        -11    1    3    3    0    0  0.16498481823E+02 -0.32137457219E+02 -0.29942723419E+02  0.46921026680E+02  0.00000000000E+00 0.  1.
         22    1    1    2    0    0  0.59806187875E+01 -0.11424161508E+02  0.41641151349E+01  0.13550613348E+02  0.00000000000E+00 0.  1.
<mgrwt>
<rscale>  0 0.56124107E+02</rscale>
<asrwt>0</asrwt>
<pdfrwt beam="1">  1        3 0.65526407E-02 0.91634618E+02</pdfrwt>
<pdfrwt beam="2">  1       -3 0.10295470E-01 0.91634618E+02</pdfrwt>
<totfact> 0.21187703E+04</totfact>
</mgrwt>
</event>
<event>
 6    1  0.1828142E-002  0.9393600E+02  0.7546771E-02  0.1389136E+00
          2   -1    0    0  501    0  0.00000000000E+00  0.00000000000E+00  0.10393404519E+02  0.10393404519E+02  0.00000000000E+00 0. -1.
         -2   -1    0    0    0  501 -0.00000000000E+00 -0.00000000000E+00 -0.30524286202E+03  0.30524286202E+03  0.00000000000E+00 0.  1.
         23    2    1    2    0    0 -0.10669128318E+02  0.14456941705E+02 -0.25957912819E+03  0.27605306818E+03  0.92201622535E+02 0.  0.
         13    1    3    3    0    0 -0.14395494795E+02 -0.22867174971E+02 -0.21950950692E+03  0.22116636632E+03  0.00000000000E+00 0.  1.
        -13    1    3    3    0    0  0.37263664768E+01  0.37324116676E+02 -0.40069621267E+02  0.54886701862E+02  0.00000000000E+00 0. -1.
         22    1    1    2    0    0  0.10669128318E+02 -0.14456941705E+02 -0.35270329309E+02  0.39583198356E+02  0.00000000000E+00 0. -1.
<mgrwt>
<rscale>  0 0.62122135E+02</rscale>
<asrwt>0</asrwt>
<pdfrwt beam="1">  1        2 0.15989852E-02 0.93936003E+02</pdfrwt>
<pdfrwt beam="2">  1       -2 0.46960442E-01 0.93936003E+02</pdfrwt>
<totfact> 0.28495067E+04</totfact>
</mgrwt>
</event>
<event>
 6    1  0.1828142E-002  0.9666967E+02  0.7546771E-02  0.1360529E+00
         -4   -1    0    0    0  501 -0.00000000000E+00  0.00000000000E+00  0.29054056923E+02  0.29054056923E+02  0.00000000000E+00 0.  1.
          4   -1    0    0  501    0  0.00000000000E+00 -0.00000000000E+00 -0.15105200938E+03  0.15105200938E+03  0.00000000000E+00 0. -1.
         23    2    1    2    0    0  0.26038360440E+02 -0.42567043378E+01 -0.62752940016E+02  0.11525171221E+03  0.92999515802E+02 0.  0.
         11    1    3    3    0    0  0.17289884887E+02 -0.25289432860E+02 -0.80656527223E+02  0.86278449902E+02  0.00000000000E+00 0. -1.
        -11    1    3    3    0    0  0.87484755524E+01  0.21032728522E+02  0.17903587207E+02  0.28973262303E+02  0.00000000000E+00 0.  1.
         22    1    1    2    0    0 -0.26038360440E+02  0.42567043378E+01 -0.59245012446E+02  0.64854354101E+02  0.00000000000E+00 0. -1.
<mgrwt>
<rscale>  0 0.69871951E+02</rscale>
<asrwt>0</asrwt>
<pdfrwt beam="1">  1        4 0.23238770E-01 0.96669673E+02</pdfrwt>
<pdfrwt beam="2">  1       -4 0.44698550E-02 0.96669673E+02</pdfrwt>
<totfact> 0.72957847E+03</totfact>
</mgrwt>
</event>
<event>
 6    1  0.1828142E-002  0.8976196E+02  0.7546771E-02  0.1434336E+00
         -2   -1    0    0    0  501 -0.00000000000E+00  0.00000000000E+00  0.15520853315E+02  0.15520853315E+02  0.00000000000E+00 0. -1.
          2   -1    0    0  501    0  0.00000000000E+00 -0.00000000000E+00 -0.16596095059E+03  0.16596095059E+03  0.00000000000E+00 0.  1.
         23    2    1    2    0    0  0.44247805953E+00 -0.10177606919E+02 -0.12345601229E+03  0.15263877508E+03  0.89182000525E+02 0.  0.
         13    1    3    3    0    0  0.57851308455E+01 -0.10917378555E+02  0.11912482649E+02  0.17162870863E+02  0.00000000000E+00 0. -1.
        -13    1    3    3    0    0 -0.53426527859E+01  0.73977163591E+00 -0.13536849494E+03  0.13547590422E+03  0.00000000000E+00 0.  1.
         22    1    1    2    0    0 -0.44247805953E+00  0.10177606919E+02 -0.26984084979E+02  0.28843028821E+02  0.00000000000E+00 0.  1.
<mgrwt>
<rscale>  0 0.52099453E+02</rscale>
<asrwt>0</asrwt>
<pdfrwt beam="1">  1        2 0.25532454E-01 0.89761956E+02</pdfrwt>
<pdfrwt beam="2">  1       -2 0.23878236E-02 0.89761956E+02</pdfrwt>
<totfact> 0.10602850E+05</totfact>
</mgrwt>
</event>
<event>
 6    1  0.1828142E-002  0.9429629E+02  0.7546771E-02  0.1395996E+00
          2   -1    0    0  501    0  0.00000000000E+00  0.00000000000E+00  0.61847865809E+01  0.61847865809E+01  0.00000000000E+00 0. -1.
         -2   -1    0    0    0  501 -0.00000000000E+00 -0.00000000000E+00 -0.88791969786E+03  0.88791969786E+03  0.00000000000E+00 0.  1.
         23    2    1    2    0    0 -0.83683816755E+01  0.13537062216E+02 -0.86792756514E+03  0.87303496445E+03  0.92943579435E+02 0.  0.
         13    1    3    3    0    0 -0.32493690842E+02 -0.38284167234E+01 -0.11615899741E+03  0.12067895176E+03  0.00000000000E+00 0. -1.
        -13    1    3    3    0    0  0.24125309167E+02  0.17365478940E+02 -0.75176856773E+03  0.75235601269E+03  0.00000000000E+00 0.  1.
         22    1    1    2    0    0  0.83683816755E+01 -0.13537062216E+02 -0.13807346146E+02  0.21069519997E+02  0.00000000000E+00 0. -1.
<mgrwt>
<rscale>  0 0.60439585E+02</rscale>
<asrwt>0</asrwt>
<pdfrwt beam="1">  1        2 0.95150618E-03 0.94296293E+02</pdfrwt>
<pdfrwt beam="2">  1       -2 0.13660295E+00 0.94296293E+02</pdfrwt>
<totfact> 0.56368055E+03</totfact>
</mgrwt>
</event>
<event>
 6    1  0.1828142E-002  0.1029899E+03  0.7546771E-02  0.1315284E+00
         -2   -1    0    0    0  501 -0.00000000000E+00  0.00000000000E+00  0.14115577581E+02  0.14115577581E+02  0.00000000000E+00 0.  1.
          2   -1    0    0  501    0  0.00000000000E+00 -0.00000000000E+00 -0.48587583722E+03  0.48587583722E+03  0.00000000000E+00 0. -1.
         23    2    1    2    0    0 -0.18850394946E+02  0.44048959071E+02 -0.21014961648E+03  0.23402943105E+03  0.91166140140E+02 0.  0.
         13    1    3    3    0    0  0.41582254017E+01  0.66931425948E+02 -0.11078844340E+03  0.12950361311E+03  0.00000000000E+00 0.  1.
        -13    1    3    3    0    0 -0.23008620348E+02 -0.22882466878E+02 -0.99361173078E+02  0.10452581794E+03  0.00000000000E+00 0. -1.
         22    1    1    2    0    0  0.18850394946E+02 -0.44048959071E+02 -0.26161064316E+03  0.26596198375E+03  0.00000000000E+00 0. -1.
<mgrwt>
<rscale>  0 0.85056802E+02</rscale>
<asrwt>0</asrwt>
<pdfrwt beam="1">  1        2 0.74750118E-01 0.10298987E+03</pdfrwt>
<pdfrwt beam="2">  1       -2 0.21716276E-02 0.10298987E+03</pdfrwt>
<totfact> 0.39684578E+04</totfact>
</mgrwt>
</event>
<event>
 6    1  0.1828142E-002  0.9829579E+02  0.7546771E-02  0.1340034E+00
         -2   -1    0    0    0  501 -0.00000000000E+00  0.00000000000E+00  0.21045403507E+04  0.21045403507E+04  0.00000000000E+00 0.  1.
          2   -1    0    0  501    0  0.00000000000E+00 -0.00000000000E+00 -0.33651888353E+01  0.33651888353E+01  0.00000000000E+00 0. -1.
         23    2    1    2    0    0 -0.32956085489E+02 -0.13457547354E+02  0.19545821110E+04  0.19570521945E+04  0.91623436670E+02 0.  0.
         13    1    3    3    0    0 -0.17257719894E+02 -0.10102339763E+02  0.19012816200E+04  0.19013867794E+04  0.00000000000E+00 0.  1.
        -13    1    3    3    0    0 -0.15698365594E+02 -0.33552075913E+01  0.53300490951E+02  0.55665415079E+02  0.00000000000E+00 0. -1.
         22    1    1    2    0    0  0.32956085489E+02  0.13457547354E+02  0.14659305093E+03  0.15085334512E+03  0.00000000000E+00 0. -1.
<mgrwt>
<rscale>  0 0.76253054E+02</rscale>
<asrwt>0</asrwt>
<pdfrwt beam="1">  1        2 0.51772304E-03 0.98295795E+02</pdfrwt>
<pdfrwt beam="2">  1       -2 0.32377439E+00 0.98295795E+02</pdfrwt>
<totfact> 0.93075882E+02</totfact>
</mgrwt>
</event>
<event>
 6    1  0.1828142E-002  0.8376699E+02  0.7546771E-02  0.1402454E+00
         -1   -1    0    0    0  501 -0.00000000000E+00  0.00000000000E+00  0.35278028412E+02  0.35278028412E+02  0.00000000000E+00 0.  1.
          1   -1    0    0  501    0  0.00000000000E+00 -0.00000000000E+00 -0.86114648459E+02  0.86114648459E+02  0.00000000000E+00 0. -1.
         23    2    1    2    0    0  0.10031658412E+02  0.17869618651E+02 -0.23075773162E+02  0.86887285104E+02  0.81221620055E+02 0.  0.
         11    1    3    3    0    0  0.18546567347E+02  0.17374376088E+02  0.26421925167E+02  0.36660090485E+02  0.00000000000E+00 0.  1.
        -11    1    3    3    0    0 -0.85149089353E+01  0.49524256263E+00 -0.49497698329E+02  0.50227194619E+02  0.00000000000E+00 0. -1.
         22    1    1    2    0    0 -0.10031658412E+02 -0.17869618651E+02 -0.27760846885E+02  0.34505391767E+02  0.00000000000E+00 0. -1.
<mgrwt>
<rscale>  0 0.58912215E+02</rscale>
<asrwt>0</asrwt>
<pdfrwt beam="1">  1        1 0.13248407E-01 0.83766992E+02</pdfrwt>
<pdfrwt beam="2">  1       -1 0.54273891E-02 0.83766992E+02</pdfrwt>
<totfact> 0.57873614E+04</totfact>
</mgrwt>
</event>
<event>
 6    1  0.1828142E-002  0.9871487E+02  0.7546771E-02  0.1401399E+00
          1   -1    0    0  501    0  0.00000000000E+00  0.00000000000E+00  0.26247669237E+02  0.26247669237E+02  0.00000000000E+00 0.  1.
         -1   -1    0    0    0  501 -0.00000000000E+00 -0.00000000000E+00 -0.13160548084E+03  0.13160548084E+03  0.00000000000E+00 0. -1.
         23    2    1    2    0    0 -0.11881013945E+02 -0.45774693410E+01 -0.10632407217E+03  0.14508422775E+03  0.97890311577E+02 0.  0.
         11    1    3    3    0    0  0.42251913347E+02  0.81566314957E+01 -0.49146498234E+02  0.65323296821E+02  0.00000000000E+00 0.  1.
        -11    1    3    3    0    0 -0.54132927292E+02 -0.12734100837E+02 -0.57177573940E+02  0.79760930931E+02  0.00000000000E+00 0. -1.
         22    1    1    2    0    0  0.11881013945E+02  0.45774693410E+01  0.96626056931E+00  0.12768922328E+02  0.00000000000E+00 0.  1.
<mgrwt>
<rscale>  0 0.59158033E+02</rscale>
<asrwt>0</asrwt>
<pdfrwt beam="1">  1        1 0.40381029E-02 0.98714866E+02</pdfrwt>
<pdfrwt beam="2">  1       -1 0.20246997E-01 0.98714866E+02</pdfrwt>
<totfact> 0.38857576E+04</totfact>
</mgrwt>
</event>
<event>
 6    1  0.1828142E-002  0.9124189E+02  0.7546771E-02  0.1428582E+00
         -1   -1    0    0    0  501 -0.00000000000E+00  0.00000000000E+00  0.75529231473E+03  0.75529231473E+03  0.00000000000E+00 0.  1.
          1   -1    0    0  501    0  0.00000000000E+00 -0.00000000000E+00 -0.39692833359E+01  0.39692833359E+01  0.00000000000E+00 0. -1.
         23    2    1    2    0    0 -0.86409503187E+01 -0.61078204163E+01  0.72743390427E+03  0.73313379894E+03  0.90626213464E+02 0.  0.
         11    1    3    3    0    0 -0.21391874827E+02 -0.44861605035E+02  0.44539539278E+03  0.44815982844E+03  0.00000000000E+00 0.  1.
        -11    1    3    3    0    0  0.12750924508E+02  0.38753784618E+02  0.28203851149E+03  0.28497397050E+03  0.00000000000E+00 0. -1.
         22    1    1    2    0    0  0.86409503187E+01  0.61078204163E+01  0.23889127120E+02  0.26127799127E+02  0.00000000000E+00 0. -1.
<mgrwt>
<rscale>  0 0.53245650E+02</rscale>
<asrwt>0</asrwt>
<pdfrwt beam="1">  1        1 0.61065957E-03 0.91241888E+02</pdfrwt>
<pdfrwt beam="2">  1       -1 0.11619870E+00 0.91241888E+02</pdfrwt>
<totfact> 0.20743315E+04</totfact>
</mgrwt>
</event>
<event>
 6    1  0.1828142E-002  0.9501738E+02  0.7546771E-02  0.1384328E+00
          2   -1    0    0  501    0  0.00000000000E+00  0.00000000000E+00  0.11387810808E+03  0.11387810808E+03  0.00000000000E+00 0. -1.
         -2   -1    0    0    0  501 -0.00000000000E+00 -0.00000000000E+00 -0.30624065112E+02  0.30624065112E+02  0.00000000000E+00 0.  1.
         23    2    1    2    0    0 -0.12373128258E+01  0.18721857349E+02  0.52717641255E+02  0.10866210183E+03  0.93146464180E+02 0.  0.
         13    1    3    3    0    0 -0.76717501662E-01 -0.50259677401E+01 -0.25974558982E+02  0.26456453874E+02  0.00000000000E+00 0.  1.
        -13    1    3    3    0    0 -0.11605953242E+01  0.23747825089E+02  0.78692200237E+02  0.82205647957E+02  0.00000000000E+00 0. -1.
         22    1    1    2    0    0  0.12373128258E+01 -0.18721857349E+02  0.30536401716E+02  0.35840071364E+02  0.00000000000E+00 0. -1.
<mgrwt>
<rscale>  0 0.63339717E+02</rscale>
<asrwt>0</asrwt>
<pdfrwt beam="1">  1        2 0.17519709E-01 0.95017381E+02</pdfrwt>
<pdfrwt beam="2">  1       -2 0.47113947E-02 0.95017381E+02</pdfrwt>
<totfact> 0.60171294E+04</totfact>
</mgrwt>
</event>
<event>
 6    1  0.1828142E-002  0.9468328E+02  0.7546771E-02  0.1399337E+00
          2   -1    0    0  501    0  0.00000000000E+00  0.00000000000E+00  0.52268833530E+02  0.52268833530E+02  0.00000000000E+00 0. -1.
         -2   -1    0    0    0  501 -0.00000000000E+00 -0.00000000000E+00 -0.71248087252E+02  0.71248087252E+02  0.00000000000E+00 0.  1.
         23    2    1    2    0    0 -0.14795280471E+02 -0.18272627427E+01 -0.35632195372E+02  0.10116608905E+03  0.93502326249E+02 0.  0.
         11    1    3    3    0    0  0.27120748823E+02 -0.22137209841E+02  0.95366125558E+01  0.36284129524E+02  0.00000000000E+00 0. -1.
        -11    1    3    3    0    0 -0.41916029294E+02  0.20309947098E+02 -0.45168807927E+02  0.64881959530E+02  0.00000000000E+00 0.  1.
         22    1    1    2    0    0  0.14795280471E+02  0.18272627427E+01  0.16652941650E+02  0.22350831728E+02  0.00000000000E+00 0. -1.
<mgrwt>
<rscale>  0 0.59642738E+02</rscale>
<asrwt>0</asrwt>
<pdfrwt beam="1">  1        2 0.80413590E-02 0.94683284E+02</pdfrwt>
<pdfrwt beam="2">  1       -2 0.10961244E-01 0.94683284E+02</pdfrwt>
<totfact> 0.42046045E+04</totfact>
</mgrwt>
</event>
<event>
 6    1  0.4042564E-002  0.1617790E+03  0.7546771E-02  0.1195217E+00
         -2   -1    0    0    0  501 -0.00000000000E+00  0.00000000000E+00  0.80770890899E+02  0.80770890899E+02  0.00000000000E+00 0.  1.
          2   -1    0    0  501    0  0.00000000000E+00 -0.00000000000E+00 -0.66795559260E+03  0.66795559260E+03  0.00000000000E+00 0. -1.
         23    2    1    2    0    0  0.47468089958E+02 -0.12539360142E+03 -0.59285223571E+03  0.61452925632E+03  0.90529877125E+02 0.  0.
         13    1    3    3    0    0 -0.23183943507E+01  0.13598093847E+02 -0.62976614273E+02  0.64469659948E+02  0.00000000000E+00 0.  1.
        -13    1    3    3    0    0  0.49786484309E+02 -0.13899169526E+03 -0.52987562144E+03  0.55005959638E+03  0.00000000000E+00 0. -1.
         22    1    1    2    0    0 -0.47468089958E+02  0.12539360142E+03  0.56675340043E+01  0.13419722718E+03  0.00000000000E+00 0.  1.
<mgrwt>
<rscale>  0 0.15435849E+03</rscale>
<asrwt>0</asrwt>
<pdfrwt beam="1">  1        2 0.10276240E+00 0.16177896E+03</pdfrwt>
<pdfrwt beam="2">  1       -2 0.12426291E-01 0.16177896E+03</pdfrwt>
<totfact> 0.20515009E+03</totfact>
</mgrwt>
</event>
<event>
 6    1  0.1828142E-002  0.9070035E+02  0.7546771E-02  0.1425097E+00
         -1   -1    0    0    0  501 -0.00000000000E+00  0.00000000000E+00  0.80334665962E+02  0.80334665962E+02  0.00000000000E+00 0.  1.
          1   -1    0    0  501    0  0.00000000000E+00 -0.00000000000E+00 -0.43917242651E+02  0.43917242651E+02  0.00000000000E+00 0. -1.
         23    2    1    2    0    0  0.28398819922E+01 -0.10998860627E+02  0.52320014216E+02  0.10470882128E+03  0.89986185064E+02 0.  0.
         13    1    3    3    0    0  0.19982628958E+02 -0.32510087291E+02  0.64248919793E+02  0.74727069595E+02  0.00000000000E+00 0.  1.
        -13    1    3    3    0    0 -0.17142746966E+02  0.21511226663E+02 -0.11928905577E+02  0.29981751689E+02  0.00000000000E+00 0. -1.
         22    1    1    2    0    0 -0.28398819922E+01  0.10998860627E+02 -0.15902590906E+02  0.19543087329E+02  0.00000000000E+00 0. -1.
<mgrwt>
<rscale>  0 0.53956927E+02</rscale>
<asrwt>0</asrwt>
<pdfrwt beam="1">  1        1 0.67564989E-02 0.90700349E+02</pdfrwt>
<pdfrwt beam="2">  1       -1 0.12359179E-01 0.90700349E+02</pdfrwt>
<totfact> 0.41407523E+04</totfact>
</mgrwt>
</event>
<event>
 6    1  0.1828142E-002  0.9178969E+02  0.7546771E-02  0.1410934E+00
         -4   -1    0    0    0  501 -0.00000000000E+00  0.00000000000E+00  0.99622861361E+02  0.99622861361E+02  0.00000000000E+00 0.  1.
          4   -1    0    0  501    0  0.00000000000E+00 -0.00000000000E+00 -0.29617164549E+02  0.29617164549E+02  0.00000000000E+00 0. -1.
         23    2    1    2    0    0 -0.98687777750E+01  0.94100399623E+01  0.70273233120E+02  0.11560136019E+03  0.90771171406E+02 0.  0.
         13    1    3    3    0    0 -0.27304047097E+02  0.44390282918E+02  0.33617265043E+02  0.62017164676E+02  0.00000000000E+00 0.  1.
        -13    1    3    3    0    0  0.17435269322E+02 -0.34980242956E+02  0.36655968077E+02  0.53584195517E+02  0.00000000000E+00 0. -1.
         22    1    1    2    0    0  0.98687777750E+01 -0.94100399623E+01 -0.26753630760E+00  0.13638665717E+02  0.00000000000E+00 0. -1.
<mgrwt>
<rscale>  0 0.56985912E+02</rscale>
<asrwt>0</asrwt>
<pdfrwt beam="1">  1        4 0.45564869E-02 0.91789690E+02</pdfrwt>
<pdfrwt beam="2">  1       -4 0.15326594E-01 0.91789690E+02</pdfrwt>
<totfact> 0.14586079E+04</totfact>
</mgrwt>
</event>
<event>
 6    1  0.1828142E-002  0.8993316E+02  0.7546771E-02  0.1397065E+00
          1   -1    0    0  501    0  0.00000000000E+00  0.00000000000E+00  0.62319959634E+01  0.62319959634E+01  0.00000000000E+00 0. -1.
         -1   -1    0    0    0  501 -0.00000000000E+00 -0.00000000000E+00 -0.47072879234E+03  0.47072879234E+03  0.00000000000E+00 0.  1.
         23    2    1    2    0    0  0.17003899956E+02  0.60131515382E+01 -0.37143763080E+03  0.38216997175E+03  0.88106090185E+02 0.  0.
         11    1    3    3    0    0  0.45032874593E+02  0.20151428931E+02 -0.30149845872E+03  0.30550836403E+03  0.00000000000E+00 0. -1.
        -11    1    3    3    0    0 -0.28028974637E+02 -0.14138277393E+02 -0.69939172076E+02  0.76661607716E+02  0.00000000000E+00 0.  1.
         22    1    1    2    0    0 -0.17003899956E+02 -0.60131515382E+01 -0.93059165581E+02  0.94790816558E+02  0.00000000000E+00 0. -1.
<mgrwt>
<rscale>  0 0.60183001E+02</rscale>
<asrwt>0</asrwt>
<pdfrwt beam="1">  1        1 0.95876858E-03 0.89933163E+02</pdfrwt>
<pdfrwt beam="2">  1       -1 0.72419817E-01 0.89933163E+02</pdfrwt>
<totfact> 0.30191656E+04</totfact>
</mgrwt>
</event>
<event>
 6    1  0.1828142E-002  0.9635772E+02  0.7546771E-02  0.1348563E+00
         -2   -1    0    0    0  501 -0.00000000000E+00  0.00000000000E+00  0.27753667423E+02  0.27753667423E+02  0.00000000000E+00 0.  1.
          2   -1    0    0  501    0  0.00000000000E+00 -0.00000000000E+00 -0.15492335832E+03  0.15492335832E+03  0.00000000000E+00 0. -1.
         23    2    1    2    0    0 -0.17832766414E+02 -0.27326112191E+02 -0.79558502545E+02  0.12495745175E+03  0.90664686927E+02 0.  0.
         11    1    3    3    0    0  0.11491640941E+02  0.28559470552E+02 -0.39991711543E+02  0.50468189603E+02  0.00000000000E+00 0. -1.
        -11    1    3    3    0    0 -0.29324407355E+02 -0.55885582743E+02 -0.39566791002E+02  0.74489262149E+02  0.00000000000E+00 0.  1.
         22    1    1    2    0    0  0.17832766414E+02  0.27326112191E+02 -0.47611188351E+02  0.57719573990E+02  0.00000000000E+00 0. -1.
<mgrwt>
<rscale>  0 0.73505443E+02</rscale>
<asrwt>0</asrwt>
<pdfrwt beam="1">  1        2 0.23834363E-01 0.96357716E+02</pdfrwt>
<pdfrwt beam="2">  1       -2 0.42697950E-02 0.96357716E+02</pdfrwt>
<totfact> 0.49462305E+04</totfact>
</mgrwt>
</event>
<event>
 6    1  0.1828142E-002  0.9125775E+02  0.7546771E-02  0.1406742E+00
          1   -1    0    0  501    0  0.00000000000E+00  0.00000000000E+00  0.45068113473E+02  0.45068113473E+02  0.00000000000E+00 0. -1.
         -1   -1    0    0    0  501 -0.00000000000E+00 -0.00000000000E+00 -0.86619053920E+02  0.86619053920E+02  0.00000000000E+00 0.  1.
         23    2    1    2    0    0 -0.19990884083E+01 -0.14680129294E+02 -0.59097682271E+02  0.10872217884E+03  0.90047063093E+02 0.  0.
         11    1    3    3    0    0 -0.26432156388E+02  0.26436303227E+02 -0.70614861394E+01  0.38044731647E+02  0.00000000000E+00 0. -1.
        -11    1    3    3    0    0  0.24433067979E+02 -0.41116432521E+02 -0.52036196131E+02  0.70677447195E+02  0.00000000000E+00 0.  1.
         22    1    1    2    0    0  0.19990884083E+01  0.14680129294E+02  0.17546741824E+02  0.22964988552E+02  0.00000000000E+00 0. -1.
<mgrwt>
<rscale>  0 0.57927162E+02</rscale>
<asrwt>0</asrwt>
<pdfrwt beam="1">  1        1 0.69335560E-02 0.91257746E+02</pdfrwt>
<pdfrwt beam="2">  1       -1 0.13326008E-01 0.91257746E+02</pdfrwt>
<totfact> 0.35669667E+04</totfact>
</mgrwt>
</event>
<event>
 6    1  0.1828142E-002  0.9461519E+02  0.7546771E-02  0.1380076E+00
          2   -1    0    0  501    0  0.00000000000E+00  0.00000000000E+00  0.41367162788E+03  0.41367162788E+03  0.00000000000E+00 0. -1.
         -2   -1    0    0    0  501 -0.00000000000E+00 -0.00000000000E+00 -0.79896549285E+01  0.79896549285E+01  0.00000000000E+00 0.  1.
         23    2    1    2    0    0  0.11795602062E+02 -0.16598623414E+02  0.33471344382E+03  0.34782915800E+03  0.92397960752E+02 0.  0.
         11    1    3    3    0    0  0.13466061204E+02  0.16077246779E+02  0.29765966134E+03  0.29839753125E+03  0.00000000000E+00 0. -1.
        -11    1    3    3    0    0 -0.16704591413E+01 -0.32675870193E+02  0.37053782485E+02  0.49431626749E+02  0.00000000000E+00 0.  1.
         22    1    1    2    0    0 -0.11795602062E+02  0.16598623414E+02  0.70968529131E+02  0.73832124812E+02  0.00000000000E+00 0.  1.
<mgrwt>
<rscale>  0 0.64443767E+02</rscale>
<asrwt>0</asrwt>
<pdfrwt beam="1">  1        2 0.63641772E-01 0.94615187E+02</pdfrwt>
<pdfrwt beam="2">  1       -2 0.12291780E-02 0.94615187E+02</pdfrwt>
<totfact> 0.10535305E+05</totfact>
</mgrwt>
</event>
<event>
 6    1  0.1828142E-002  0.9095071E+02  0.7546771E-02  0.1429503E+00
         -2   -1    0    0    0  501 -0.00000000000E+00  0.00000000000E+00  0.10599249871E+02  0.10599249871E+02  0.00000000000E+00 0. -1.
          2   -1    0    0  501    0  0.00000000000E+00 -0.00000000000E+00 -0.25025169513E+03  0.25025169513E+03  0.00000000000E+00 0.  1.
         23    2    1    2    0    0  0.37109140808E+01 -0.98601141530E+01 -0.19805217736E+03  0.21793736878E+03  0.90338469220E+02 0.  0.
         11    1    3    3    0    0  0.17458197575E+02 -0.29903897401E+00  0.16461714288E+01  0.17538185974E+02  0.00000000000E+00 0. -1.
        -11    1    3    3    0    0 -0.13747283494E+02 -0.95610751790E+01 -0.19969834879E+03  0.20039918281E+03  0.00000000000E+00 0.  1.
         22    1    1    2    0    0 -0.37109140808E+01  0.98601141530E+01 -0.41600267899E+02  0.42913576217E+02  0.00000000000E+00 0. -1.
<mgrwt>
<rscale>  0 0.53059896E+02</rscale>
<asrwt>0</asrwt>
<pdfrwt beam="1">  1        2 0.38500260E-01 0.90950711E+02</pdfrwt>
<pdfrwt beam="2">  1       -2 0.16306539E-02 0.90950711E+02</pdfrwt>
<totfact> 0.11855450E+05</totfact>
</mgrwt>
</event>
<event>
 6    1  0.1828142E-002  0.9700523E+02  0.7546771E-02  0.1348381E+00
         -2   -1    0    0    0  501 -0.00000000000E+00  0.00000000000E+00  0.57497083682E+01  0.57497083682E+01  0.00000000000E+00 0.  1.
          2   -1    0    0  501    0  0.00000000000E+00 -0.00000000000E+00 -0.73004459829E+03  0.73004459829E+03  0.00000000000E+00 0. -1.
         23    2    1    2    0    0 -0.25082239218E+02  0.20000645341E+02 -0.57061608127E+03  0.57880283948E+03  0.91547093059E+02 0.  0.
         13    1    3    3    0    0 -0.35649588088E+02  0.15091836096E+02 -0.89109966428E+02  0.97155765472E+02  0.00000000000E+00 0.  1.
        -13    1    3    3    0    0  0.10567348870E+02  0.49088092453E+01 -0.48150611484E+03  0.48164707401E+03  0.00000000000E+00 0. -1.
         22    1    1    2    0    0  0.25082239218E+02 -0.20000645341E+02 -0.15367880865E+03  0.15699146718E+03  0.00000000000E+00 0. -1.
<mgrwt>
<rscale>  0 0.73562404E+02</rscale>
<asrwt>0</asrwt>
<pdfrwt beam="1">  1        2 0.11231459E+00 0.97005231E+02</pdfrwt>
<pdfrwt beam="2">  1       -2 0.88457020E-03 0.97005231E+02</pdfrwt>
<totfact> 0.89860926E+04</totfact>
</mgrwt>
</event>
<event>
 6    1  0.1828142E-002  0.1016423E+03  0.7546771E-02  0.1317816E+00
         -2   -1    0    0    0  501 -0.00000000000E+00  0.00000000000E+00  0.13187242315E+03  0.13187242315E+03  0.00000000000E+00 0.  1.
          2   -1    0    0  501    0  0.00000000000E+00 -0.00000000000E+00 -0.80484125519E+02  0.80484125519E+02  0.00000000000E+00 0. -1.
         23    2    1    2    0    0 -0.47616818598E+02  0.10200510953E+01  0.10120533736E+03  0.14343529385E+03  0.89792879976E+02 0.  0.
         11    1    3    3    0    0 -0.42849787951E+02  0.17713142151E+02  0.11320426498E+03  0.12233178386E+03  0.00000000000E+00 0.  1.
        -11    1    3    3    0    0 -0.47670306473E+01 -0.16693091055E+02 -0.11998927617E+02  0.21103509995E+02  0.00000000000E+00 0. -1.
         22    1    1    2    0    0  0.47616818598E+02 -0.10200510953E+01 -0.49817039732E+02  0.68921254815E+02  0.00000000000E+00 0. -1.
<mgrwt>
<rscale>  0 0.84095152E+02</rscale>
<asrwt>0</asrwt>
<pdfrwt beam="1">  1        2 0.12382173E-01 0.10164233E+03</pdfrwt>
<pdfrwt beam="2">  1       -2 0.20288065E-01 0.10164233E+03</pdfrwt>
<totfact> 0.92415781E+03</totfact>
</mgrwt>
</event>
<event>
 6    1  0.1828142E-002  0.9259913E+02  0.7546771E-02  0.1392858E+00
         -2   -1    0    0    0  501 -0.00000000000E+00  0.00000000000E+00  0.12472680870E+02  0.12472680870E+02  0.00000000000E+00 0.  1.
          2   -1    0    0  501    0  0.00000000000E+00 -0.00000000000E+00 -0.24435272577E+03  0.24435272577E+03  0.00000000000E+00 0. -1.
         23    2    1    2    0    0  0.91778681889E+00  0.17645607357E+02 -0.19933318392E+03  0.21979153091E+03  0.90897684561E+02 0.  0.
         13    1    3    3    0    0 -0.12692750488E+02  0.42724763997E+01 -0.20024149156E+03  0.20068885099E+03  0.00000000000E+00 0. -1.
        -13    1    3    3    0    0  0.13610537306E+02  0.13373130957E+02  0.90830764463E+00  0.19102679921E+02  0.00000000000E+00 0.  1.
         22    1    1    2    0    0 -0.91778681889E+00 -0.17645607357E+02 -0.32546860989E+02  0.37033875734E+02  0.00000000000E+00 0.  1.
<mgrwt>
<rscale>  0 0.61201349E+02</rscale>
<asrwt>0</asrwt>
<pdfrwt beam="1">  1        2 0.37592726E-01 0.92599130E+02</pdfrwt>
<pdfrwt beam="2">  1       -2 0.19188740E-02 0.92599130E+02</pdfrwt>
<totfact> 0.96552332E+04</totfact>
</mgrwt>
</event>
<event>
 6    1  0.1828142E-002  0.9272583E+02  0.7546771E-02  0.1392293E+00
          3   -1    0    0  501    0  0.00000000000E+00  0.00000000000E+00  0.20795784283E+02  0.20795784283E+02  0.00000000000E+00 0. -1.
         -3   -1    0    0    0  501 -0.00000000000E+00 -0.00000000000E+00 -0.14674381676E+03  0.14674381676E+03  0.00000000000E+00 0.  1.
         23    2    1    2    0    0  0.17695950793E+02 -0.14730731909E+01 -0.10589894349E+03  0.14075746916E+03  0.91009682300E+02 0.  0.
         11    1    3    3    0    0 -0.36619076674E+02 -0.60065982163E+01 -0.32454382918E+02  0.49298305946E+02  0.00000000000E+00 0.  1.
        -11    1    3    3    0    0  0.54315027467E+02  0.45335250254E+01 -0.73444560569E+02  0.91459163210E+02  0.00000000000E+00 0. -1.
         22    1    1    2    0    0 -0.17695950793E+02  0.14730731909E+01 -0.20049088994E+02  0.26782131890E+02  0.00000000000E+00 0.  1.
<mgrwt>
<rscale>  0 0.61340017E+02</rscale>
<asrwt>0</asrwt>
<pdfrwt beam="1">  1        3 0.31993513E-02 0.92725826E+02</pdfrwt>
<pdfrwt beam="2">  1       -3 0.22575973E-01 0.92725826E+02</pdfrwt>
<totfact> 0.17139626E+04</totfact>
</mgrwt>
</event>
<event>
 6    1  0.1828142E-002  0.1043218E+03  0.7546771E-02  0.1325632E+00
          2   -1    0    0  501    0  0.00000000000E+00  0.00000000000E+00  0.40688125214E+02  0.40688125214E+02  0.00000000000E+00 0.  1.
         -2   -1    0    0    0  501 -0.00000000000E+00 -0.00000000000E+00 -0.15949739501E+03  0.15949739501E+03  0.00000000000E+00 0. -1.
         23    2    1    2    0    0  0.92547525077E+01 -0.37189799365E+02 -0.38497671068E+02  0.11119852954E+03  0.97027370743E+02 0.  0.
         13    1    3    3    0    0  0.42879766780E+02 -0.40072657237E+02 -0.48350617765E+02  0.76041268371E+02  0.00000000000E+00 0. -1.
        -13    1    3    3    0    0 -0.33625014272E+02  0.28828578720E+01  0.98529466970E+01  0.35157261169E+02  0.00000000000E+00 0.  1.
         22    1    1    2    0    0 -0.92547525077E+01  0.37189799365E+02 -0.80311598727E+02  0.88986990684E+02  0.00000000000E+00 0. -1.
<mgrwt>
<rscale>  0 0.81217417E+02</rscale>
<asrwt>0</asrwt>
<pdfrwt beam="1">  1        2 0.62597116E-02 0.10432182E+03</pdfrwt>
<pdfrwt beam="2">  1       -2 0.24538061E-01 0.10432182E+03</pdfrwt>
<totfact> 0.15519650E+04</totfact>
</mgrwt>
</event>
<event>
 6    1  0.1828142E-002  0.1808639E+03  0.7546771E-02  0.1173347E+00
          2   -1    0    0  501    0  0.00000000000E+00  0.00000000000E+00  0.11913170498E+04  0.11913170498E+04  0.00000000000E+00 0. -1.
         -2   -1    0    0    0  501 -0.00000000000E+00 -0.00000000000E+00 -0.37611710507E+02  0.37611710507E+02  0.00000000000E+00 0.  1.
         23    2    1    2    0    0  0.13909799110E+03  0.71330522010E+02  0.23254952565E+03  0.29460315994E+03  0.90969475465E+02 0.  0.
         13    1    3    3    0    0  0.14863004199E+03  0.74885318155E+02  0.23037007221E+03  0.28419899794E+03  0.00000000000E+00 0.  1.
        -13    1    3    3    0    0 -0.95320508847E+01 -0.35547961452E+01  0.21794534389E+01  0.10404162003E+02  0.00000000000E+00 0. -1.
         22    1    1    2    0    0 -0.13909799110E+03 -0.71330522010E+02  0.92115581363E+03  0.93432560036E+03  0.00000000000E+00 0. -1.
<mgrwt>
<rscale>  0 0.17438868E+03</rscale>
<asrwt>0</asrwt>
<pdfrwt beam="1">  1        2 0.18327952E+00 0.18086387E+03</pdfrwt>
<pdfrwt beam="2">  1       -2 0.57864179E-02 0.18086387E+03</pdfrwt>
<totfact> 0.31431744E+03</totfact>
</mgrwt>
</event>
<event>
 6    1  0.1828142E-002  0.9592125E+02  0.7546771E-02  0.1414932E+00
          3   -1    0    0  501    0  0.00000000000E+00  0.00000000000E+00  0.12708827292E+03  0.12708827292E+03  0.00000000000E+00 0. -1.
         -3   -1    0    0    0  501 -0.00000000000E+00 -0.00000000000E+00 -0.24331731023E+02  0.24331731023E+02  0.00000000000E+00 0.  1.
         23    2    1    2    0    0 -0.10780729431E+02 -0.31411424563E+01  0.75924965790E+02  0.12233350571E+03  0.95261719942E+02 0.  0.
         13    1    3    3    0    0 -0.24019584004E+02  0.30283357161E+02  0.77226116337E+02  0.86359105954E+02  0.00000000000E+00 0. -1.
        -13    1    3    3    0    0  0.13238854573E+02 -0.33424499618E+02 -0.13011505468E+01  0.35974399757E+02  0.00000000000E+00 0.  1.
         22    1    1    2    0    0  0.10780729431E+02  0.31411424563E+01  0.26831576110E+02  0.29086498234E+02  0.00000000000E+00 0.  1.
<mgrwt>
<rscale>  0 0.56107587E+02</rscale>
<asrwt>0</asrwt>
<pdfrwt beam="1">  1        3 0.19552042E-01 0.95921250E+02</pdfrwt>
<pdfrwt beam="2">  1       -3 0.37433433E-02 0.95921250E+02</pdfrwt>
<totfact> 0.17463870E+04</totfact>
</mgrwt>
</event>
<event>
 6    1  0.1828142E-002  0.9481976E+02  0.7546771E-02  0.1365478E+00
          3   -1    0    0  501    0  0.00000000000E+00  0.00000000000E+00  0.27707678067E+02  0.27707678067E+02  0.00000000000E+00 0. -1.
         -3   -1    0    0    0  501 -0.00000000000E+00 -0.00000000000E+00 -0.21978459950E+03  0.21978459950E+03  0.00000000000E+00 0.  1.
         23    2    1    2    0    0 -0.18761369565E+02  0.17618219507E+02 -0.19934654332E+03  0.22074834277E+03  0.91260045208E+02 0.  0.
         13    1    3    3    0    0 -0.74112388414E+01 -0.31997719503E+02 -0.13373678085E+03  0.13771095478E+03  0.00000000000E+00 0.  1.
        -13    1    3    3    0    0 -0.11350130724E+02  0.49615939010E+02 -0.65609762478E+02  0.83037387987E+02  0.00000000000E+00 0. -1.
         22    1    1    2    0    0  0.18761369565E+02 -0.17618219507E+02  0.72696218873E+01  0.26743934807E+02  0.00000000000E+00 0.  1.
<mgrwt>
<rscale>  0 0.68440537E+02</rscale>
<asrwt>0</asrwt>
<pdfrwt beam="1">  1        3 0.42627196E-02 0.94819758E+02</pdfrwt>
<pdfrwt beam="2">  1       -3 0.33813016E-01 0.94819758E+02</pdfrwt>
<totfact> 0.53113406E+03</totfact>
</mgrwt>
</event>
<event>
 6    1  0.1828142E-002  0.9111886E+02  0.7546771E-02  0.1426515E+00
         -2   -1    0    0    0  501 -0.00000000000E+00  0.00000000000E+00  0.21804996820E+02  0.21804996820E+02  0.00000000000E+00 0.  1.
          2   -1    0    0  501    0  0.00000000000E+00 -0.00000000000E+00 -0.11947917879E+03  0.11947917879E+03  0.00000000000E+00 0. -1.
         23    2    1    2    0    0  0.71616010488E+01 -0.83018769752E+01 -0.87287726757E+02  0.12618158832E+03  0.90456820075E+02 0.  0.
         11    1    3    3    0    0  0.19511059994E+02  0.35439108170E+02 -0.62389902525E+02  0.74357997465E+02  0.00000000000E+00 0. -1.
        -11    1    3    3    0    0 -0.12349458945E+02 -0.43740985145E+02 -0.24897824232E+02  0.51823590856E+02  0.00000000000E+00 0.  1.
         22    1    1    2    0    0 -0.71616010488E+01  0.83018769752E+01 -0.10386455212E+02  0.15102587287E+02  0.00000000000E+00 0. -1.
<mgrwt>
<rscale>  0 0.53665926E+02</rscale>
<asrwt>0</asrwt>
<pdfrwt beam="1">  1        2 0.18381412E-01 0.91118856E+02</pdfrwt>
<pdfrwt beam="2">  1       -2 0.33546150E-02 0.91118856E+02</pdfrwt>
<totfact> 0.93353487E+04</totfact>
</mgrwt>
</event>
<event>
 6    1  0.1828142E-002  0.9015051E+02  0.7546771E-02  0.1419397E+00
          2   -1    0    0  501    0  0.00000000000E+00  0.00000000000E+00  0.35952294379E+02  0.35952294379E+02  0.00000000000E+00 0. -1.
         -2   -1    0    0    0  501 -0.00000000000E+00 -0.00000000000E+00 -0.95716101585E+02  0.95716101585E+02  0.00000000000E+00 0.  1.
         23    2    1    2    0    0  0.11814310081E+02 -0.44513814668E+01 -0.71011656638E+02  0.11475961610E+03  0.89262093799E+02 0.  0.
         11    1    3    3    0    0  0.38423433204E+02  0.24186921895E+01  0.12436602652E+00  0.38499685168E+02  0.00000000000E+00 0. -1.
        -11    1    3    3    0    0 -0.26609123123E+02 -0.68700736562E+01 -0.71136022664E+02  0.76259930933E+02  0.00000000000E+00 0.  1.
         22    1    1    2    0    0 -0.11814310081E+02  0.44513814668E+01  0.11247849431E+02  0.16908779864E+02  0.00000000000E+00 0.  1.
<mgrwt>
<rscale>  0 0.55148626E+02</rscale>
<asrwt>0</asrwt>
<pdfrwt beam="1">  1        2 0.55311223E-02 0.90150508E+02</pdfrwt>
<pdfrwt beam="2">  1       -2 0.14725554E-01 0.90150508E+02</pdfrwt>
<totfact> 0.41862756E+04</totfact>
</mgrwt>
</event>
<event>
 6    1  0.1828142E-002  0.1066188E+03  0.7546771E-02  0.1299577E+00
          2   -1    0    0  501    0  0.00000000000E+00  0.00000000000E+00  0.10005383234E+04  0.10005383234E+04  0.00000000000E+00 0. -1.
         -2   -1    0    0    0  501 -0.00000000000E+00 -0.00000000000E+00 -0.91579444856E+01  0.91579444856E+01  0.00000000000E+00 0.  1.
         23    2    1    2    0    0  0.12465266955E+02  0.56128583788E+02  0.85597330520E+03  0.86258788467E+03  0.89787297422E+02 0.  0.
         11    1    3    3    0    0  0.48958256723E+02  0.49183457485E+02  0.57265438215E+03  0.57684396919E+03  0.00000000000E+00 0. -1.
        -11    1    3    3    0    0 -0.36492989768E+02  0.69451263037E+01  0.28331892305E+03  0.28574391549E+03  0.00000000000E+00 0.  1.
         22    1    1    2    0    0 -0.12465266955E+02 -0.56128583788E+02  0.13540707371E+03  0.14710838321E+03  0.00000000000E+00 0.  1.
<mgrwt>
<rscale>  0 0.91366039E+02</rscale>
<asrwt>0</asrwt>
<pdfrwt beam="1">  1        2 0.15392889E+00 0.10661876E+03</pdfrwt>
<pdfrwt beam="2">  1       -2 0.14089153E-02 0.10661876E+03</pdfrwt>
<totfact> 0.31434849E+04</totfact>
</mgrwt>
</event>
<event>
 6    1  0.1828142E-002  0.9395745E+02  0.7546771E-02  0.1397906E+00
         -1   -1    0    0    0  501 -0.00000000000E+00  0.00000000000E+00  0.10842921280E+04  0.10842921280E+04  0.00000000000E+00 0.  1.
          1   -1    0    0  501    0  0.00000000000E+00 -0.00000000000E+00 -0.74852366840E+01  0.74852366840E+01  0.00000000000E+00 0. -1.
         23    2    1    2    0    0 -0.26126695681E+01  0.15386022154E+02  0.10710189581E+04  0.10751323687E+04  0.92652285444E+02 0.  0.
         13    1    3    3    0    0  0.27942184900E+02  0.15630821488E+02  0.14009124201E+03  0.14370332065E+03  0.00000000000E+00 0. -1.
        -13    1    3    3    0    0 -0.30554854468E+02 -0.24479933364E+00  0.93092771605E+03  0.93142904806E+03  0.00000000000E+00 0.  1.
         22    1    1    2    0    0  0.26126695681E+01 -0.15386022154E+02  0.57879332702E+01  0.16644995991E+02  0.00000000000E+00 0. -1.
<mgrwt>
<rscale>  0 0.59982311E+02</rscale>
<asrwt>0</asrwt>
<pdfrwt beam="1">  1        1 0.11515757E-02 0.93957446E+02</pdfrwt>
<pdfrwt beam="2">  1       -1 0.16681405E+00 0.93957446E+02</pdfrwt>
<totfact> 0.35141114E+03</totfact>
</mgrwt>
</event>
<event>
 6    1  0.1828142E-002  0.9700126E+02  0.7546771E-02  0.1347182E+00
         -2   -1    0    0    0  501 -0.00000000000E+00  0.00000000000E+00  0.57749890210E+01  0.57749890210E+01  0.00000000000E+00 0.  1.
          2   -1    0    0  501    0  0.00000000000E+00 -0.00000000000E+00 -0.73926401676E+03  0.73926401676E+03  0.00000000000E+00 0. -1.
         23    2    1    2    0    0  0.47988108305E+01 -0.32396488758E+02 -0.58436491318E+03  0.59236103549E+03  0.91305440920E+02 0.  0.
         11    1    3    3    0    0 -0.21613671785E+02  0.11443028920E+02 -0.40766880811E+03  0.40840170277E+03  0.00000000000E+00 0.  1.
        -11    1    3    3    0    0  0.26412482615E+02 -0.43839517678E+02 -0.17669610507E+03  0.18395933272E+03  0.00000000000E+00 0. -1.
         22    1    1    2    0    0 -0.47988108305E+01  0.32396488758E+02 -0.14912411455E+03  0.15267797029E+03  0.00000000000E+00 0.  1.
<mgrwt>
<rscale>  0 0.73941080E+02</rscale>
<asrwt>0</asrwt>
<pdfrwt beam="1">  1        2 0.11373292E+00 0.97001261E+02</pdfrwt>
<pdfrwt beam="2">  1       -2 0.88845992E-03 0.97001261E+02</pdfrwt>
<totfact> 0.87982342E+04</totfact>
</mgrwt>
</event>
<event>
 6    1  0.1828142E-002  0.1009901E+03  0.7546771E-02  0.1379863E+00
         -2   -1    0    0    0  501 -0.00000000000E+00  0.00000000000E+00  0.13863025525E+02  0.13863025525E+02  0.00000000000E+00 0.  1.
          2   -1    0    0  501    0  0.00000000000E+00 -0.00000000000E+00 -0.28711035009E+03  0.28711035009E+03  0.00000000000E+00 0. -1.
         23    2    1    2    0    0  0.12286224316E+01  0.16758386002E+02 -0.18154314560E+03  0.20774242874E+03  0.99582377822E+02 0.  0.
         13    1    3    3    0    0  0.24710003729E+02  0.29838690090E+02 -0.19291104963E+02  0.43279076253E+02  0.00000000000E+00 0.  1.
        -13    1    3    3    0    0 -0.23481381297E+02 -0.13080304088E+02 -0.16225204063E+03  0.16446335249E+03  0.00000000000E+00 0. -1.
         22    1    1    2    0    0 -0.12286224316E+01 -0.16758386002E+02 -0.91704178969E+02  0.93230946873E+02  0.00000000000E+00 0. -1.
<mgrwt>
<rscale>  0 0.64499775E+02</rscale>
<asrwt>0</asrwt>
<pdfrwt beam="1">  1        2 0.44170824E-01 0.10099011E+03</pdfrwt>
<pdfrwt beam="2">  1       -2 0.21327731E-02 0.10099011E+03</pdfrwt>
<totfact> 0.70876855E+04</totfact>
</mgrwt>
</event>
<event>
 6    1  0.1828142E-002  0.1005031E+03  0.7546771E-02  0.1411213E+00
          2   -1    0    0  501    0  0.00000000000E+00  0.00000000000E+00  0.56199616381E+02  0.56199616381E+02  0.00000000000E+00 0.  1.
         -2   -1    0    0    0  501 -0.00000000000E+00 -0.00000000000E+00 -0.59357190780E+02  0.59357190780E+02  0.00000000000E+00 0. -1.
         23    2    1    2    0    0 -0.54252631135E+01 -0.88058204112E+01 -0.12925010464E+02  0.10133081826E+03  0.99969509754E+02 0.  0.
         11    1    3    3    0    0  0.37691010045E+02 -0.32227332708E+02 -0.16160356917E+02  0.52157169664E+02  0.00000000000E+00 0.  1.
        -11    1    3    3    0    0 -0.43116273159E+02  0.23421512297E+02  0.32353464536E+01  0.49173648594E+02  0.00000000000E+00 0. -1.
         22    1    1    2    0    0  0.54252631135E+01  0.88058204112E+01  0.97674360650E+01  0.14225988902E+02  0.00000000000E+00 0.  1.
<mgrwt>
<rscale>  0 0.56924006E+02</rscale>
<asrwt>0</asrwt>
<pdfrwt beam="1">  1        2 0.86460948E-02 0.10050313E+03</pdfrwt>
<pdfrwt beam="2">  1       -2 0.91318755E-02 0.10050313E+03</pdfrwt>
<totfact> 0.51501789E+04</totfact>
</mgrwt>
</event>
<event>
 6    1  0.1828142E-002  0.9266353E+02  0.7546771E-02  0.1397488E+00
         -4   -1    0    0    0  501 -0.00000000000E+00  0.00000000000E+00  0.66342196420E+02  0.66342196420E+02  0.00000000000E+00 0.  1.
          4   -1    0    0  501    0  0.00000000000E+00 -0.00000000000E+00 -0.48974135491E+02  0.48974135491E+02  0.00000000000E+00 0. -1.
         23    2    1    2    0    0  0.51926407986E+01  0.15532505342E+02  0.26742988677E+02  0.96445414844E+02  0.91204760623E+02 0.  0.
         11    1    3    3    0    0 -0.22133950761E+02  0.14667925609E+02 -0.25921084568E+02  0.37107444579E+02  0.00000000000E+00 0. -1.
        -11    1    3    3    0    0  0.27326591560E+02  0.86457973360E+00  0.52664073245E+02  0.59337970265E+02  0.00000000000E+00 0.  1.
         22    1    1    2    0    0 -0.51926407986E+01 -0.15532505342E+02 -0.93749277480E+01  0.18870917067E+02  0.00000000000E+00 0. -1.
<mgrwt>
<rscale>  0 0.60081877E+02</rscale>
<asrwt>0</asrwt>
<pdfrwt beam="1">  1        4 0.75344824E-02 0.92663534E+02</pdfrwt>
<pdfrwt beam="2">  1       -4 0.10206492E-01 0.92663534E+02</pdfrwt>
<totfact> 0.13009083E+04</totfact>
</mgrwt>
</event>
<event>
 6    1  0.1828142E-002  0.9223156E+02  0.7546771E-02  0.1418625E+00
          2   -1    0    0  501    0  0.00000000000E+00  0.00000000000E+00  0.39336512965E+02  0.39336512965E+02  0.00000000000E+00 0. -1.
         -2   -1    0    0    0  501 -0.00000000000E+00 -0.00000000000E+00 -0.91684392629E+02  0.91684392629E+02  0.00000000000E+00 0.  1.
         23    2    1    2    0    0  0.37846693606E+01 -0.11314471844E+02 -0.65606136147E+02  0.11318492061E+03  0.91456657268E+02 0.  0.
         11    1    3    3    0    0  0.78070446738E+01  0.33528834096E+02 -0.10026918024E+01  0.34440355010E+02  0.00000000000E+00 0. -1.
        -11    1    3    3    0    0 -0.40223753133E+01 -0.44843305940E+02 -0.64603444345E+02  0.78744565603E+02  0.00000000000E+00 0.  1.
         22    1    1    2    0    0 -0.37846693606E+01  0.11314471844E+02  0.13258256483E+02  0.17835984981E+02  0.00000000000E+00 0. -1.
<mgrwt>
<rscale>  0 0.55312836E+02</rscale>
<asrwt>0</asrwt>
<pdfrwt beam="1">  1        2 0.60517713E-02 0.92231563E+02</pdfrwt>
<pdfrwt beam="2">  1       -2 0.14105291E-01 0.92231563E+02</pdfrwt>
<totfact> 0.40128884E+04</totfact>
</mgrwt>
</event>
<event>
 6    1  0.1828142E-002  0.1046812E+03  0.7546771E-02  0.1319400E+00
          2   -1    0    0  501    0  0.00000000000E+00  0.00000000000E+00  0.37935557416E+01  0.37935557416E+01  0.00000000000E+00 0. -1.
         -2   -1    0    0    0  501 -0.00000000000E+00 -0.00000000000E+00 -0.20859519106E+04  0.20859519106E+04  0.00000000000E+00 0.  1.
         23    2    1    2    0    0 -0.11180202378E+02  0.40878220589E+02 -0.18932485623E+04  0.18961403642E+04  0.95719048922E+02 0.  0.
         13    1    3    3    0    0  0.30935856368E+02  0.41151775399E+02 -0.14451819239E+04  0.14460986443E+04  0.00000000000E+00 0.  1.
        -13    1    3    3    0    0 -0.42116058746E+02 -0.27355480922E+00 -0.44806663833E+03  0.45004171987E+03  0.00000000000E+00 0. -1.
         22    1    1    2    0    0  0.11180202378E+02 -0.40878220589E+02 -0.18890979261E+03  0.19360510217E+03  0.00000000000E+00 0. -1.
<mgrwt>
<rscale>  0 0.83500816E+02</rscale>
<asrwt>0</asrwt>
<pdfrwt beam="1">  1        2 0.58362151E-03 0.10468124E+03</pdfrwt>
<pdfrwt beam="2">  1       -2 0.32091703E+00 0.10468124E+03</pdfrwt>
<totfact> 0.82200007E+02</totfact>
</mgrwt>
</event>
<event>
 6    1  0.1828142E-002  0.1862291E+03  0.7546771E-02  0.1168021E+00
          2   -1    0    0  501    0  0.00000000000E+00  0.00000000000E+00  0.97359565780E+02  0.97359565780E+02  0.00000000000E+00 0. -1.
         -2   -1    0    0    0  501 -0.00000000000E+00 -0.00000000000E+00 -0.31150531096E+03  0.31150531096E+03  0.00000000000E+00 0.  1.
         23    2    1    2    0    0  0.38200891228E+02  0.15714728310E+03 -0.10551186083E+03  0.21404214320E+03  0.92340184181E+02 0.  0.
         11    1    3    3    0    0 -0.23054022952E+02  0.91009836379E+01 -0.62288551267E+01  0.25556105213E+02  0.00000000000E+00 0.  1.
        -11    1    3    3    0    0  0.61254914180E+02  0.14804629946E+03 -0.99283005706E+02  0.18848603799E+03  0.00000000000E+00 0. -1.
         22    1    1    2    0    0 -0.38200891228E+02 -0.15714728310E+03 -0.10863388435E+03  0.19482273354E+03  0.00000000000E+00 0.  1.
<mgrwt>
<rscale>  0 0.17977494E+03</rscale>
<asrwt>0</asrwt>
<pdfrwt beam="1">  1        2 0.14978395E-01 0.18622912E+03</pdfrwt>
<pdfrwt beam="2">  1       -2 0.47923894E-01 0.18622912E+03</pdfrwt>
<totfact> 0.16082929E+03</totfact>
</mgrwt>
</event>
<event>
 6    1  0.1828142E-002  0.8973534E+02  0.7546771E-02  0.1400673E+00
         -2   -1    0    0    0  501 -0.00000000000E+00  0.00000000000E+00  0.40051802676E+03  0.40051802676E+03  0.00000000000E+00 0.  1.
          2   -1    0    0  501    0  0.00000000000E+00 -0.00000000000E+00 -0.71442488719E+01  0.71442488719E+01  0.00000000000E+00 0. -1.
         23    2    1    2    0    0 -0.99581664334E+01  0.13957317140E+02  0.32343782004E+03  0.33565526222E+03  0.88082119882E+02 0.  0.
         13    1    3    3    0    0  0.28918092263E+02 -0.14929684569E+02  0.64708598117E+02  0.72431721033E+02  0.00000000000E+00 0. -1.
        -13    1    3    3    0    0 -0.38876258697E+02  0.28887001709E+02  0.25872922192E+03  0.26322354119E+03  0.00000000000E+00 0.  1.
         22    1    1    2    0    0  0.99581664334E+01 -0.13957317140E+02  0.69935957848E+02  0.72007013412E+02  0.00000000000E+00 0. -1.
<mgrwt>
<rscale>  0 0.59328156E+02</rscale>
<asrwt>0</asrwt>
<pdfrwt beam="1">  1        2 0.10991155E-02 0.89735342E+02</pdfrwt>
<pdfrwt beam="2">  1       -2 0.61618140E-01 0.89735342E+02</pdfrwt>
<totfact> 0.27456989E+04</totfact>
</mgrwt>
</event>
<event>
 6    1  0.1828142E-002  0.9110672E+02  0.7546771E-02  0.1414824E+00
          2   -1    0    0  501    0  0.00000000000E+00  0.00000000000E+00  0.32007034686E+01  0.32007034686E+01  0.00000000000E+00 0. -1.
         -2   -1    0    0    0  501 -0.00000000000E+00 -0.00000000000E+00 -0.88228360517E+03  0.88228360517E+03  0.00000000000E+00 0.  1.
         23    2    1    2    0    0  0.12976122661E+02  0.19838963744E+01 -0.81459124637E+03  0.81967025838E+03  0.90156076918E+02 0.  0.
         13    1    3    3    0    0  0.17845528094E+02  0.29408372060E+02 -0.12882681585E+03  0.13334040536E+03  0.00000000000E+00 0. -1.
        -13    1    3    3    0    0 -0.48694054329E+01 -0.27424475686E+02 -0.68576443053E+03  0.68632985302E+03  0.00000000000E+00 0.  1.
         22    1    1    2    0    0 -0.12976122661E+02 -0.19838963744E+01 -0.64491655330E+02  0.65814050257E+02  0.00000000000E+00 0. -1.
<mgrwt>
<rscale>  0 0.56131077E+02</rscale>
<asrwt>0</asrwt>
<pdfrwt beam="1">  1        2 0.49241528E-03 0.91106717E+02</pdfrwt>
<pdfrwt beam="2">  1       -2 0.13573611E+00 0.91106717E+02</pdfrwt>
<totfact> 0.14101424E+04</totfact>
</mgrwt>
</event>
<event>
 6    1  0.1828142E-002  0.1215429E+03  0.7546771E-02  0.1263639E+00
         -2   -1    0    0    0  501 -0.00000000000E+00  0.00000000000E+00  0.25845563655E+02  0.25845563655E+02  0.00000000000E+00 0.  1.
          2   -1    0    0  501    0  0.00000000000E+00 -0.00000000000E+00 -0.40509466726E+03  0.40509466726E+03  0.00000000000E+00 0. -1.
         23    2    1    2    0    0 -0.35495028056E+02 -0.68087151100E+02 -0.17797616833E+03  0.21551843156E+03  0.94217411813E+02 0.  0.
         11    1    3    3    0    0 -0.40757189405E+02 -0.86711329381E+02 -0.11525344350E+03  0.14987781480E+03  0.00000000000E+00 0.  1.
        -11    1    3    3    0    0  0.52621613489E+01  0.18624178281E+02 -0.62722724831E+02  0.65640616762E+02  0.00000000000E+00 0. -1.
         22    1    1    2    0    0  0.35495028056E+02  0.68087151100E+02 -0.20127293527E+03  0.21542179935E+03  0.00000000000E+00 0. -1.
<mgrwt>
<rscale>  0 0.10835892E+03</rscale>
<asrwt>0</asrwt>
<pdfrwt beam="1">  1        2 0.62322257E-01 0.12154291E+03</pdfrwt>
<pdfrwt beam="2">  1       -2 0.39762405E-02 0.12154291E+03</pdfrwt>
<totfact> 0.20265068E+04</totfact>
</mgrwt>
</event>
<event>
 6    1  0.1828142E-002  0.1201187E+03  0.7546771E-02  0.1277122E+00
          2   -1    0    0  501    0  0.00000000000E+00  0.00000000000E+00  0.75894316857E+03  0.75894316857E+03  0.00000000000E+00 0. -1.
         -2   -1    0    0    0  501 -0.00000000000E+00 -0.00000000000E+00 -0.11226689625E+02  0.11226689625E+02  0.00000000000E+00 0.  1.
         23    2    1    2    0    0 -0.23557893186E+02 -0.56591986323E+02  0.55851723156E+03  0.57128802781E+03  0.10329997831E+03 0.  0.
         11    1    3    3    0    0 -0.48542012059E+02 -0.94623686977E+01  0.41921222230E+03  0.42211935597E+03  0.00000000000E+00 0. -1.
        -11    1    3    3    0    0  0.24984118873E+02 -0.47129617626E+02  0.13930500926E+03  0.14916867184E+03  0.00000000000E+00 0.  1.
         22    1    1    2    0    0  0.23557893186E+02  0.56591986323E+02  0.18919924738E+03  0.19888183039E+03  0.00000000000E+00 0.  1.
<mgrwt>
<rscale>  0 0.10152484E+03</rscale>
<asrwt>0</asrwt>
<pdfrwt beam="1">  1        2 0.11676045E+00 0.12011874E+03</pdfrwt>
<pdfrwt beam="2">  1       -2 0.17271836E-02 0.12011874E+03</pdfrwt>
<totfact> 0.33803779E+04</totfact>
</mgrwt>
</event>
<event>
 6    1  0.1828142E-002  0.9142254E+02  0.7546771E-02  0.1425343E+00
          2   -1    0    0  501    0  0.00000000000E+00  0.00000000000E+00  0.25359087015E+03  0.25359087015E+03  0.00000000000E+00 0.  1.
         -2   -1    0    0    0  501 -0.00000000000E+00 -0.00000000000E+00 -0.10978574902E+02  0.10978574902E+02  0.00000000000E+00 0. -1.
         23    2    1    2    0    0  0.78352395436E+01 -0.77931459178E+01  0.19054203033E+03  0.21133941038E+03  0.90752173293E+02 0.  0.
         13    1    3    3    0    0 -0.19955607906E+02 -0.32070514019E+02  0.15697272809E+03  0.16145334162E+03  0.00000000000E+00 0.  1.
        -13    1    3    3    0    0  0.27790847450E+02  0.24277368101E+02  0.33569302242E+02  0.49886068766E+02  0.00000000000E+00 0. -1.
         22    1    1    2    0    0 -0.78352395436E+01  0.77931459178E+01  0.52070264921E+02  0.53230034670E+02  0.00000000000E+00 0. -1.
<mgrwt>
<rscale>  0 0.53906376E+02</rscale>
<asrwt>0</asrwt>
<pdfrwt beam="1">  1        2 0.39013975E-01 0.91422541E+02</pdfrwt>
<pdfrwt beam="2">  1       -2 0.16890117E-02 0.91422541E+02</pdfrwt>
<totfact> 0.11126929E+05</totfact>
</mgrwt>
</event>
<event>
 6    1  0.1828142E-002  0.9246507E+02  0.7546771E-02  0.1394509E+00
         -1   -1    0    0    0  501 -0.00000000000E+00  0.00000000000E+00  0.41995606606E+03  0.41995606606E+03  0.00000000000E+00 0.  1.
          1   -1    0    0  501    0  0.00000000000E+00 -0.00000000000E+00 -0.95043839001E+01  0.95043839001E+01  0.00000000000E+00 0. -1.
         23    2    1    2    0    0 -0.17281812864E+02 -0.28663638422E+00  0.39681182176E+03  0.40744252526E+03  0.90835270056E+02 0.  0.
         13    1    3    3    0    0  0.20407390267E+02 -0.65363558700E+01  0.22081391976E+02  0.30769683085E+02  0.00000000000E+00 0.  1.
        -13    1    3    3    0    0 -0.37689203132E+02  0.62497194858E+01  0.37473042978E+03  0.37667284217E+03  0.00000000000E+00 0. -1.
         22    1    1    2    0    0  0.17281812864E+02  0.28663638422E+00  0.13639860398E+02  0.22017924697E+02  0.00000000000E+00 0.  1.
<mgrwt>
<rscale>  0 0.60798875E+02</rscale>
<asrwt>0</asrwt>
<pdfrwt beam="1">  1        1 0.14622132E-02 0.92465072E+02</pdfrwt>
<pdfrwt beam="2">  1       -1 0.64608611E-01 0.92465072E+02</pdfrwt>
<totfact> 0.21083267E+04</totfact>
</mgrwt>
</event>
<event>
 6    1  0.1828142E-002  0.9313532E+02  0.7546771E-02  0.1379201E+00
          3   -1    0    0  501    0  0.00000000000E+00  0.00000000000E+00  0.30124645533E+03  0.30124645533E+03  0.00000000000E+00 0. -1.
         -3   -1    0    0    0  501 -0.00000000000E+00 -0.00000000000E+00 -0.11538338644E+02  0.11538338644E+02  0.00000000000E+00 0.  1.
         23    2    1    2    0    0 -0.18063460263E+02 -0.11945901716E+02  0.20190924435E+03  0.22235451615E+03  0.90582529953E+02 0.  0.
         11    1    3    3    0    0 -0.33640484359E+01 -0.33441266858E+02  0.21110191029E+02  0.39689738173E+02  0.00000000000E+00 0.  1.
        -11    1    3    3    0    0 -0.14699411827E+02  0.21495365142E+02  0.18079905332E+03  0.18266477797E+03  0.00000000000E+00 0. -1.
         22    1    1    2    0    0  0.18063460263E+02  0.11945901716E+02  0.87798872342E+02  0.90430277833E+02  0.00000000000E+00 0. -1.
<mgrwt>
<rscale>  0 0.64674283E+02</rscale>
<asrwt>0</asrwt>
<pdfrwt beam="1">  1        3 0.46345603E-01 0.93135320E+02</pdfrwt>
<pdfrwt beam="2">  1       -3 0.17751293E-02 0.93135320E+02</pdfrwt>
<totfact> 0.11063243E+04</totfact>
</mgrwt>
</event>
<event>
 6    1  0.1828142E-002  0.8696420E+02  0.7546771E-02  0.1438782E+00
          2   -1    0    0  501    0  0.00000000000E+00  0.00000000000E+00  0.91748197761E+02  0.91748197761E+02  0.00000000000E+00 0. -1.
         -2   -1    0    0    0  501 -0.00000000000E+00 -0.00000000000E+00 -0.32826109970E+02  0.32826109970E+02  0.00000000000E+00 0.  1.
         23    2    1    2    0    0 -0.30572939734E+01 -0.10022802357E+02  0.27126874669E+02  0.91096864712E+02  0.86330572902E+02 0.  0.
         11    1    3    3    0    0  0.14621930581E+02 -0.43477377987E+02  0.27061928923E+02  0.53258156629E+02  0.00000000000E+00 0.  1.
        -11    1    3    3    0    0 -0.17679224554E+02  0.33454575630E+02  0.64945745674E-01  0.37838708083E+02  0.00000000000E+00 0. -1.
         22    1    1    2    0    0  0.30572939734E+01  0.10022802357E+02  0.31795213122E+02  0.33477443018E+02  0.00000000000E+00 0. -1.
<mgrwt>
<rscale>  0 0.51236853E+02</rscale>
<asrwt>0</asrwt>
<pdfrwt beam="1">  1        2 0.14115107E-01 0.86964196E+02</pdfrwt>
<pdfrwt beam="2">  1       -2 0.50501708E-02 0.86964196E+02</pdfrwt>
<totfact> 0.68707618E+04</totfact>
</mgrwt>
</event>
<event>
 6    1  0.1828142E-002  0.1004741E+03  0.7546771E-02  0.1369303E+00
          2   -1    0    0  501    0  0.00000000000E+00  0.00000000000E+00  0.64112051992E+03  0.64112051992E+03  0.00000000000E+00 0. -1.
         -2   -1    0    0    0  501 -0.00000000000E+00 -0.00000000000E+00 -0.57573355234E+01  0.57573355234E+01  0.00000000000E+00 0.  1.
         23    2    1    2    0    0 -0.19687486101E+02  0.49463540009E+01  0.55273782564E+03  0.56179546340E+03  0.98402110099E+02 0.  0.
         13    1    3    3    0    0 -0.57535187988E+02 -0.10977968413E+02  0.28845210665E+03  0.29433897376E+03  0.00000000000E+00 0. -1.
        -13    1    3    3    0    0  0.37847701887E+02  0.15924322414E+02  0.26428571900E+03  0.26745648964E+03  0.00000000000E+00 0.  1.
         22    1    1    2    0    0  0.19687486101E+02 -0.49463540009E+01  0.82625358751E+02  0.85082392042E+02  0.00000000000E+00 0.  1.
<mgrwt>
<rscale>  0 0.67361387E+02</rscale>
<asrwt>0</asrwt>
<pdfrwt beam="1">  1        2 0.98633870E-01 0.10047407E+03</pdfrwt>
<pdfrwt beam="2">  1       -2 0.88574443E-03 0.10047407E+03</pdfrwt>
<totfact> 0.10481605E+05</totfact>
</mgrwt>
</event>
<event>
 6    1  0.1828142E-002  0.9318680E+02  0.7546771E-02  0.1399753E+00
          2   -1    0    0  501    0  0.00000000000E+00  0.00000000000E+00  0.12174449719E+02  0.12174449719E+02  0.00000000000E+00 0. -1.
         -2   -1    0    0    0  501 -0.00000000000E+00 -0.00000000000E+00 -0.24421402077E+03  0.24421402077E+03  0.00000000000E+00 0.  1.
         23    2    1    2    0    0 -0.10618886902E+02  0.11338799861E+02 -0.20539880170E+03  0.22554921413E+03  0.91882811842E+02 0.  0.
         13    1    3    3    0    0  0.23982036306E+02 -0.26967539146E+01 -0.91974258939E+01  0.25826404901E+02  0.00000000000E+00 0. -1.
        -13    1    3    3    0    0 -0.34600923208E+02  0.14035553776E+02 -0.19620137581E+03  0.19972280923E+03  0.00000000000E+00 0.  1.
         22    1    1    2    0    0  0.10618886902E+02 -0.11338799861E+02 -0.26640769349E+02  0.30839256360E+02  0.00000000000E+00 0. -1.
<mgrwt>
<rscale>  0 0.59544552E+02</rscale>
<asrwt>0</asrwt>
<pdfrwt beam="1">  1        2 0.18729923E-02 0.93186803E+02</pdfrwt>
<pdfrwt beam="2">  1       -2 0.37571386E-01 0.93186803E+02</pdfrwt>
<totfact> 0.35063464E+04</totfact>
</mgrwt>
</event>
<event>
 6    1  0.1828142E-002  0.9394476E+02  0.7546771E-02  0.1380872E+00
         -1   -1    0    0    0  501 -0.00000000000E+00  0.00000000000E+00  0.60354084488E+01  0.60354084488E+01  0.00000000000E+00 0.  1.
          1   -1    0    0  501    0  0.00000000000E+00 -0.00000000000E+00 -0.54408039276E+03  0.54408039276E+03  0.00000000000E+00 0. -1.
         23    2    1    2    0    0  0.16445554278E+02 -0.12295547505E+02 -0.45118287489E+03  0.46085963730E+03  0.91673234630E+02 0.  0.
         13    1    3    3    0    0  0.19271182133E+02 -0.18731684096E+01 -0.44951639008E+03  0.44993318634E+03  0.00000000000E+00 0. -1.
        -13    1    3    3    0    0 -0.28256278552E+01 -0.10422379095E+02 -0.16664848108E+01  0.10926450952E+02  0.00000000000E+00 0.  1.
         22    1    1    2    0    0 -0.16445554278E+02  0.12295547505E+02 -0.86862109418E+02  0.89256163914E+02  0.00000000000E+00 0. -1.
<mgrwt>
<rscale>  0 0.64235002E+02</rscale>
<asrwt>0</asrwt>
<pdfrwt beam="1">  1        1 0.83704688E-01 0.93944764E+02</pdfrwt>
<pdfrwt beam="2">  1       -1 0.92852424E-03 0.93944764E+02</pdfrwt>
<totfact> 0.74187556E+04</totfact>
</mgrwt>
</event>
<event>
 6    1  0.1828142E-002  0.9213034E+02  0.7546771E-02  0.1421876E+00
          2   -1    0    0  501    0  0.00000000000E+00  0.00000000000E+00  0.74483365392E+02  0.74483365392E+02  0.00000000000E+00 0. -1.
         -2   -1    0    0    0  501 -0.00000000000E+00 -0.00000000000E+00 -0.50410299519E+02  0.50410299519E+02  0.00000000000E+00 0.  1.
         23    2    1    2    0    0 -0.42856339305E+01  0.10549232117E+02 -0.64103121397E+01  0.92353085760E+02  0.91423997895E+02 0.  0.
         11    1    3    3    0    0  0.21089445814E+02  0.32423949068E+02 -0.31996391056E+02  0.50198070067E+02  0.00000000000E+00 0.  1.
        -11    1    3    3    0    0 -0.25375079744E+02 -0.21874716951E+02  0.25586078916E+02  0.42155015692E+02  0.00000000000E+00 0. -1.
         22    1    1    2    0    0  0.42856339305E+01 -0.10549232117E+02  0.30483378013E+02  0.32540579152E+02  0.00000000000E+00 0. -1.
<mgrwt>
<rscale>  0 0.54626053E+02</rscale>
<asrwt>0</asrwt>
<pdfrwt beam="1">  1        2 0.11458979E-01 0.92130344E+02</pdfrwt>
<pdfrwt beam="2">  1       -2 0.77554307E-02 0.92130344E+02</pdfrwt>
<totfact> 0.46466831E+04</totfact>
</mgrwt>
</event>
<event>
 6    1  0.1828142E-002  0.9066723E+02  0.7546771E-02  0.1412993E+00
         -2   -1    0    0    0  501 -0.00000000000E+00  0.00000000000E+00  0.36316570294E+02  0.36316570294E+02  0.00000000000E+00 0.  1.
          2   -1    0    0  501    0  0.00000000000E+00 -0.00000000000E+00 -0.79335950958E+02  0.79335950958E+02  0.00000000000E+00 0. -1.
         23    2    1    2    0    0  0.36034366479E+01  0.13220303840E+02 -0.27063103149E+02  0.94620070575E+02  0.89625805516E+02 0.  0.
         13    1    3    3    0    0 -0.37844365165E+02  0.24530470713E+02 -0.25096676171E+02  0.51611850606E+02  0.00000000000E+00 0. -1.
        -13    1    3    3    0    0  0.41447801813E+02 -0.11310166873E+02 -0.19664269781E+01  0.43008219969E+02  0.00000000000E+00 0.  1.
         22    1    1    2    0    0 -0.36034366479E+01 -0.13220303840E+02 -0.15956277515E+02  0.21032450676E+02  0.00000000000E+00 0.  1.
<mgrwt>
<rscale>  0 0.56531236E+02</rscale>
<asrwt>0</asrwt>
<pdfrwt beam="1">  1        2 0.12205531E-01 0.90667228E+02</pdfrwt>
<pdfrwt beam="2">  1       -2 0.55871646E-02 0.90667228E+02</pdfrwt>
<totfact> 0.70548475E+04</totfact>
</mgrwt>
</event>
<event>
 6    1  0.1828142E-002  0.9212561E+02  0.7546771E-02  0.1417251E+00
          3   -1    0    0  501    0  0.00000000000E+00  0.00000000000E+00  0.77548115762E+02  0.77548115762E+02  0.00000000000E+00 0. -1.
         -3   -1    0    0    0  501 -0.00000000000E+00 -0.00000000000E+00 -0.43780694513E+02  0.43780694513E+02  0.00000000000E+00 0.  1.
         23    2    1    2    0    0  0.96831688492E+01 -0.74679397017E+01  0.75920441747E+01  0.92437907775E+02  0.91310425345E+02 0.  0.
         11    1    3    3    0    0 -0.12957382587E+02  0.22937462339E+02 -0.29396296947E+02  0.39473576178E+02  0.00000000000E+00 0.  1.
        -11    1    3    3    0    0  0.22640551436E+02 -0.30405402040E+02  0.36988341122E+02  0.52964331597E+02  0.00000000000E+00 0. -1.
         22    1    1    2    0    0 -0.96831688492E+01  0.74679397017E+01  0.26175377073E+02  0.28890902500E+02  0.00000000000E+00 0. -1.
<mgrwt>
<rscale>  0 0.55606777E+02</rscale>
<asrwt>0</asrwt>
<pdfrwt beam="1">  1        3 0.11930479E-01 0.92125608E+02</pdfrwt>
<pdfrwt beam="2">  1       -3 0.67354915E-02 0.92125608E+02</pdfrwt>
<totfact> 0.15920539E+04</totfact>
</mgrwt>
</event>
<event>
 6    1  0.1828142E-002  0.9362436E+02  0.7546771E-02  0.1373201E+00
         -2   -1    0    0    0  501 -0.00000000000E+00  0.00000000000E+00  0.39946368749E+02  0.39946368749E+02  0.00000000000E+00 0.  1.
          2   -1    0    0  501    0  0.00000000000E+00 -0.00000000000E+00 -0.99082858601E+02  0.99082858601E+02  0.00000000000E+00 0. -1.
         23    2    1    2    0    0 -0.18853722768E+02 -0.14067617846E+02 -0.23839531324E+02  0.96611825079E+02  0.90620973054E+02 0.  0.
         11    1    3    3    0    0  0.18043212957E+02 -0.42033906231E+02 -0.30033428293E+01  0.45841322788E+02  0.00000000000E+00 0. -1.
        -11    1    3    3    0    0 -0.36896935725E+02  0.27966288384E+02 -0.20836188495E+02  0.50770502291E+02  0.00000000000E+00 0.  1.
         22    1    1    2    0    0  0.18853722768E+02  0.14067617846E+02 -0.35296958529E+02  0.42417402271E+02  0.00000000000E+00 0. -1.
<mgrwt>
<rscale>  0 0.66285373E+02</rscale>
<asrwt>0</asrwt>
<pdfrwt beam="1">  1        2 0.15243517E-01 0.93624364E+02</pdfrwt>
<pdfrwt beam="2">  1       -2 0.61455953E-02 0.93624364E+02</pdfrwt>
<totfact> 0.47367189E+04</totfact>
</mgrwt>
</event>
<event>
 6    1  0.1828142E-002  0.9385344E+02  0.7546771E-02  0.1422566E+00
          2   -1    0    0  501    0  0.00000000000E+00  0.00000000000E+00  0.31067804727E+03  0.31067804727E+03  0.00000000000E+00 0. -1.
         -2   -1    0    0    0  501 -0.00000000000E+00 -0.00000000000E+00 -0.92430459670E+01  0.92430459670E+01  0.00000000000E+00 0.  1.
         23    2    1    2    0    0  0.10656938236E+02 -0.96751171495E-01  0.24246233089E+03  0.25999317363E+03  0.93246387264E+02 0.  0.
         13    1    3    3    0    0 -0.37527636936E+02  0.28773384463E+01  0.16064216000E+03  0.16499244280E+03  0.00000000000E+00 0. -1.
        -13    1    3    3    0    0  0.48184575172E+02 -0.29740896178E+01  0.81820170895E+02  0.95000730833E+02  0.00000000000E+00 0.  1.
         22    1    1    2    0    0 -0.10656938236E+02  0.96751171495E-01  0.58972670408E+02  0.59927919607E+02  0.00000000000E+00 0. -1.
<mgrwt>
<rscale>  0 0.54481648E+02</rscale>
<asrwt>0</asrwt>
<pdfrwt beam="1">  1        2 0.47796614E-01 0.93853441E+02</pdfrwt>
<pdfrwt beam="2">  1       -2 0.14220073E-02 0.93853441E+02</pdfrwt>
<totfact> 0.11548922E+05</totfact>
</mgrwt>
</event>
<event>
 6    1  0.1828142E-002  0.9371498E+02  0.7546771E-02  0.1389559E+00
          2   -1    0    0  501    0  0.00000000000E+00  0.00000000000E+00  0.29546940562E+02  0.29546940562E+02  0.00000000000E+00 0.  1.
         -2   -1    0    0    0  501 -0.00000000000E+00 -0.00000000000E+00 -0.12798032242E+03  0.12798032242E+03  0.00000000000E+00 0. -1.
         23    2    1    2    0    0 -0.13921097441E+01 -0.17918131476E+02 -0.10272475021E+03  0.13904989175E+03  0.91975543957E+02 0.  0.
         11    1    3    3    0    0  0.19547259660E+02 -0.42557747177E+02 -0.94831537253E+02  0.10576520062E+03  0.00000000000E+00 0. -1.
        -11    1    3    3    0    0 -0.20939369404E+02  0.24639615702E+02 -0.78932129571E+01  0.33284691132E+02  0.00000000000E+00 0.  1.
         22    1    1    2    0    0  0.13921097441E+01  0.17918131476E+02  0.42913683520E+01  0.18477371227E+02  0.00000000000E+00 0. -1.
<mgrwt>
<rscale>  0 0.62016414E+02</rscale>
<asrwt>0</asrwt>
<pdfrwt beam="1">  1        2 0.45456831E-02 0.93714983E+02</pdfrwt>
<pdfrwt beam="2">  1       -2 0.19689281E-01 0.93714983E+02</pdfrwt>
<totfact> 0.33633349E+04</totfact>
</mgrwt>
</event>
<event>
 6    1  0.1828142E-002  0.9142398E+02  0.7546771E-02  0.1430535E+00
         -2   -1    0    0    0  501 -0.00000000000E+00  0.00000000000E+00  0.26059100020E+02  0.26059100020E+02  0.00000000000E+00 0.  1.
          2   -1    0    0  501    0  0.00000000000E+00 -0.00000000000E+00 -0.12461979361E+03  0.12461979361E+03  0.00000000000E+00 0. -1.
         23    2    1    2    0    0 -0.13191600011E+01  0.10126021412E+02 -0.56673658061E+02  0.10756508797E+03  0.90851902238E+02 0.  0.
         11    1    3    3    0    0 -0.15661948769E+02 -0.78690158908E+01 -0.75702329233E+02  0.77704959312E+02  0.00000000000E+00 0. -1.
        -11    1    3    3    0    0  0.14342788767E+02  0.17995037302E+02  0.19028671172E+02  0.29860128662E+02  0.00000000000E+00 0.  1.
         22    1    1    2    0    0  0.13191600011E+01 -0.10126021412E+02 -0.41887035529E+02  0.43113805656E+02  0.00000000000E+00 0. -1.
<mgrwt>
<rscale>  0 0.52852849E+02</rscale>
<asrwt>0</asrwt>
<pdfrwt beam="1">  1        2 0.19172276E-01 0.91423983E+02</pdfrwt>
<pdfrwt beam="2">  1       -2 0.40090923E-02 0.91423983E+02</pdfrwt>
<totfact> 0.68602887E+04</totfact>
</mgrwt>
</event>
<event>
 6    1  0.1828142E-002  0.8826807E+02  0.7546771E-02  0.1408408E+00
          2   -1    0    0  501    0  0.00000000000E+00  0.00000000000E+00  0.21900823098E+03  0.21900823098E+03  0.00000000000E+00 0. -1.
         -2   -1    0    0    0  501 -0.00000000000E+00 -0.00000000000E+00 -0.12703246217E+02  0.12703246217E+02  0.00000000000E+00 0.  1.
         23    2    1    2    0    0 -0.78579404724E+01  0.13881200847E+02  0.15995178200E+03  0.18269051870E+03  0.86814849494E+02 0.  0.
         11    1    3    3    0    0  0.61040754110E+00 -0.24175221010E+02  0.13327232881E+03  0.13544861585E+03  0.00000000000E+00 0. -1.
        -11    1    3    3    0    0 -0.84683480135E+01  0.38056421856E+02  0.26679453184E+02  0.47241902849E+02  0.00000000000E+00 0.  1.
         22    1    1    2    0    0  0.78579404724E+01 -0.13881200847E+02  0.46353202768E+02  0.49020958500E+02  0.00000000000E+00 0. -1.
<mgrwt>
<rscale>  0 0.57550598E+02</rscale>
<asrwt>0</asrwt>
<pdfrwt beam="1">  1        2 0.33693571E-01 0.88268075E+02</pdfrwt>
<pdfrwt beam="2">  1       -2 0.19543457E-02 0.88268075E+02</pdfrwt>
<totfact> 0.10480590E+05</totfact>
</mgrwt>
</event>
<event>
 6    1  0.1828142E-002  0.9344864E+02  0.7546771E-02  0.1388958E+00
          2   -1    0    0  501    0  0.00000000000E+00  0.00000000000E+00  0.15505310768E+03  0.15505310768E+03  0.00000000000E+00 0. -1.
         -2   -1    0    0    0  501 -0.00000000000E+00 -0.00000000000E+00 -0.29042075294E+02  0.29042075294E+02  0.00000000000E+00 0.  1.
         23    2    1    2    0    0 -0.17868422005E+02 -0.39625291427E+01  0.50145053032E+02  0.10605270117E+03  0.91638785132E+02 0.  0.
         13    1    3    3    0    0 -0.39710900308E+02  0.78260225530E+01 -0.93910513434E+01  0.41549898647E+02  0.00000000000E+00 0.  1.
        -13    1    3    3    0    0  0.21842478303E+02 -0.11788551696E+02  0.59536104375E+02  0.64502802526E+02  0.00000000000E+00 0. -1.
         22    1    1    2    0    0  0.17868422005E+02  0.39625291427E+01  0.75865979358E+02  0.78042481804E+02  0.00000000000E+00 0. -1.
<mgrwt>
<rscale>  0 0.62166649E+02</rscale>
<asrwt>0</asrwt>
<pdfrwt beam="1">  1        2 0.23854324E-01 0.93448644E+02</pdfrwt>
<pdfrwt beam="2">  1       -2 0.44680117E-02 0.93448644E+02</pdfrwt>
<totfact> 0.46027031E+04</totfact>
</mgrwt>
</event>
<event>
 6    1  0.1828142E-002  0.8480167E+02  0.7546771E-02  0.1437210E+00
         -2   -1    0    0    0  501 -0.00000000000E+00  0.00000000000E+00  0.19789076050E+03  0.19789076050E+03  0.00000000000E+00 0.  1.
          2   -1    0    0  501    0  0.00000000000E+00 -0.00000000000E+00 -0.19886832492E+02  0.19886832492E+02  0.00000000000E+00 0. -1.
         23    2    1    2    0    0  0.42566341206E+01  0.10759027416E+02  0.18551822100E+03  0.20398120925E+03  0.84008617421E+02 0.  0.
         13    1    3    3    0    0 -0.27714667436E+02 -0.61937403234E+01  0.15208340001E+03  0.15471207376E+03  0.00000000000E+00 0.  1.
        -13    1    3    3    0    0  0.31971301557E+02  0.16952767740E+02  0.33434820992E+02  0.49269135491E+02  0.00000000000E+00 0. -1.
         22    1    1    2    0    0 -0.42566341206E+01 -0.10759027416E+02 -0.75142929932E+01  0.13796383735E+02  0.00000000000E+00 0. -1.
<mgrwt>
<rscale>  0 0.51539593E+02</rscale>
<asrwt>0</asrwt>
<pdfrwt beam="1">  1        2 0.30595128E-02 0.84801671E+02</pdfrwt>
<pdfrwt beam="2">  1       -2 0.30444731E-01 0.84801671E+02</pdfrwt>
<totfact> 0.26295739E+04</totfact>
</mgrwt>
</event>
<event>
 6    1  0.1828142E-002  0.9458215E+02  0.7546771E-02  0.1375048E+00
          3   -1    0    0  501    0  0.00000000000E+00  0.00000000000E+00  0.29043165262E+03  0.29043165262E+03  0.00000000000E+00 0. -1.
         -3   -1    0    0    0  501 -0.00000000000E+00 -0.00000000000E+00 -0.12926105238E+02  0.12926105238E+02  0.00000000000E+00 0.  1.
         23    2    1    2    0    0 -0.97434620543E+01 -0.19873110995E+02  0.17961118603E+03  0.20299251698E+03  0.91956012347E+02 0.  0.
         13    1    3    3    0    0 -0.21235352954E+02 -0.48224102029E+02  0.15505697380E+03  0.16376559271E+03  0.00000000000E+00 0. -1.
        -13    1    3    3    0    0  0.11491890899E+02  0.28350991034E+02  0.24554212235E+02  0.39226924268E+02  0.00000000000E+00 0.  1.
         22    1    1    2    0    0  0.97434620543E+01  0.19873110995E+02  0.97894361344E+02  0.10036524088E+03  0.00000000000E+00 0. -1.
<mgrwt>
<rscale>  0 0.65783598E+02</rscale>
<asrwt>0</asrwt>
<pdfrwt beam="1">  1        3 0.44681788E-01 0.94582154E+02</pdfrwt>
<pdfrwt beam="2">  1       -3 0.19886318E-02 0.94582154E+02</pdfrwt>
<totfact> 0.10047213E+04</totfact>
</mgrwt>
</event>
<event>
 6    1  0.1828142E-002  0.9153142E+02  0.7546771E-02  0.1421471E+00
         -2   -1    0    0    0  501 -0.00000000000E+00  0.00000000000E+00  0.16445934867E+02  0.16445934867E+02  0.00000000000E+00 0. -1.
          2   -1    0    0  501    0  0.00000000000E+00 -0.00000000000E+00 -0.16310110827E+03  0.16310110827E+03  0.00000000000E+00 0.  1.
         23    2    1    2    0    0 -0.10803804047E+02 -0.44484045914E+01 -0.13446589682E+03  0.16266246589E+03  0.90782652062E+02 0.  0.
         11    1    3    3    0    0 -0.25514158623E+02  0.31461121312E+02 -0.27724154579E+02  0.49085671958E+02  0.00000000000E+00 0. -1.
        -11    1    3    3    0    0  0.14710354576E+02 -0.35909525903E+02 -0.10674174224E+03  0.11357679393E+03  0.00000000000E+00 0.  1.
         22    1    1    2    0    0  0.10803804047E+02  0.44484045914E+01 -0.12189276581E+02  0.16884577249E+02  0.00000000000E+00 0. -1.
<mgrwt>
<rscale>  0 0.54710841E+02</rscale>
<asrwt>0</asrwt>
<pdfrwt beam="1">  1        2 0.25092479E-01 0.91531418E+02</pdfrwt>
<pdfrwt beam="2">  1       -2 0.25301438E-02 0.91531418E+02</pdfrwt>
<totfact> 0.99686490E+04</totfact>
</mgrwt>
</event>
<event>
 6    1  0.1828142E-002  0.9237720E+02  0.7546771E-02  0.1398561E+00
         -2   -1    0    0    0  501 -0.00000000000E+00  0.00000000000E+00  0.40326074751E+03  0.40326074751E+03  0.00000000000E+00 0.  1.
          2   -1    0    0  501    0  0.00000000000E+00 -0.00000000000E+00 -0.73717903930E+01  0.73717903930E+01  0.00000000000E+00 0. -1.
         23    2    1    2    0    0 -0.10981015566E+02  0.11979860114E+02  0.32274957382E+03  0.33570944974E+03  0.90936502521E+02 0.  0.
         13    1    3    3    0    0 -0.33813255186E+01  0.27124268589E+02  0.31645569954E+03  0.31763401751E+03  0.00000000000E+00 0.  1.
        -13    1    3    3    0    0 -0.75996900478E+01 -0.15144408475E+02  0.62938742875E+01  0.18075432234E+02  0.00000000000E+00 0. -1.
         22    1    1    2    0    0  0.10981015566E+02 -0.11979860114E+02  0.73139383294E+02  0.74923088162E+02  0.00000000000E+00 0.  1.
<mgrwt>
<rscale>  0 0.59826638E+02</rscale>
<asrwt>0</asrwt>
<pdfrwt beam="1">  1        2 0.11341219E-02 0.92377201E+02</pdfrwt>
<pdfrwt beam="2">  1       -2 0.62040098E-01 0.92377201E+02</pdfrwt>
<totfact> 0.26050373E+04</totfact>
</mgrwt>
</event>
<event>
 6    1  0.1828142E-002  0.9557520E+02  0.7546771E-02  0.1358045E+00
          1   -1    0    0  501    0  0.00000000000E+00  0.00000000000E+00  0.27924656440E+02  0.27924656440E+02  0.00000000000E+00 0. -1.
         -1   -1    0    0    0  501 -0.00000000000E+00 -0.00000000000E+00 -0.20137031408E+03  0.20137031408E+03  0.00000000000E+00 0.  1.
         23    2    1    2    0    0  0.24141602976E+02  0.15082957239E+02 -0.17644893581E+03  0.20067098978E+03  0.91237638064E+02 0.  0.
         13    1    3    3    0    0  0.42278834618E+02  0.70709264811E+01 -0.28675131710E+02  0.51572871130E+02  0.00000000000E+00 0. -1.
        -13    1    3    3    0    0 -0.18137231642E+02  0.80120307575E+01 -0.14777380410E+03  0.14909811865E+03  0.00000000000E+00 0.  1.
         22    1    1    2    0    0 -0.24141602976E+02 -0.15082957239E+02  0.30032781701E+01  0.28623980734E+02  0.00000000000E+00 0. -1.
<mgrwt>
<rscale>  0 0.70605818E+02</rscale>
<asrwt>0</asrwt>
<pdfrwt beam="1">  1        1 0.42961011E-02 0.95575202E+02</pdfrwt>
<pdfrwt beam="2">  1       -1 0.30980048E-01 0.95575202E+02</pdfrwt>
<totfact> 0.17784310E+04</totfact>
</mgrwt>
</event>
<event>
 6    1  0.1828142E-002  0.7418919E+02  0.7546771E-02  0.1443018E+00
         -4   -1    0    0    0  501 -0.00000000000E+00  0.00000000000E+00  0.17399359415E+03  0.17399359415E+03  0.00000000000E+00 0.  1.
          4   -1    0    0  501    0  0.00000000000E+00 -0.00000000000E+00 -0.13071377515E+02  0.13071377515E+02  0.00000000000E+00 0. -1.
         23    2    1    2    0    0  0.91126928380E-01 -0.15843114987E+02  0.15134796918E+03  0.16855338581E+03  0.72477744828E+02 0.  0.
         13    1    3    3    0    0  0.28042193877E+02  0.75897372577E+01  0.29662421417E+02  0.41519007616E+02  0.00000000000E+00 0. -1.
        -13    1    3    3    0    0 -0.27951066949E+02 -0.23432852245E+02  0.12168554777E+03  0.12703437819E+03  0.00000000000E+00 0.  1.
         22    1    1    2    0    0 -0.91126928380E-01  0.15843114987E+02  0.95742474507E+01  0.18511585855E+02  0.00000000000E+00 0. -1.
<mgrwt>
<rscale>  0 0.50433304E+02</rscale>
<asrwt>0</asrwt>
<pdfrwt beam="1">  1        4 0.20109813E-02 0.74189191E+02</pdfrwt>
<pdfrwt beam="2">  1       -4 0.26768244E-01 0.74189191E+02</pdfrwt>
<totfact> 0.17916712E+04</totfact>
</mgrwt>
</event>
<event>
 6    1  0.1828142E-002  0.9248187E+02  0.7546771E-02  0.1416527E+00
         -1   -1    0    0    0  501 -0.00000000000E+00  0.00000000000E+00  0.50357369066E+02  0.50357369066E+02  0.00000000000E+00 0.  1.
          1   -1    0    0  501    0  0.00000000000E+00 -0.00000000000E+00 -0.60335779200E+02  0.60335779200E+02  0.00000000000E+00 0. -1.
         23    2    1    2    0    0 -0.91899449748E+01 -0.80599600105E+01  0.34348083639E+01  0.92545628477E+02  0.91670482696E+02 0.  0.
         11    1    3    3    0    0  0.24524995675E+01  0.37573997295E+02 -0.16868660350E+02  0.41259807668E+02  0.00000000000E+00 0. -1.
        -11    1    3    3    0    0 -0.11642444542E+02 -0.45633957305E+02  0.20303468714E+02  0.51285820809E+02  0.00000000000E+00 0.  1.
         22    1    1    2    0    0  0.91899449748E+01  0.80599600105E+01 -0.13413218498E+02  0.18147519789E+02  0.00000000000E+00 0. -1.
<mgrwt>
<rscale>  0 0.55762575E+02</rscale>
<asrwt>0</asrwt>
<pdfrwt beam="1">  1        1 0.92824276E-02 0.92481865E+02</pdfrwt>
<pdfrwt beam="2">  1       -1 0.77472875E-02 0.92481865E+02</pdfrwt>
<totfact> 0.55137148E+04</totfact>
</mgrwt>
</event>
<event>
 6    1  0.1828142E-002  0.9408907E+02  0.7546771E-02  0.1392088E+00
          1   -1    0    0  501    0  0.00000000000E+00  0.00000000000E+00  0.25879925070E+02  0.25879925070E+02  0.00000000000E+00 0. -1.
         -1   -1    0    0    0  501 -0.00000000000E+00 -0.00000000000E+00 -0.12132346458E+03  0.12132346458E+03  0.00000000000E+00 0.  1.
         23    2    1    2    0    0  0.13287664465E+02 -0.10687252304E+02 -0.87116844196E+02  0.12822673969E+03  0.92530929103E+02 0.  0.
         13    1    3    3    0    0 -0.22996970144E+02  0.25452922209E+02 -0.62747779657E+02  0.71512206906E+02  0.00000000000E+00 0. -1.
        -13    1    3    3    0    0  0.36284634609E+02 -0.36140174513E+02 -0.24369064540E+02  0.56714532786E+02  0.00000000000E+00 0.  1.
         22    1    1    2    0    0 -0.13287664465E+02  0.10687252304E+02 -0.83266953126E+01  0.18976649957E+02  0.00000000000E+00 0. -1.
<mgrwt>
<rscale>  0 0.61390309E+02</rscale>
<asrwt>0</asrwt>
<pdfrwt beam="1">  1        1 0.39815270E-02 0.94089065E+02</pdfrwt>
<pdfrwt beam="2">  1       -1 0.18665148E-01 0.94089065E+02</pdfrwt>
<totfact> 0.44775267E+04</totfact>
</mgrwt>
</event>
<event>
 6    1  0.1828142E-002  0.9311469E+02  0.7546771E-02  0.1374145E+00
         -2   -1    0    0    0  501 -0.00000000000E+00  0.00000000000E+00  0.50388888786E+02  0.50388888786E+02  0.00000000000E+00 0.  1.
          2   -1    0    0  501    0  0.00000000000E+00 -0.00000000000E+00 -0.67560392584E+02  0.67560392584E+02  0.00000000000E+00 0. -1.
         23    2    1    2    0    0 -0.20185059286E+02  0.12117751338E+02 -0.14860420617E+02  0.94293042840E+02  0.90089229719E+02 0.  0.
         13    1    3    3    0    0  0.26015698552E+02 -0.64944594033E+01 -0.31879415697E+02  0.41656832804E+02  0.00000000000E+00 0. -1.
        -13    1    3    3    0    0 -0.46200757838E+02  0.18612210742E+02  0.17018995080E+02  0.52636210037E+02  0.00000000000E+00 0.  1.
         22    1    1    2    0    0  0.20185059286E+02 -0.12117751338E+02 -0.23110831816E+01  0.23656238529E+02  0.00000000000E+00 0.  1.
<mgrwt>
<rscale>  0 0.66028201E+02</rscale>
<asrwt>0</asrwt>
<pdfrwt beam="1">  1        2 0.10393906E-01 0.93114692E+02</pdfrwt>
<pdfrwt beam="2">  1       -2 0.77521368E-02 0.93114692E+02</pdfrwt>
<totfact> 0.52352346E+04</totfact>
</mgrwt>
</event>
<event>
 6    1  0.1828142E-002  0.9998592E+02  0.7546771E-02  0.1342128E+00
          2   -1    0    0  501    0  0.00000000000E+00  0.00000000000E+00  0.33661072643E+02  0.33661072643E+02  0.00000000000E+00 0. -1.
         -2   -1    0    0    0  501 -0.00000000000E+00 -0.00000000000E+00 -0.41368040257E+03  0.41368040257E+03  0.00000000000E+00 0.  1.
         23    2    1    2    0    0 -0.32521133634E+02  0.25386414798E+01 -0.39781172510E+03  0.41018453562E+03  0.94515161772E+02 0.  0.
         13    1    3    3    0    0 -0.35053303382E+02 -0.22673348862E+02 -0.70792601369E+02  0.82185200828E+02  0.00000000000E+00 0. -1.
        -13    1    3    3    0    0  0.25321697486E+01  0.25211990342E+02 -0.32701912373E+03  0.32799933479E+03  0.00000000000E+00 0.  1.
         22    1    1    2    0    0  0.32521133634E+02 -0.25386414798E+01  0.17792395175E+02  0.37156939587E+02  0.00000000000E+00 0. -1.
<mgrwt>
<rscale>  0 0.75565813E+02</rscale>
<asrwt>0</asrwt>
<pdfrwt beam="1">  1        2 0.51786265E-02 0.99985922E+02</pdfrwt>
<pdfrwt beam="2">  1       -2 0.63643139E-01 0.99985922E+02</pdfrwt>
<totfact> 0.32706247E+03</totfact>
</mgrwt>
</event>
<event>
 6    1  0.1828142E-002  0.8858635E+02  0.7546771E-02  0.1410984E+00
         -1   -1    0    0    0  501 -0.00000000000E+00  0.00000000000E+00  0.51347849970E+02  0.51347849970E+02  0.00000000000E+00 0.  1.
          1   -1    0    0  501    0  0.00000000000E+00 -0.00000000000E+00 -0.67056279583E+02  0.67056279583E+02  0.00000000000E+00 0. -1.
         23    2    1    2    0    0  0.95539606638E+01 -0.11767558813E+02  0.93911726281E+01  0.89082744228E+02  0.87279938079E+02 0.  0.
         11    1    3    3    0    0  0.14333637019E+02  0.36446589355E+02  0.10752659829E+02  0.40613134811E+02  0.00000000000E+00 0.  1.
        -11    1    3    3    0    0 -0.47796763552E+01 -0.48214148168E+02 -0.13614872009E+01  0.48469609416E+02  0.00000000000E+00 0. -1.
         22    1    1    2    0    0 -0.95539606638E+01  0.11767558813E+02 -0.25099602241E+02  0.29321385326E+02  0.00000000000E+00 0. -1.
<mgrwt>
<rscale>  0 0.56974811E+02</rscale>
<asrwt>0</asrwt>
<pdfrwt beam="1">  1        1 0.10316351E-01 0.88586349E+02</pdfrwt>
<pdfrwt beam="2">  1       -1 0.78996693E-02 0.88586349E+02</pdfrwt>
<totfact> 0.46349271E+04</totfact>
</mgrwt>
</event>
<event>
 6    1  0.1828142E-002  0.9317783E+02  0.7546771E-02  0.1391551E+00
         -4   -1    0    0    0  501 -0.00000000000E+00  0.00000000000E+00  0.11769675515E+02  0.11769675515E+02  0.00000000000E+00 0.  1.
          4   -1    0    0  501    0  0.00000000000E+00 -0.00000000000E+00 -0.28904552819E+03  0.28904552819E+03  0.00000000000E+00 0. -1.
         23    2    1    2    0    0 -0.14618991298E+02  0.99949384008E+01 -0.18828484157E+03  0.21007924745E+03  0.91479478263E+02 0.  0.
         11    1    3    3    0    0 -0.13636295999E+02  0.20859207010E+02 -0.37256206585E+01  0.25197923227E+02  0.00000000000E+00 0.  1.
        -11    1    3    3    0    0 -0.98269529883E+00 -0.10864268609E+02 -0.18455922092E+03  0.18488132423E+03  0.00000000000E+00 0. -1.
         22    1    1    2    0    0  0.14618991298E+02 -0.99949384008E+01 -0.88991011102E+02  0.90735956253E+02  0.00000000000E+00 0.  1.
<mgrwt>
<rscale>  0 0.61522480E+02</rscale>
<asrwt>0</asrwt>
<pdfrwt beam="1">  1        4 0.44468546E-01 0.93177833E+02</pdfrwt>
<pdfrwt beam="2">  1       -4 0.18107192E-02 0.93177833E+02</pdfrwt>
<totfact> 0.85789966E+03</totfact>
</mgrwt>
</event>
<event>
 6    1  0.1828142E-002  0.9253951E+02  0.7546771E-02  0.1383665E+00
          2   -1    0    0  501    0  0.00000000000E+00  0.00000000000E+00  0.15513460663E+02  0.15513460663E+02  0.00000000000E+00 0. -1.
         -2   -1    0    0    0  501 -0.00000000000E+00 -0.00000000000E+00 -0.23632423065E+03  0.23632423065E+03  0.00000000000E+00 0.  1.
         23    2    1    2    0    0  0.10842566361E+02 -0.17433284039E+02 -0.20795285975E+03  0.22761360220E+03  0.90233471570E+02 0.  0.
         11    1    3    3    0    0  0.38735149384E+02  0.39004013653E+01 -0.39205492993E+02  0.55251204597E+02  0.00000000000E+00 0. -1.
        -11    1    3    3    0    0 -0.27892583023E+02 -0.21333685404E+02 -0.16874736676E+03  0.17236239760E+03  0.00000000000E+00 0.  1.
         22    1    1    2    0    0 -0.10842566361E+02  0.17433284039E+02 -0.12857910241E+02  0.24224089115E+02  0.00000000000E+00 0.  1.
<mgrwt>
<rscale>  0 0.63510069E+02</rscale>
<asrwt>0</asrwt>
<pdfrwt beam="1">  1        2 0.23866864E-02 0.92539505E+02</pdfrwt>
<pdfrwt beam="2">  1       -2 0.36357572E-01 0.92539505E+02</pdfrwt>
<totfact> 0.26856318E+04</totfact>
</mgrwt>
</event>
<event>
 6    1  0.1828142E-002  0.9719627E+02  0.7546771E-02  0.1346537E+00
         -4   -1    0    0    0  501 -0.00000000000E+00  0.00000000000E+00  0.19137035839E+02  0.19137035839E+02  0.00000000000E+00 0.  1.
          4   -1    0    0  501    0  0.00000000000E+00 -0.00000000000E+00 -0.22234034394E+03  0.22234034394E+03  0.00000000000E+00 0. -1.
         23    2    1    2    0    0  0.10560254628E+02 -0.31175077786E+02 -0.14385717542E+03  0.17361451868E+03  0.91453319912E+02 0.  0.
         11    1    3    3    0    0 -0.27282327651E+02 -0.44546586421E+02 -0.53643056304E+02  0.74875237920E+02  0.00000000000E+00 0. -1.
        -11    1    3    3    0    0  0.37842582279E+02  0.13371508635E+02 -0.90214119116E+02  0.98739280758E+02  0.00000000000E+00 0.  1.
         22    1    1    2    0    0 -0.10560254628E+02  0.31175077786E+02 -0.59346132683E+02  0.67862861104E+02  0.00000000000E+00 0. -1.
<mgrwt>
<rscale>  0 0.74145708E+02</rscale>
<asrwt>0</asrwt>
<pdfrwt beam="1">  1        4 0.34206208E-01 0.97196266E+02</pdfrwt>
<pdfrwt beam="2">  1       -4 0.29441593E-02 0.97196266E+02</pdfrwt>
<totfact> 0.68512746E+03</totfact>
</mgrwt>
</event>
<event>
 6    1  0.1828142E-002  0.9203117E+02  0.7546771E-02  0.1390682E+00
         -2   -1    0    0    0  501 -0.00000000000E+00  0.00000000000E+00  0.51675454878E+03  0.51675454878E+03  0.00000000000E+00 0.  1.
          2   -1    0    0  501    0  0.00000000000E+00 -0.00000000000E+00 -0.61360304404E+01  0.61360304404E+01  0.00000000000E+00 0. -1.
         23    2    1    2    0    0 -0.17700608974E+02  0.58344907317E+01  0.45556563560E+03  0.46476852886E+03  0.90124271088E+02 0.  0.
         13    1    3    3    0    0  0.25832269172E+02  0.16373438558E+02  0.67246986697E+02  0.73875251882E+02  0.00000000000E+00 0. -1.
        -13    1    3    3    0    0 -0.43532878146E+02 -0.10538947827E+02  0.38831864890E+03  0.39089327698E+03  0.00000000000E+00 0.  1.
         22    1    1    2    0    0  0.17700608974E+02 -0.58344907317E+01  0.55052882740E+02  0.58122050361E+02  0.00000000000E+00 0. -1.
<mgrwt>
<rscale>  0 0.61737293E+02</rscale>
<asrwt>0</asrwt>
<pdfrwt beam="1">  1        2 0.94400509E-03 0.92031174E+02</pdfrwt>
<pdfrwt beam="2">  1       -2 0.79500666E-01 0.92031174E+02</pdfrwt>
<totfact> 0.19830797E+04</totfact>
</mgrwt>
</event>
<event>
 6    1  0.1828142E-002  0.9240833E+02  0.7546771E-02  0.1412302E+00
          2   -1    0    0  501    0  0.00000000000E+00  0.00000000000E+00  0.41966489759E+02  0.41966489759E+02  0.00000000000E+00 0. -1.
         -2   -1    0    0    0  501 -0.00000000000E+00 -0.00000000000E+00 -0.79318708931E+02  0.79318708931E+02  0.00000000000E+00 0.  1.
         23    2    1    2    0    0 -0.17239477790E+00  0.13081298595E+02 -0.48260668148E+02  0.10425157453E+03  0.91477585284E+02 0.  0.
         11    1    3    3    0    0 -0.18685895616E+02 -0.32955138907E+02 -0.46079834960E+01  0.38163298957E+02  0.00000000000E+00 0. -1.
        -11    1    3    3    0    0  0.18513500838E+02  0.46036437502E+02 -0.43652684652E+02  0.66088275575E+02  0.00000000000E+00 0.  1.
         22    1    1    2    0    0  0.17239477790E+00 -0.13081298595E+02  0.10908448976E+02  0.17033624158E+02  0.00000000000E+00 0.  1.
<mgrwt>
<rscale>  0 0.56683345E+02</rscale>
<asrwt>0</asrwt>
<pdfrwt beam="1">  1        2 0.64563831E-02 0.92408326E+02</pdfrwt>
<pdfrwt beam="2">  1       -2 0.12202878E-01 0.92408326E+02</pdfrwt>
<totfact> 0.46592295E+04</totfact>
</mgrwt>
</event>
<event>
 6    1  0.1828142E-002  0.9087129E+02  0.7546771E-02  0.1431548E+00
          1   -1    0    0  501    0  0.00000000000E+00  0.00000000000E+00  0.15536377224E+02  0.15536377224E+02  0.00000000000E+00 0. -1.
         -1   -1    0    0    0  501 -0.00000000000E+00 -0.00000000000E+00 -0.17007776686E+03  0.17007776686E+03  0.00000000000E+00 0.  1.
         23    2    1    2    0    0  0.63255297825E+01  0.80536491856E+01 -0.14728893891E+03  0.17306537387E+03  0.90292405645E+02 0.  0.
         11    1    3    3    0    0 -0.12247570480E+02 -0.19817831095E+02 -0.13539606868E+01  0.23336294083E+02  0.00000000000E+00 0. -1.
        -11    1    3    3    0    0  0.18573100263E+02  0.27871480281E+02 -0.14593497822E+03  0.14972907979E+03  0.00000000000E+00 0.  1.
         22    1    1    2    0    0 -0.63255297825E+01 -0.80536491856E+01 -0.72524507267E+01  0.12548770210E+02  0.00000000000E+00 0. -1.
<mgrwt>
<rscale>  0 0.52650597E+02</rscale>
<asrwt>0</asrwt>
<pdfrwt beam="1">  1        1 0.23902120E-02 0.90871294E+02</pdfrwt>
<pdfrwt beam="2">  1       -1 0.26165809E-01 0.90871294E+02</pdfrwt>
<totfact> 0.52080164E+04</totfact>
</mgrwt>
</event>
<event>
 6    1  0.1828142E-002  0.9260740E+02  0.7546771E-02  0.1412165E+00
         -1   -1    0    0    0  501 -0.00000000000E+00  0.00000000000E+00  0.30263812917E+03  0.30263812917E+03  0.00000000000E+00 0.  1.
          1   -1    0    0  501    0  0.00000000000E+00 -0.00000000000E+00 -0.13113767143E+02  0.13113767143E+02  0.00000000000E+00 0. -1.
         23    2    1    2    0    0 -0.29372897386E+01  0.12690386582E+02  0.28813578509E+03  0.30265221202E+03  0.91686734101E+02 0.  0.
         11    1    3    3    0    0  0.92297894428E+01  0.14337364592E+02  0.30741280591E+01  0.17326260414E+02  0.00000000000E+00 0. -1.
        -11    1    3    3    0    0 -0.12167079181E+02 -0.16469780100E+01  0.28506165703E+03  0.28532595160E+03  0.00000000000E+00 0.  1.
         22    1    1    2    0    0  0.29372897386E+01 -0.12690386582E+02  0.13885769379E+01  0.13099684291E+02  0.00000000000E+00 0. -1.
<mgrwt>
<rscale>  0 0.56713448E+02</rscale>
<asrwt>0</asrwt>
<pdfrwt beam="1">  1        1 0.20175029E-02 0.92607401E+02</pdfrwt>
<pdfrwt beam="2">  1       -1 0.46559707E-01 0.92607401E+02</pdfrwt>
<totfact> 0.24738101E+04</totfact>
</mgrwt>
</event>
<event>
 6    1  0.1828142E-002  0.8843267E+02  0.7546771E-02  0.1438484E+00
         -2   -1    0    0    0  501 -0.00000000000E+00  0.00000000000E+00  0.76241586611E+02  0.76241586611E+02  0.00000000000E+00 0.  1.
          2   -1    0    0  501    0  0.00000000000E+00 -0.00000000000E+00 -0.54258746359E+02  0.54258746359E+02  0.00000000000E+00 0. -1.
         23    2    1    2    0    0  0.33097971570E+01  0.94469025522E+01  0.49412552816E+02  0.10130122585E+03  0.87864323012E+02 0.  0.
         11    1    3    3    0    0  0.18870071272E+02 -0.34619959120E+02  0.11352860758E+02  0.41030581359E+02  0.00000000000E+00 0. -1.
        -11    1    3    3    0    0 -0.15560274115E+02  0.44066861672E+02  0.38059692059E+02  0.60270644494E+02  0.00000000000E+00 0.  1.
         22    1    1    2    0    0 -0.33097971570E+01 -0.94469025522E+01 -0.27429712564E+02  0.29199107117E+02  0.00000000000E+00 0. -1.
<mgrwt>
<rscale>  0 0.51294092E+02</rscale>
<asrwt>0</asrwt>
<pdfrwt beam="1">  1        2 0.83474995E-02 0.88432675E+02</pdfrwt>
<pdfrwt beam="2">  1       -2 0.11729475E-01 0.88432675E+02</pdfrwt>
<totfact> 0.35761904E+04</totfact>
</mgrwt>
</event>
<event>
 6    1  0.1828142E-002  0.9296961E+02  0.7546771E-02  0.1384400E+00
          2   -1    0    0  501    0  0.00000000000E+00  0.00000000000E+00  0.16542961888E+02  0.16542961888E+02  0.00000000000E+00 0. -1.
         -2   -1    0    0    0  501 -0.00000000000E+00 -0.00000000000E+00 -0.49104308839E+03  0.49104308839E+03  0.00000000000E+00 0.  1.
         23    2    1    2    0    0 -0.12862038369E+02  0.15324474611E+02 -0.47827420865E+03  0.48722640271E+03  0.90791394296E+02 0.  0.
         13    1    3    3    0    0  0.14320195676E+02 -0.23016473487E+02 -0.54656700884E+02  0.61009679621E+02  0.00000000000E+00 0. -1.
        -13    1    3    3    0    0 -0.27182234045E+02  0.38340948098E+02 -0.42361750777E+03  0.42621672309E+03  0.00000000000E+00 0.  1.
         22    1    1    2    0    0  0.12862038369E+02 -0.15324474611E+02  0.37740821522E+01  0.20359647571E+02  0.00000000000E+00 0. -1.
<mgrwt>
<rscale>  0 0.63321341E+02</rscale>
<asrwt>0</asrwt>
<pdfrwt beam="1">  1        2 0.25450711E-02 0.92969612E+02</pdfrwt>
<pdfrwt beam="2">  1       -2 0.75545090E-01 0.92969612E+02</pdfrwt>
<totfact> 0.57694896E+03</totfact>
</mgrwt>
</event>
<event>
 6    1  0.1828142E-002  0.1024556E+03  0.7546771E-02  0.1318820E+00
         -1   -1    0    0    0  501 -0.00000000000E+00  0.00000000000E+00  0.47067530215E+03  0.47067530215E+03  0.00000000000E+00 0.  1.
          1   -1    0    0  501    0  0.00000000000E+00 -0.00000000000E+00 -0.13920585417E+02  0.13920585417E+02  0.00000000000E+00 0. -1.
         23    2    1    2    0    0 -0.39091834963E+02 -0.23619469262E+02  0.39321755994E+03  0.40634615158E+03  0.91712019754E+02 0.  0.
         11    1    3    3    0    0 -0.64359599840E+02 -0.31537538409E+02  0.22738658381E+03  0.23841441424E+03  0.00000000000E+00 0.  1.
        -11    1    3    3    0    0  0.25267764877E+02  0.79180691470E+01  0.16583097613E+03  0.16793173734E+03  0.00000000000E+00 0. -1.
         22    1    1    2    0    0  0.39091834963E+02  0.23619469262E+02  0.63537156793E+02  0.78249735989E+02  0.00000000000E+00 0. -1.
<mgrwt>
<rscale>  0 0.83717706E+02</rscale>
<asrwt>0</asrwt>
<pdfrwt beam="1">  1        1 0.21416289E-02 0.10245558E+03</pdfrwt>
<pdfrwt beam="2">  1       -1 0.72411573E-01 0.10245558E+03</pdfrwt>
<totfact> 0.10079478E+04</totfact>
</mgrwt>
</event>
<event>
 6    1  0.1828142E-002  0.1011541E+03  0.7546771E-02  0.1325891E+00
          2   -1    0    0  501    0  0.00000000000E+00  0.00000000000E+00  0.27142485991E+03  0.27142485991E+03  0.00000000000E+00 0. -1.
         -2   -1    0    0    0  501 -0.00000000000E+00 -0.00000000000E+00 -0.28900095766E+02  0.28900095766E+02  0.00000000000E+00 0.  1.
         23    2    1    2    0    0  0.26203259162E+02 -0.32626310745E+02  0.70535810727E+02  0.12331849523E+03  0.92092690950E+02 0.  0.
         13    1    3    3    0    0 -0.14656379082E+02  0.43619801877E+01  0.66300578403E+02  0.68041186171E+02  0.00000000000E+00 0. -1.
        -13    1    3    3    0    0  0.40859638244E+02 -0.36988290933E+02  0.42352323239E+01  0.55277309055E+02  0.00000000000E+00 0.  1.
         22    1    1    2    0    0 -0.26203259162E+02  0.32626310745E+02  0.17198895342E+03  0.17700646045E+03  0.00000000000E+00 0. -1.
<mgrwt>
<rscale>  0 0.81124318E+02</rscale>
<asrwt>0</asrwt>
<pdfrwt beam="1">  1        2 0.41757669E-01 0.10115409E+03</pdfrwt>
<pdfrwt beam="2">  1       -2 0.44461688E-02 0.10115409E+03</pdfrwt>
<totfact> 0.25718004E+04</totfact>
</mgrwt>
</event>
<event>
 6    1  0.1828142E-002  0.8161996E+02  0.7546771E-02  0.1424922E+00
         -2   -1    0    0    0  501 -0.00000000000E+00  0.00000000000E+00  0.12007926835E+03  0.12007926835E+03  0.00000000000E+00 0. -1.
          2   -1    0    0  501    0  0.00000000000E+00 -0.00000000000E+00 -0.21442970105E+02  0.21442970105E+02  0.00000000000E+00 0.  1.
         23    2    1    2    0    0 -0.58495720632E+00  0.15619095659E+02  0.95417860093E+02  0.12556427278E+03  0.80109426728E+02 0.  0.
         13    1    3    3    0    0  0.30924250042E+02  0.76244323120E+01  0.86017359490E+02  0.91724736808E+02  0.00000000000E+00 0. -1.
        -13    1    3    3    0    0 -0.31509207249E+02  0.79946633471E+01  0.94005006031E+01  0.33839535976E+02  0.00000000000E+00 0.  1.
         22    1    1    2    0    0  0.58495720632E+00 -0.15619095659E+02  0.32184381482E+01  0.15957965668E+02  0.00000000000E+00 0.  1.
<mgrwt>
<rscale>  0 0.53992988E+02</rscale>
<asrwt>0</asrwt>
<pdfrwt beam="1">  1        2 0.32989186E-02 0.81619964E+02</pdfrwt>
<pdfrwt beam="2">  1       -2 0.18473733E-01 0.81619964E+02</pdfrwt>
<totfact> 0.55760515E+04</totfact>
</mgrwt>
</event>
<event>
 6    1  0.1828142E-002  0.9459577E+02  0.7546771E-02  0.1408484E+00
          2   -1    0    0  501    0  0.00000000000E+00  0.00000000000E+00  0.36915963188E+02  0.36915963188E+02  0.00000000000E+00 0.  1.
         -2   -1    0    0    0  501 -0.00000000000E+00 -0.00000000000E+00 -0.78322348800E+02  0.78322348800E+02  0.00000000000E+00 0. -1.
         23    2    1    2    0    0 -0.25116992934E+01 -0.12697997948E+02 -0.36685371405E+02  0.10146022212E+03  0.93705989204E+02 0.  0.
         13    1    3    3    0    0  0.28099060606E+02 -0.27724014830E+02  0.12681808842E+02  0.41460903038E+02  0.00000000000E+00 0. -1.
        -13    1    3    3    0    0 -0.30610759900E+02  0.15026016882E+02 -0.49367180247E+02  0.59999319084E+02  0.00000000000E+00 0.  1.
         22    1    1    2    0    0  0.25116992934E+01  0.12697997948E+02 -0.47210142065E+01  0.13778089866E+02  0.00000000000E+00 0.  1.
<mgrwt>
<rscale>  0 0.57533545E+02</rscale>
<asrwt>0</asrwt>
<pdfrwt beam="1">  1        2 0.56793790E-02 0.94595773E+02</pdfrwt>
<pdfrwt beam="2">  1       -2 0.12049592E-01 0.94595773E+02</pdfrwt>
<totfact> 0.56140121E+04</totfact>
</mgrwt>
</event>
<event>
 6    1  0.1828142E-002  0.9192099E+02  0.7546771E-02  0.1423070E+00
          2   -1    0    0  501    0  0.00000000000E+00  0.00000000000E+00  0.17760928231E+02  0.17760928231E+02  0.00000000000E+00 0. -1.
         -2   -1    0    0    0  501 -0.00000000000E+00 -0.00000000000E+00 -0.19991883999E+03  0.19991883999E+03  0.00000000000E+00 0.  1.
         23    2    1    2    0    0 -0.10365288787E+02 -0.43900243639E+01 -0.18454699984E+03  0.20617241112E+03  0.91229142461E+02 0.  0.
         11    1    3    3    0    0 -0.50642776576E+02  0.35166706427E+01 -0.97003238727E+02  0.10948372534E+03  0.00000000000E+00 0. -1.
        -11    1    3    3    0    0  0.40277487788E+02 -0.79066950066E+01 -0.87543761111E+02  0.96688685780E+02  0.00000000000E+00 0.  1.
         22    1    1    2    0    0  0.10365288787E+02  0.43900243639E+01  0.23890880769E+01  0.11507357099E+02  0.00000000000E+00 0. -1.
<mgrwt>
<rscale>  0 0.54376722E+02</rscale>
<asrwt>0</asrwt>
<pdfrwt beam="1">  1        2 0.27324504E-02 0.91920988E+02</pdfrwt>
<pdfrwt beam="2">  1       -2 0.30756745E-01 0.91920988E+02</pdfrwt>
<totfact> 0.30342162E+04</totfact>
</mgrwt>
</event>
<event>
 6    1  0.1828142E-002  0.9675336E+02  0.7546771E-02  0.1358823E+00
         -2   -1    0    0    0  501 -0.00000000000E+00  0.00000000000E+00  0.11641475778E+02  0.11641475778E+02  0.00000000000E+00 0.  1.
          2   -1    0    0  501    0  0.00000000000E+00 -0.00000000000E+00 -0.34648156220E+03  0.34648156220E+03  0.00000000000E+00 0. -1.
         23    2    1    2    0    0  0.16893268633E+02 -0.21166390824E+02 -0.22362591559E+03  0.24365911170E+03  0.92886026744E+02 0.  0.
         13    1    3    3    0    0  0.85095090770E+01  0.36850619089E+02 -0.78285834054E+02  0.86942806980E+02  0.00000000000E+00 0. -1.
        -13    1    3    3    0    0  0.83837595561E+01 -0.58017009914E+02 -0.14534008154E+03  0.15671630472E+03  0.00000000000E+00 0.  1.
         22    1    1    2    0    0 -0.16893268633E+02  0.21166390824E+02 -0.11121417083E+03  0.11446392627E+03  0.00000000000E+00 0.  1.
<mgrwt>
<rscale>  0 0.70374780E+02</rscale>
<asrwt>0</asrwt>
<pdfrwt beam="1">  1        2 0.53304844E-01 0.96753360E+02</pdfrwt>
<pdfrwt beam="2">  1       -2 0.17909967E-02 0.96753360E+02</pdfrwt>
<totfact> 0.74389861E+04</totfact>
</mgrwt>
</event>
<event>
 6    1  0.1828142E-002  0.8944051E+02  0.7546771E-02  0.1363790E+00
          1   -1    0    0  501    0  0.00000000000E+00  0.00000000000E+00  0.19890027446E+03  0.19890027446E+03  0.00000000000E+00 0. -1.
         -1   -1    0    0    0  501 -0.00000000000E+00 -0.00000000000E+00 -0.22383042603E+02  0.22383042603E+02  0.00000000000E+00 0.  1.
         23    2    1    2    0    0 -0.24879327549E+02  0.19387673424E+02  0.80907710774E+02  0.12060539822E+03  0.83694334325E+02 0.  0.
         11    1    3    3    0    0 -0.31678096773E+02  0.40498549406E+02  0.83721171004E+02  0.98249014211E+02  0.00000000000E+00 0. -1.
        -11    1    3    3    0    0  0.67987692243E+01 -0.21110875982E+02 -0.28134602304E+01  0.22356384013E+02  0.00000000000E+00 0.  1.
         22    1    1    2    0    0  0.24879327549E+02 -0.19387673424E+02  0.95609521079E+02  0.10067791884E+03  0.00000000000E+00 0. -1.
<mgrwt>
<rscale>  0 0.68924098E+02</rscale>
<asrwt>0</asrwt>
<pdfrwt beam="1">  1        1 0.30600041E-01 0.89440508E+02</pdfrwt>
<pdfrwt beam="2">  1       -1 0.34435451E-02 0.89440508E+02</pdfrwt>
<totfact> 0.39618055E+04</totfact>
</mgrwt>
</event>
<event>
 6    1  0.1828142E-002  0.9187923E+02  0.7546771E-02  0.1389972E+00
         -2   -1    0    0    0  501 -0.00000000000E+00  0.00000000000E+00  0.15473261227E+03  0.15473261227E+03  0.00000000000E+00 0.  1.
          2   -1    0    0  501    0  0.00000000000E+00 -0.00000000000E+00 -0.36312002638E+02  0.36312002638E+02  0.00000000000E+00 0. -1.
         23    2    1    2    0    0 -0.65271472314E+01  0.17784981114E+02  0.13670721064E+03  0.16471385380E+03  0.89904855195E+02 0.  0.
         11    1    3    3    0    0 -0.17873122802E+02  0.50621187256E+02  0.60026968765E+02  0.80530677987E+02  0.00000000000E+00 0. -1.
        -11    1    3    3    0    0  0.11345975571E+02 -0.32836206142E+02  0.76680241878E+02  0.84183175813E+02  0.00000000000E+00 0.  1.
         22    1    1    2    0    0  0.65271472314E+01 -0.17784981114E+02 -0.18286601009E+02  0.26330761110E+02  0.00000000000E+00 0.  1.
<mgrwt>
<rscale>  0 0.61913602E+02</rscale>
<asrwt>0</asrwt>
<pdfrwt beam="1">  1        2 0.55864620E-02 0.91879226E+02</pdfrwt>
<pdfrwt beam="2">  1       -2 0.23805017E-01 0.91879226E+02</pdfrwt>
<totfact> 0.18640790E+04</totfact>
</mgrwt>
</event>
<event>
 6    1  0.1828142E-002  0.9384552E+02  0.7546771E-02  0.1388353E+00
         -2   -1    0    0    0  501 -0.00000000000E+00  0.00000000000E+00  0.13519968536E+02  0.13519968536E+02  0.00000000000E+00 0.  1.
          2   -1    0    0  501    0  0.00000000000E+00 -0.00000000000E+00 -0.27399133991E+03  0.27399133991E+03  0.00000000000E+00 0. -1.
         23    2    1    2    0    0 -0.18001094939E+02  0.29922945084E+01 -0.16078700350E+03  0.18617046553E+03  0.92054269287E+02 0.  0.
         13    1    3    3    0    0  0.76844177652E+01 -0.16087023120E+02  0.40287263916E+01  0.18277670136E+02  0.00000000000E+00 0.  1.
        -13    1    3    3    0    0 -0.25685512704E+02  0.19079317628E+02 -0.16481572989E+03  0.16789279539E+03  0.00000000000E+00 0. -1.
         22    1    1    2    0    0  0.18001094939E+02 -0.29922945084E+01 -0.99684367871E+02  0.10134084292E+03  0.00000000000E+00 0.  1.
<mgrwt>
<rscale>  0 0.62318155E+02</rscale>
<asrwt>0</asrwt>
<pdfrwt beam="1">  1        2 0.42152513E-01 0.93845521E+02</pdfrwt>
<pdfrwt beam="2">  1       -2 0.20799952E-02 0.93845521E+02</pdfrwt>
<totfact> 0.76395041E+04</totfact>
</mgrwt>
</event>
<event>
 6    1  0.1828142E-002  0.9315966E+02  0.7546771E-02  0.1388391E+00
          2   -1    0    0  501    0  0.00000000000E+00  0.00000000000E+00  0.25675476561E+03  0.25675476561E+03  0.00000000000E+00 0.  1.
         -2   -1    0    0    0  501 -0.00000000000E+00 -0.00000000000E+00 -0.12183241639E+02  0.12183241639E+02  0.00000000000E+00 0. -1.
         23    2    1    2    0    0 -0.12590517215E+02 -0.13748961263E+02  0.20052204624E+03  0.22110588887E+03  0.91275232171E+02 0.  0.
         13    1    3    3    0    0  0.35588763555E+02 -0.13289340430E+02  0.13187517813E+03  0.13723785654E+03  0.00000000000E+00 0.  1.
        -13    1    3    3    0    0 -0.48179280770E+02 -0.45962083309E+00  0.68646868106E+02  0.83868032334E+02  0.00000000000E+00 0. -1.
         22    1    1    2    0    0  0.12590517215E+02  0.13748961263E+02  0.44049477730E+02  0.47832118370E+02  0.00000000000E+00 0.  1.
<mgrwt>
<rscale>  0 0.62308728E+02</rscale>
<asrwt>0</asrwt>
<pdfrwt beam="1">  1        2 0.39500729E-01 0.93159664E+02</pdfrwt>
<pdfrwt beam="2">  1       -2 0.18743451E-02 0.93159664E+02</pdfrwt>
<totfact> 0.94876032E+04</totfact>
</mgrwt>
</event>
<event>
 6    1  0.1828142E-002  0.9188023E+02  0.7546771E-02  0.1413847E+00
         -2   -1    0    0    0  501 -0.00000000000E+00  0.00000000000E+00  0.41931399063E+01  0.41931399063E+01  0.00000000000E+00 0.  1.
          2   -1    0    0  501    0  0.00000000000E+00 -0.00000000000E+00 -0.65586372249E+03  0.65586372249E+03  0.00000000000E+00 0. -1.
         23    2    1    2    0    0 -0.77736572453E+01 -0.10411709584E+02 -0.57381453149E+03  0.58112399133E+03  0.90956821089E+02 0.  0.
         11    1    3    3    0    0 -0.35926552419E+02 -0.57438725748E+01 -0.50907989315E+03  0.51037833697E+03  0.00000000000E+00 0. -1.
        -11    1    3    3    0    0  0.28152895173E+02 -0.46678370096E+01 -0.64734638339E+02  0.70745654353E+02  0.00000000000E+00 0.  1.
         22    1    1    2    0    0  0.77736572453E+01  0.10411709584E+02 -0.77856051088E+02  0.78932871064E+02  0.00000000000E+00 0. -1.
<mgrwt>
<rscale>  0 0.56344155E+02</rscale>
<asrwt>0</asrwt>
<pdfrwt beam="1">  1        2 0.10090209E+00 0.91880230E+02</pdfrwt>
<pdfrwt beam="2">  1       -2 0.64509858E-03 0.91880230E+02</pdfrwt>
<totfact> 0.15771442E+05</totfact>
</mgrwt>
</event>
<event>
 6    1  0.1828142E-002  0.7794437E+02  0.7546771E-02  0.1442657E+00
          2   -1    0    0  501    0  0.00000000000E+00  0.00000000000E+00  0.19902949954E+03  0.19902949954E+03  0.00000000000E+00 0. -1.
         -2   -1    0    0    0  501 -0.00000000000E+00 -0.00000000000E+00 -0.10575334907E+02  0.10575334907E+02  0.00000000000E+00 0.  1.
         23    2    1    2    0    0 -0.59263884241E+01  0.12391431116E+02  0.15705949961E+03  0.17533685177E+03  0.76724543179E+02 0.  0.
         13    1    3    3    0    0 -0.11211306584E+02  0.32092243798E+02  0.14992050530E+03  0.15372626131E+03  0.00000000000E+00 0. -1.
        -13    1    3    3    0    0  0.52849181604E+01 -0.19700812682E+02  0.71389943132E+01  0.21610590462E+02  0.00000000000E+00 0.  1.
         22    1    1    2    0    0  0.59263884241E+01 -0.12391431116E+02  0.31394665019E+02  0.34267982674E+02  0.00000000000E+00 0.  1.
<mgrwt>
<rscale>  0 0.50501157E+02</rscale>
<asrwt>0</asrwt>
<pdfrwt beam="1">  1        2 0.30619920E-01 0.77944372E+02</pdfrwt>
<pdfrwt beam="2">  1       -2 0.16269747E-02 0.77944372E+02</pdfrwt>
<totfact> 0.14768662E+05</totfact>
</mgrwt>
</event>
<event>
 6    1  0.1828142E-002  0.9959090E+02  0.7546771E-02  0.1345700E+00
          4   -1    0    0  501    0  0.00000000000E+00  0.00000000000E+00  0.24033204997E+02  0.24033204997E+02  0.00000000000E+00 0. -1.
         -4   -1    0    0    0  501 -0.00000000000E+00 -0.00000000000E+00 -0.31927521512E+03  0.31927521512E+03  0.00000000000E+00 0.  1.
         23    2    1    2    0    0 -0.64558009850E+01 -0.30361310013E+02 -0.29595284721E+03  0.31226020276E+03  0.94630121753E+02 0.  0.
         13    1    3    3    0    0 -0.21237552590E+02  0.68535420795E+01 -0.25127459628E+03  0.25226360700E+03  0.00000000000E+00 0.  1.
        -13    1    3    3    0    0  0.14781751605E+02 -0.37214852092E+02 -0.44678250926E+02  0.59996595758E+02  0.00000000000E+00 0. -1.
         22    1    1    2    0    0  0.64558009850E+01  0.30361310013E+02  0.71083708293E+00  0.31048217363E+02  0.00000000000E+00 0. -1.
<mgrwt>
<rscale>  0 0.74412421E+02</rscale>
<asrwt>0</asrwt>
<pdfrwt beam="1">  1        4 0.36974163E-02 0.99590895E+02</pdfrwt>
<pdfrwt beam="2">  1       -4 0.49119262E-01 0.99590895E+02</pdfrwt>
<totfact> 0.23752044E+03</totfact>
</mgrwt>
</event>
<event>
 6    1  0.1828142E-002  0.9408625E+02  0.7546771E-02  0.1373144E+00
         -2   -1    0    0    0  501 -0.00000000000E+00  0.00000000000E+00  0.22740327260E+02  0.22740327260E+02  0.00000000000E+00 0.  1.
          2   -1    0    0  501    0  0.00000000000E+00 -0.00000000000E+00 -0.15253423304E+03  0.15253423304E+03  0.00000000000E+00 0. -1.
         23    2    1    2    0    0 -0.21389385733E+02 -0.89861453264E+01 -0.97314229154E+02  0.13535982588E+03  0.91180955453E+02 0.  0.
         11    1    3    3    0    0 -0.26912530808E+02 -0.15870495931E+02 -0.11306627759E+03  0.11730362349E+03  0.00000000000E+00 0.  1.
        -11    1    3    3    0    0  0.55231450757E+01  0.68843506046E+01  0.15752048439E+02  0.18056202391E+02  0.00000000000E+00 0. -1.
         22    1    1    2    0    0  0.21389385733E+02  0.89861453264E+01 -0.32479676627E+02  0.39914734418E+02  0.00000000000E+00 0. -1.
<mgrwt>
<rscale>  0 0.66300730E+02</rscale>
<asrwt>0</asrwt>
<pdfrwt beam="1">  1        2 0.23466805E-01 0.94086254E+02</pdfrwt>
<pdfrwt beam="2">  1       -2 0.34985119E-02 0.94086254E+02</pdfrwt>
<totfact> 0.67215478E+04</totfact>
</mgrwt>
</event>
<event>
 6    1  0.1828142E-002  0.1400706E+03  0.7546771E-02  0.1226717E+00
          1   -1    0    0  501    0  0.00000000000E+00  0.00000000000E+00  0.53787888679E+03  0.53787888679E+03  0.00000000000E+00 0. -1.
         -1   -1    0    0    0  501 -0.00000000000E+00 -0.00000000000E+00 -0.35366257871E+02  0.35366257871E+02  0.00000000000E+00 0.  1.
         23    2    1    2    0    0 -0.10425824802E+03 -0.16360587084E+02  0.14981001068E+03  0.20509220361E+03  0.92099520052E+02 0.  0.
         11    1    3    3    0    0 -0.38832791478E+02 -0.21530607898E+02  0.12871106662E+03  0.13615466000E+03  0.00000000000E+00 0. -1.
        -11    1    3    3    0    0 -0.65425456539E+02  0.51700208149E+01  0.21098944061E+02  0.68937543610E+02  0.00000000000E+00 0.  1.
         22    1    1    2    0    0  0.10425824802E+03  0.16360587084E+02  0.35270261824E+03  0.36815294104E+03  0.00000000000E+00 0.  1.
<mgrwt>
<rscale>  0 0.13049939E+03</rscale>
<asrwt>0</asrwt>
<pdfrwt beam="1">  1        1 0.82750592E-01 0.14007060E+03</pdfrwt>
<pdfrwt beam="2">  1       -1 0.54409631E-02 0.14007060E+03</pdfrwt>
<totfact> 0.61064176E+03</totfact>
</mgrwt>
</event>
<event>
 6    1  0.1828142E-002  0.9320367E+02  0.7546771E-02  0.1418443E+00
          2   -1    0    0  501    0  0.00000000000E+00  0.00000000000E+00  0.73598689935E+02  0.73598689935E+02  0.00000000000E+00 0. -1.
         -2   -1    0    0    0  501 -0.00000000000E+00 -0.00000000000E+00 -0.49274194499E+02  0.49274194499E+02  0.00000000000E+00 0.  1.
         23    2    1    2    0    0  0.11530986297E+02  0.12046843670E+01 -0.29355007715E+01  0.93249881504E+02  0.92479772525E+02 0.  0.
         11    1    3    3    0    0 -0.17193332956E+02  0.30951336340E+02  0.25003327642E+02  0.43344691861E+02  0.00000000000E+00 0. -1.
        -11    1    3    3    0    0  0.28724319252E+02 -0.29746651973E+02 -0.27938828414E+02  0.49905189643E+02  0.00000000000E+00 0.  1.
         22    1    1    2    0    0 -0.11530986297E+02 -0.12046843670E+01  0.27259996207E+02  0.29623002930E+02  0.00000000000E+00 0. -1.
<mgrwt>
<rscale>  0 0.55351663E+02</rscale>
<asrwt>0</asrwt>
<pdfrwt beam="1">  1        2 0.11322875E-01 0.93203665E+02</pdfrwt>
<pdfrwt beam="2">  1       -2 0.75806453E-02 0.93203665E+02</pdfrwt>
<totfact> 0.48878241E+04</totfact>
</mgrwt>
</event>
<event>
 6    1  0.1828142E-002  0.9257139E+02  0.7546771E-02  0.1368786E+00
          1   -1    0    0  501    0  0.00000000000E+00  0.00000000000E+00  0.53282834838E+02  0.53282834838E+02  0.00000000000E+00 0. -1.
         -1   -1    0    0    0  501 -0.00000000000E+00 -0.00000000000E+00 -0.66864876470E+02  0.66864876470E+02  0.00000000000E+00 0.  1.
         23    2    1    2    0    0  0.22965756654E+02 -0.12564386517E+02 -0.54332341899E+01  0.92730693783E+02  0.88792858657E+02 0.  0.
         11    1    3    3    0    0  0.32120358520E+02 -0.23450053106E+02  0.33045617239E+02  0.51707206856E+02  0.00000000000E+00 0. -1.
        -11    1    3    3    0    0 -0.91546018660E+01  0.10885666590E+02 -0.38478851429E+02  0.41023486928E+02  0.00000000000E+00 0.  1.
         22    1    1    2    0    0 -0.22965756654E+02  0.12564386517E+02 -0.81488074427E+01  0.27417017525E+02  0.00000000000E+00 0.  1.
<mgrwt>
<rscale>  0 0.67505920E+02</rscale>
<asrwt>0</asrwt>
<pdfrwt beam="1">  1        1 0.81973593E-02 0.92571386E+02</pdfrwt>
<pdfrwt beam="2">  1       -1 0.10286904E-01 0.92571386E+02</pdfrwt>
<totfact> 0.42449769E+04</totfact>
</mgrwt>
</event>
<event>
 6    1  0.1828142E-002  0.9330934E+02  0.7546771E-02  0.1413087E+00
         -2   -1    0    0    0  501 -0.00000000000E+00  0.00000000000E+00  0.22478816005E+02  0.22478816005E+02  0.00000000000E+00 0.  1.
          2   -1    0    0  501    0  0.00000000000E+00 -0.00000000000E+00 -0.13660584518E+03  0.13660584518E+03  0.00000000000E+00 0. -1.
         23    2    1    2    0    0 -0.14313276240E+01  0.12471104920E+02 -0.80655689019E+02  0.12333682533E+03  0.92461100760E+02 0.  0.
         11    1    3    3    0    0  0.44831265035E+02 -0.18118109473E+01 -0.37389809723E+02  0.58404818762E+02  0.00000000000E+00 0.  1.
        -11    1    3    3    0    0 -0.46262592659E+02  0.14282915867E+02 -0.43265879296E+02  0.64932006564E+02  0.00000000000E+00 0. -1.
         22    1    1    2    0    0  0.14313276240E+01 -0.12471104920E+02 -0.33471340153E+02  0.35747835856E+02  0.00000000000E+00 0.  1.
<mgrwt>
<rscale>  0 0.56510674E+02</rscale>
<asrwt>0</asrwt>
<pdfrwt beam="1">  1        2 0.21016283E-01 0.93309337E+02</pdfrwt>
<pdfrwt beam="2">  1       -2 0.34582795E-02 0.93309337E+02</pdfrwt>
<totfact> 0.77127288E+04</totfact>
</mgrwt>
</event>
<event>
 6    1  0.1828142E-002  0.9358593E+02  0.7546771E-02  0.1399767E+00
         -1   -1    0    0    0  501 -0.00000000000E+00  0.00000000000E+00  0.22359700604E+03  0.22359700604E+03  0.00000000000E+00 0.  1.
          1   -1    0    0  501    0  0.00000000000E+00 -0.00000000000E+00 -0.32184721373E+02  0.32184721373E+02  0.00000000000E+00 0. -1.
         23    2    1    2    0    0  0.14778978130E+02  0.40860950976E+01  0.21104878551E+03  0.23086774473E+03  0.92321239836E+02 0.  0.
         13    1    3    3    0    0 -0.59429090792E+01 -0.26732199080E+02  0.18110150114E+03  0.18316026411E+03  0.00000000000E+00 0.  1.
        -13    1    3    3    0    0  0.20721887209E+02  0.30818294178E+02  0.29947284368E+02  0.47707480614E+02  0.00000000000E+00 0. -1.
         22    1    1    2    0    0 -0.14778978130E+02 -0.40860950976E+01 -0.19636500843E+02  0.24913982681E+02  0.00000000000E+00 0. -1.
<mgrwt>
<rscale>  0 0.59541230E+02</rscale>
<asrwt>0</asrwt>
<pdfrwt beam="1">  1        1 0.49514957E-02 0.93585927E+02</pdfrwt>
<pdfrwt beam="2">  1       -1 0.34399538E-01 0.93585927E+02</pdfrwt>
<totfact> 0.12272409E+04</totfact>
</mgrwt>
</event>
<event>
 6    1  0.1828142E-002  0.9274164E+02  0.7546771E-02  0.1404551E+00
         -2   -1    0    0    0  501 -0.00000000000E+00  0.00000000000E+00  0.15189839171E+03  0.15189839171E+03  0.00000000000E+00 0.  1.
          2   -1    0    0  501    0  0.00000000000E+00 -0.00000000000E+00 -0.39158642448E+02  0.39158642448E+02  0.00000000000E+00 0. -1.
         23    2    1    2    0    0  0.31046061398E+01 -0.14276321785E+02  0.13538732648E+03  0.16410588025E+03  0.91583621999E+02 0.  0.
         11    1    3    3    0    0 -0.96068781436E+01 -0.32289567636E+02  0.77366875266E+01  0.34565367344E+02  0.00000000000E+00 0. -1.
        -11    1    3    3    0    0  0.12711484283E+02  0.18013245851E+02  0.12765063895E+03  0.12954051291E+03  0.00000000000E+00 0.  1.
         22    1    1    2    0    0 -0.31046061398E+01  0.14276321785E+02 -0.22647577219E+02  0.26951153907E+02  0.00000000000E+00 0. -1.
<mgrwt>
<rscale>  0 0.58427673E+02</rscale>
<asrwt>0</asrwt>
<pdfrwt beam="1">  1        2 0.60244066E-02 0.92741640E+02</pdfrwt>
<pdfrwt beam="2">  1       -2 0.23368983E-01 0.92741640E+02</pdfrwt>
<totfact> 0.17493752E+04</totfact>
</mgrwt>
</event>
<event>
 6    1  0.1828142E-002  0.9313668E+02  0.7546771E-02  0.1376160E+00
          4   -1    0    0  501    0  0.00000000000E+00  0.00000000000E+00  0.61734972260E+02  0.61734972260E+02  0.00000000000E+00 0. -1.
         -4   -1    0    0    0  501 -0.00000000000E+00 -0.00000000000E+00 -0.96252759724E+02  0.96252759724E+02  0.00000000000E+00 0.  1.
         23    2    1    2    0    0 -0.22733831688E+02  0.10966385964E+01 -0.69530179626E+02  0.11622773528E+03  0.90312849867E+02 0.  0.
         13    1    3    3    0    0 -0.87146575498E+01 -0.44389072257E+02 -0.29203604133E+02  0.53844084972E+02  0.00000000000E+00 0. -1.
        -13    1    3    3    0    0 -0.14019174138E+02  0.45485710854E+02 -0.40326575493E+02  0.62383650313E+02  0.00000000000E+00 0.  1.
         22    1    1    2    0    0  0.22733831688E+02 -0.10966385964E+01  0.35012392163E+02  0.41759996700E+02  0.00000000000E+00 0. -1.
<mgrwt>
<rscale>  0 0.65483953E+02</rscale>
<asrwt>0</asrwt>
<pdfrwt beam="1">  1        4 0.94976880E-02 0.93136677E+02</pdfrwt>
<pdfrwt beam="2">  1       -4 0.14808117E-01 0.93136677E+02</pdfrwt>
<totfact> 0.47223241E+03</totfact>
</mgrwt>
</event>
<event>
 6    1  0.1828142E-002  0.9552294E+02  0.7546771E-02  0.1391917E+00
         -3   -1    0    0    0  501 -0.00000000000E+00  0.00000000000E+00  0.13707671808E+02  0.13707671808E+02  0.00000000000E+00 0.  1.
          3   -1    0    0  501    0  0.00000000000E+00 -0.00000000000E+00 -0.23719755801E+03  0.23719755801E+03  0.00000000000E+00 0. -1.
         23    2    1    2    0    0 -0.12467357671E+01  0.16292957693E+02 -0.17028493868E+03  0.19524751462E+03  0.94114912755E+02 0.  0.
         13    1    3    3    0    0  0.41221498156E+02  0.22009483283E+02 -0.54517071357E+02  0.71803484135E+02  0.00000000000E+00 0.  1.
        -13    1    3    3    0    0 -0.42468233923E+02 -0.57165255894E+01 -0.11576786732E+03  0.12344403048E+03  0.00000000000E+00 0. -1.
         22    1    1    2    0    0  0.12467357671E+01 -0.16292957693E+02 -0.53204947519E+02  0.55657715197E+02  0.00000000000E+00 0. -1.
<mgrwt>
<rscale>  0 0.61432427E+02</rscale>
<asrwt>0</asrwt>
<pdfrwt beam="1">  1        3 0.36491934E-01 0.95522938E+02</pdfrwt>
<pdfrwt beam="2">  1       -3 0.21088725E-02 0.95522938E+02</pdfrwt>
<totfact> 0.13574969E+04</totfact>
</mgrwt>
</event>
<event>
 6    1  0.1828142E-002  0.9408484E+02  0.7546771E-02  0.1393670E+00
         -4   -1    0    0    0  501 -0.00000000000E+00  0.00000000000E+00  0.44284840800E+02  0.44284840800E+02  0.00000000000E+00 0.  1.
          4   -1    0    0  501    0  0.00000000000E+00 -0.00000000000E+00 -0.69260646522E+02  0.69260646522E+02  0.00000000000E+00 0. -1.
         23    2    1    2    0    0 -0.36028718537E+01  0.16233183643E+02 -0.19978929382E+02  0.96182719399E+02  0.92603784777E+02 0.  0.
         11    1    3    3    0    0 -0.23403268330E+02  0.76134806310E+01 -0.52017503547E+02  0.57545623040E+02  0.00000000000E+00 0. -1.
        -11    1    3    3    0    0  0.19800396476E+02  0.86197030117E+01  0.32038574164E+02  0.38637096359E+02  0.00000000000E+00 0.  1.
         22    1    1    2    0    0  0.36028718537E+01 -0.16233183643E+02 -0.49968763402E+01  0.17362767922E+02  0.00000000000E+00 0. -1.
<mgrwt>
<rscale>  0 0.61002979E+02</rscale>
<asrwt>0</asrwt>
<pdfrwt beam="1">  1        4 0.10655484E-01 0.94084844E+02</pdfrwt>
<pdfrwt beam="2">  1       -4 0.68130525E-02 0.94084844E+02</pdfrwt>
<totfact> 0.14327075E+04</totfact>
</mgrwt>
</event>
<event>
 6    1  0.1828142E-002  0.9069526E+02  0.7546771E-02  0.1427513E+00
         -2   -1    0    0    0  501 -0.00000000000E+00  0.00000000000E+00  0.48018647217E+03  0.48018647217E+03  0.00000000000E+00 0.  1.
          2   -1    0    0  501    0  0.00000000000E+00 -0.00000000000E+00 -0.53943524053E+01  0.53943524053E+01  0.00000000000E+00 0. -1.
         23    2    1    2    0    0 -0.10764273901E+02  0.20118579269E+01  0.41509268666E+03  0.42488535952E+03  0.90031733589E+02 0.  0.
         13    1    3    3    0    0  0.30091768188E+02  0.20994761913E+02  0.28194879653E+03  0.28432625346E+03  0.00000000000E+00 0.  1.
        -13    1    3    3    0    0 -0.40856042089E+02 -0.18982903986E+02  0.13314389013E+03  0.14055910606E+03  0.00000000000E+00 0. -1.
         22    1    1    2    0    0  0.10764273901E+02 -0.20118579269E+01  0.59699433105E+02  0.60695465053E+02  0.00000000000E+00 0.  1.
<mgrwt>
<rscale>  0 0.53462420E+02</rscale>
<asrwt>0</asrwt>
<pdfrwt beam="1">  1        2 0.82990075E-03 0.90695260E+02</pdfrwt>
<pdfrwt beam="2">  1       -2 0.73874808E-01 0.90695260E+02</pdfrwt>
<totfact> 0.27651021E+04</totfact>
</mgrwt>
</event>
<event>
 6    1  0.1828142E-002  0.9139605E+02  0.7546771E-02  0.1397173E+00
          2   -1    0    0  501    0  0.00000000000E+00  0.00000000000E+00  0.59941938026E+02  0.59941938026E+02  0.00000000000E+00 0. -1.
         -2   -1    0    0    0  501 -0.00000000000E+00 -0.00000000000E+00 -0.50950515797E+02  0.50950515797E+02  0.00000000000E+00 0.  1.
         23    2    1    2    0    0 -0.10581957366E+01  0.17121424766E+02 -0.27307080897E+00  0.91396459479E+02  0.89771795534E+02 0.  0.
         13    1    3    3    0    0  0.17260706392E+02  0.27368252131E+02  0.36671478467E+02  0.48905526711E+02  0.00000000000E+00 0. -1.
        -13    1    3    3    0    0 -0.18318902129E+02 -0.10246827366E+02 -0.36944549276E+02  0.42490932768E+02  0.00000000000E+00 0.  1.
         22    1    1    2    0    0  0.10581957366E+01 -0.17121424766E+02  0.92644930377E+01  0.19495994344E+02  0.00000000000E+00 0. -1.
<mgrwt>
<rscale>  0 0.60157188E+02</rscale>
<asrwt>0</asrwt>
<pdfrwt beam="1">  1        2 0.92218366E-02 0.91396052E+02</pdfrwt>
<pdfrwt beam="2">  1       -2 0.78385409E-02 0.91396052E+02</pdfrwt>
<totfact> 0.59374690E+04</totfact>
</mgrwt>
</event>
<event>
 6    1  0.1828142E-002  0.9219100E+02  0.7546771E-02  0.1419002E+00
         -2   -1    0    0    0  501 -0.00000000000E+00  0.00000000000E+00  0.50567288495E+03  0.50567288495E+03  0.00000000000E+00 0.  1.
          2   -1    0    0  501    0  0.00000000000E+00 -0.00000000000E+00 -0.16124506829E+02  0.16124506829E+02  0.00000000000E+00 0. -1.
         23    2    1    2    0    0  0.11863380776E+02  0.57362220063E+00  0.49848201712E+03  0.50693540161E+03  0.91422705992E+02 0.  0.
         13    1    3    3    0    0 -0.44186987281E+01 -0.13209515817E+02  0.47502331686E+03  0.47522749054E+03  0.00000000000E+00 0.  1.
        -13    1    3    3    0    0  0.16282079504E+02  0.13783138018E+02  0.23458700260E+02  0.31707911071E+02  0.00000000000E+00 0. -1.
         22    1    1    2    0    0 -0.11863380776E+02 -0.57362220063E+00 -0.89336390000E+01  0.14861990164E+02  0.00000000000E+00 0. -1.
<mgrwt>
<rscale>  0 0.55232573E+02</rscale>
<asrwt>0</asrwt>
<pdfrwt beam="1">  1        2 0.24806937E-02 0.92190997E+02</pdfrwt>
<pdfrwt beam="2">  1       -2 0.77795816E-01 0.92190997E+02</pdfrwt>
<totfact> 0.56003704E+03</totfact>
</mgrwt>
</event>
<event>
 6    1  0.1828142E-002  0.1327892E+03  0.7546771E-02  0.1238649E+00
          2   -1    0    0  501    0  0.00000000000E+00  0.00000000000E+00  0.64805036145E+02  0.64805036145E+02  0.00000000000E+00 0. -1.
         -2   -1    0    0    0  501 -0.00000000000E+00 -0.00000000000E+00 -0.24840784660E+03  0.24840784660E+03  0.00000000000E+00 0.  1.
         23    2    1    2    0    0  0.24861449025E+02  0.93676310701E+02 -0.16942492175E+03  0.21526210244E+03  0.90772384586E+02 0.  0.
         13    1    3    3    0    0  0.28176887909E+02  0.11132040678E+03 -0.14716763717E+03  0.18666677103E+03  0.00000000000E+00 0.  1.
        -13    1    3    3    0    0 -0.33154388846E+01 -0.17644096079E+02 -0.22257284579E+02  0.28595331407E+02  0.00000000000E+00 0. -1.
         22    1    1    2    0    0 -0.24861449025E+02 -0.93676310701E+02 -0.14177888707E+02  0.97950780305E+02  0.00000000000E+00 0. -1.
<mgrwt>
<rscale>  0 0.12273673E+03</rscale>
<asrwt>0</asrwt>
<pdfrwt beam="1">  1        2 0.99700054E-02 0.13278919E+03</pdfrwt>
<pdfrwt beam="2">  1       -2 0.38216593E-01 0.13278919E+03</pdfrwt>
<totfact> 0.39882762E+03</totfact>
</mgrwt>
</event>
<event>
 6    1  0.1828142E-002  0.1163581E+03  0.7546771E-02  0.1272387E+00
          3   -1    0    0  501    0  0.00000000000E+00  0.00000000000E+00  0.71601600342E+02  0.71601600342E+02  0.00000000000E+00 0. -1.
         -3   -1    0    0    0  501 -0.00000000000E+00 -0.00000000000E+00 -0.15630187202E+03  0.15630187202E+03  0.00000000000E+00 0.  1.
         23    2    1    2    0    0 -0.42286988055E+02 -0.60547417923E+02 -0.98885729538E+02  0.15270103629E+03  0.89916849378E+02 0.  0.
         13    1    3    3    0    0 -0.36450374133E+02  0.15801570639E+02 -0.31502370039E+02  0.50702255642E+02  0.00000000000E+00 0.  1.
        -13    1    3    3    0    0 -0.58366139218E+01 -0.76348988562E+02 -0.67383359499E+02  0.10199878065E+03  0.00000000000E+00 0. -1.
         22    1    1    2    0    0  0.42286988055E+02  0.60547417923E+02  0.14185457862E+02  0.75202436069E+02  0.00000000000E+00 0. -1.
<mgrwt>
<rscale>  0 0.10385772E+03</rscale>
<asrwt>0</asrwt>
<pdfrwt beam="1">  1        3 0.11015631E-01 0.11635815E+03</pdfrwt>
<pdfrwt beam="2">  1       -3 0.24046442E-01 0.11635815E+03</pdfrwt>
<totfact> 0.22529020E+03</totfact>
</mgrwt>
</event>
<event>
 6    1  0.1828142E-002  0.9822609E+02  0.7546771E-02  0.1347954E+00
         -2   -1    0    0    0  501 -0.00000000000E+00  0.00000000000E+00  0.23422516202E+02  0.23422516202E+02  0.00000000000E+00 0.  1.
          2   -1    0    0  501    0  0.00000000000E+00 -0.00000000000E+00 -0.18400999131E+03  0.18400999131E+03  0.00000000000E+00 0. -1.
         23    2    1    2    0    0  0.27864280659E+02 -0.13870998770E+02 -0.10541533332E+03  0.14408593718E+03  0.93164059865E+02 0.  0.
         13    1    3    3    0    0  0.23620163308E+02 -0.30889894893E+02 -0.17264924295E+01  0.38924009265E+02  0.00000000000E+00 0.  1.
        -13    1    3    3    0    0  0.42441173506E+01  0.17018896123E+02 -0.10368884089E+03  0.10516192792E+03  0.00000000000E+00 0. -1.
         22    1    1    2    0    0 -0.27864280659E+02  0.13870998770E+02 -0.55172141787E+02  0.63346570332E+02  0.00000000000E+00 0.  1.
<mgrwt>
<rscale>  0 0.73697148E+02</rscale>
<asrwt>0</asrwt>
<pdfrwt beam="1">  1        2 0.28309230E-01 0.98226090E+02</pdfrwt>
<pdfrwt beam="2">  1       -2 0.36034640E-02 0.98226090E+02</pdfrwt>
<totfact> 0.52792985E+04</totfact>
</mgrwt>
</event>
<event>
 6    1  0.1828142E-002  0.9414853E+02  0.7546771E-02  0.1412738E+00
          4   -1    0    0  501    0  0.00000000000E+00  0.00000000000E+00  0.76776326203E+01  0.76776326203E+01  0.00000000000E+00 0. -1.
         -4   -1    0    0    0  501 -0.00000000000E+00 -0.00000000000E+00 -0.38561778584E+03  0.38561778584E+03  0.00000000000E+00 0.  1.
         23    2    1    2    0    0  0.12184859679E+02  0.15783964469E+01 -0.35499766875E+03  0.36727005133E+03  0.93343364216E+02 0.  0.
         11    1    3    3    0    0 -0.39906614403E+02  0.82244254706E+01 -0.18050704646E+03  0.18504856895E+03  0.00000000000E+00 0.  1.
        -11    1    3    3    0    0  0.52091474082E+02 -0.66460290237E+01 -0.17449062229E+03  0.18222148238E+03  0.00000000000E+00 0. -1.
         22    1    1    2    0    0 -0.12184859679E+02 -0.15783964469E+01 -0.22942484466E+02  0.26025367129E+02  0.00000000000E+00 0. -1.
<mgrwt>
<rscale>  0 0.56587260E+02</rscale>
<asrwt>0</asrwt>
<pdfrwt beam="1">  1        4 0.11811743E-02 0.94148530E+02</pdfrwt>
<pdfrwt beam="2">  1       -4 0.59325812E-01 0.94148530E+02</pdfrwt>
<totfact> 0.91433270E+03</totfact>
</mgrwt>
</event>
<event>
 6    1  0.1828142E-002  0.9852815E+02  0.7546771E-02  0.1344852E+00
         -2   -1    0    0    0  501 -0.00000000000E+00  0.00000000000E+00  0.24257324703E+02  0.24257324703E+02  0.00000000000E+00 0.  1.
          2   -1    0    0  501    0  0.00000000000E+00 -0.00000000000E+00 -0.20240138030E+03  0.20240138030E+03  0.00000000000E+00 0. -1.
         23    2    1    2    0    0  0.20438101942E+02 -0.25303084344E+02 -0.92894723522E+02  0.13541501641E+03  0.93004488727E+02 0.  0.
         11    1    3    3    0    0  0.42692200519E+02 -0.17046106623E+02 -0.10047975646E+03  0.11049604153E+03  0.00000000000E+00 0. -1.
        -11    1    3    3    0    0 -0.22254098577E+02 -0.82569777210E+01  0.75850329346E+01  0.24918974882E+02  0.00000000000E+00 0.  1.
         22    1    1    2    0    0 -0.20438101942E+02  0.25303084344E+02 -0.85249332080E+02  0.91243688595E+02  0.00000000000E+00 0.  1.
<mgrwt>
<rscale>  0 0.74684249E+02</rscale>
<asrwt>0</asrwt>
<pdfrwt beam="1">  1        2 0.31138673E-01 0.98528153E+02</pdfrwt>
<pdfrwt beam="2">  1       -2 0.37318962E-02 0.98528153E+02</pdfrwt>
<totfact> 0.45292593E+04</totfact>
</mgrwt>
</event>
<event>
 6    1  0.1828142E-002  0.9245193E+02  0.7546771E-02  0.1379406E+00
          2   -1    0    0  501    0  0.00000000000E+00  0.00000000000E+00  0.83265939314E+01  0.83265939314E+01  0.00000000000E+00 0. -1.
         -2   -1    0    0    0  501 -0.00000000000E+00 -0.00000000000E+00 -0.46396498277E+03  0.46396498277E+03  0.00000000000E+00 0.  1.
         23    2    1    2    0    0  0.22065427562E+02  0.14800521806E+00 -0.42237395139E+03  0.43237381376E+03  0.89780036856E+02 0.  0.
         13    1    3    3    0    0  0.53312383518E+02 -0.13460532257E+02 -0.31364938035E+03  0.31843261447E+03  0.00000000000E+00 0. -1.
        -13    1    3    3    0    0 -0.31246955955E+02  0.13608537475E+02 -0.10872457104E+03  0.11394119929E+03  0.00000000000E+00 0.  1.
         22    1    1    2    0    0 -0.22065427562E+02 -0.14800521806E+00 -0.33264437447E+02  0.39917762935E+02  0.00000000000E+00 0.  1.
<mgrwt>
<rscale>  0 0.64620085E+02</rscale>
<asrwt>0</asrwt>
<pdfrwt beam="1">  1        2 0.12810137E-02 0.92451934E+02</pdfrwt>
<pdfrwt beam="2">  1       -2 0.71379271E-01 0.92451934E+02</pdfrwt>
<totfact> 0.16467508E+04</totfact>
</mgrwt>
</event>
<event>
 6    1  0.1828142E-002  0.7446170E+02  0.7546771E-02  0.1457893E+00
          2   -1    0    0  501    0  0.00000000000E+00  0.00000000000E+00  0.13192267002E+03  0.13192267002E+03  0.00000000000E+00 0. -1.
         -2   -1    0    0    0  501 -0.00000000000E+00 -0.00000000000E+00 -0.14920045806E+02  0.14920045806E+02  0.00000000000E+00 0.  1.
         23    2    1    2    0    0 -0.94109955568E+01 -0.83595932623E+01  0.88325925902E+02  0.11552494670E+03  0.73390016262E+02 0.  0.
         13    1    3    3    0    0  0.18790931914E+02  0.22777764769E+02  0.52848351034E+02  0.60538201964E+02  0.00000000000E+00 0. -1.
        -13    1    3    3    0    0 -0.28201927471E+02 -0.31137358031E+02  0.35477574868E+02  0.54986744737E+02  0.00000000000E+00 0.  1.
         22    1    1    2    0    0  0.94109955568E+01  0.83595932623E+01  0.28676698315E+02  0.31317769127E+02  0.00000000000E+00 0. -1.
<mgrwt>
<rscale>  0 0.47745901E+02</rscale>
<asrwt>0</asrwt>
<pdfrwt beam="1">  1        2 0.20295795E-01 0.74461696E+02</pdfrwt>
<pdfrwt beam="2">  1       -2 0.22953917E-02 0.74461696E+02</pdfrwt>
<totfact> 0.13995418E+05</totfact>
</mgrwt>
</event>
<event>
 6    1  0.1828142E-002  0.9201921E+02  0.7546771E-02  0.1428070E+00
         -2   -1    0    0    0  501 -0.00000000000E+00  0.00000000000E+00  0.23711338611E+02  0.23711338611E+02  0.00000000000E+00 0.  1.
          2   -1    0    0  501    0  0.00000000000E+00 -0.00000000000E+00 -0.11074293218E+03  0.11074293218E+03  0.00000000000E+00 0. -1.
         23    2    1    2    0    0  0.75824899088E+01 -0.71127858343E+01 -0.76639089099E+02  0.11975426995E+03  0.91430024159E+02 0.  0.
         13    1    3    3    0    0 -0.12458225494E+02 -0.10390053891E+00  0.18483959395E+02  0.22290691615E+02  0.00000000000E+00 0.  1.
        -13    1    3    3    0    0  0.20040715402E+02 -0.70088852954E+01 -0.95123048494E+02  0.97463578334E+02  0.00000000000E+00 0. -1.
         22    1    1    2    0    0 -0.75824899088E+01  0.71127858343E+01 -0.10392504466E+02  0.14700000837E+02  0.00000000000E+00 0.  1.
<mgrwt>
<rscale>  0 0.53349456E+02</rscale>
<asrwt>0</asrwt>
<pdfrwt beam="1">  1        2 0.17037374E-01 0.92019211E+02</pdfrwt>
<pdfrwt beam="2">  1       -2 0.36478983E-02 0.92019211E+02</pdfrwt>
<totfact> 0.90142894E+04</totfact>
</mgrwt>
</event>
<event>
 6    1  0.1828142E-002  0.1008472E+03  0.7546771E-02  0.1325105E+00
         -2   -1    0    0    0  501 -0.00000000000E+00  0.00000000000E+00  0.94372601012E+01  0.94372601012E+01  0.00000000000E+00 0. -1.
          2   -1    0    0  501    0  0.00000000000E+00 -0.00000000000E+00 -0.55611165999E+03  0.55611165999E+03  0.00000000000E+00 0.  1.
         23    2    1    2    0    0  0.41970985645E+02  0.84917659553E+01 -0.34833004357E+03  0.36263475743E+03  0.91304295177E+02 0.  0.
         11    1    3    3    0    0  0.52781812455E+00  0.20139839350E+02 -0.28698851312E+03  0.28769480076E+03  0.00000000000E+00 0.  1.
        -11    1    3    3    0    0  0.41443167520E+02 -0.11648073395E+02 -0.61341530451E+02  0.74939956672E+02  0.00000000000E+00 0. -1.
         22    1    1    2    0    0 -0.41970985645E+02 -0.84917659553E+01 -0.19834435632E+03  0.20291416266E+03  0.00000000000E+00 0. -1.
<mgrwt>
<rscale>  0 0.81407232E+02</rscale>
<asrwt>0</asrwt>
<pdfrwt beam="1">  1        2 0.85555640E-01 0.10084715E+03</pdfrwt>
<pdfrwt beam="2">  1       -2 0.14518862E-02 0.10084715E+03</pdfrwt>
<totfact> 0.60905968E+04</totfact>
</mgrwt>
</event>
<event>
 6    1  0.1828142E-002  0.1308153E+03  0.7546771E-02  0.1241938E+00
         -2   -1    0    0    0  501 -0.00000000000E+00  0.00000000000E+00  0.16106789836E+02  0.16106789836E+02  0.00000000000E+00 0.  1.
          2   -1    0    0  501    0  0.00000000000E+00 -0.00000000000E+00 -0.79311124267E+03  0.79311124267E+03  0.00000000000E+00 0. -1.
         23    2    1    2    0    0  0.54577086884E+02  0.77547288799E+02 -0.47416373047E+03  0.49187792546E+03  0.90113316751E+02 0.  0.
         13    1    3    3    0    0  0.20666730522E+02  0.64197159377E+02 -0.13648630774E+03  0.15223961778E+03  0.00000000000E+00 0.  1.
        -13    1    3    3    0    0  0.33910356362E+02  0.13350129422E+02 -0.33767742273E+03  0.33963830768E+03  0.00000000000E+00 0. -1.
         22    1    1    2    0    0 -0.54577086884E+02 -0.77547288799E+02 -0.30284072237E+03  0.31734010704E+03  0.00000000000E+00 0. -1.
<mgrwt>
<rscale>  0 0.12070561E+03</rscale>
<asrwt>0</asrwt>
<pdfrwt beam="1">  1        2 0.12201710E+00 0.13081533E+03</pdfrwt>
<pdfrwt beam="2">  1       -2 0.24779680E-02 0.13081533E+03</pdfrwt>
<totfact> 0.19118088E+04</totfact>
</mgrwt>
</event>
<event>
 6    1  0.1828142E-002  0.9496221E+02  0.7546771E-02  0.1375281E+00
          2   -1    0    0  501    0  0.00000000000E+00  0.00000000000E+00  0.14001789238E+04  0.14001789238E+04  0.00000000000E+00 0. -1.
         -2   -1    0    0    0  501 -0.00000000000E+00 -0.00000000000E+00 -0.27940546166E+01  0.27940546166E+01  0.00000000000E+00 0.  1.
         23    2    1    2    0    0  0.20043070936E+02  0.85355943838E+01  0.12844872653E+04  0.12879927627E+04  0.92429653018E+02 0.  0.
         11    1    3    3    0    0  0.16938243422E+02 -0.17615225043E+02  0.11794979334E+04  0.11797510649E+04  0.00000000000E+00 0. -1.
        -11    1    3    3    0    0  0.31048275146E+01  0.26150819427E+02  0.10498933198E+03  0.10824169779E+03  0.00000000000E+00 0.  1.
         22    1    1    2    0    0 -0.20043070936E+02 -0.85355943838E+01  0.11289760388E+03  0.11498021580E+03  0.00000000000E+00 0.  1.
<mgrwt>
<rscale>  0 0.65720660E+02</rscale>
<asrwt>0</asrwt>
<pdfrwt beam="1">  1        2 0.21541158E+00 0.94962213E+02</pdfrwt>
<pdfrwt beam="2">  1       -2 0.42985568E-03 0.94962213E+02</pdfrwt>
<totfact> 0.10047020E+05</totfact>
</mgrwt>
</event>
<event>
 6    1  0.1828142E-002  0.9497535E+02  0.7546771E-02  0.1360700E+00
         -1   -1    0    0    0  501 -0.00000000000E+00  0.00000000000E+00  0.79237067652E+02  0.79237067652E+02  0.00000000000E+00 0.  1.
          1   -1    0    0  501    0  0.00000000000E+00 -0.00000000000E+00 -0.17266952191E+03  0.17266952191E+03  0.00000000000E+00 0. -1.
         23    2    1    2    0    0  0.27738894702E+02 -0.37772605603E+00  0.48949387956E+02  0.10684736735E+03  0.90833520093E+02 0.  0.
         11    1    3    3    0    0  0.11212971267E+02  0.43820616353E+02  0.11676508786E+02  0.46715286574E+02  0.00000000000E+00 0. -1.
        -11    1    3    3    0    0  0.16525923434E+02 -0.44198342409E+02  0.37272879169E+02  0.60132080778E+02  0.00000000000E+00 0.  1.
         22    1    1    2    0    0 -0.27738894702E+02  0.37772605603E+00 -0.14238184222E+03  0.14505922221E+03  0.00000000000E+00 0. -1.
<mgrwt>
<rscale>  0 0.69821719E+02</rscale>
<asrwt>0</asrwt>
<pdfrwt beam="1">  1        1 0.26564541E-01 0.94975351E+02</pdfrwt>
<pdfrwt beam="2">  1       -1 0.12190318E-01 0.94975351E+02</pdfrwt>
<totfact> 0.72919354E+03</totfact>
</mgrwt>
</event>
<event>
 6    1  0.1828142E-002  0.9263210E+02  0.7546771E-02  0.1397330E+00
         -2   -1    0    0    0  501 -0.00000000000E+00  0.00000000000E+00  0.11131070558E+03  0.11131070558E+03  0.00000000000E+00 0.  1.
          2   -1    0    0  501    0  0.00000000000E+00 -0.00000000000E+00 -0.26758788081E+02  0.26758788081E+02  0.00000000000E+00 0. -1.
         23    2    1    2    0    0  0.16433004393E+02  0.28970306832E+00  0.69822216357E+02  0.11599934058E+03  0.91162369193E+02 0.  0.
         11    1    3    3    0    0  0.16770958341E+02 -0.89569541572E+01 -0.18892539893E+02  0.26803360518E+02  0.00000000000E+00 0. -1.
        -11    1    3    3    0    0 -0.33795394808E+00  0.92466572256E+01  0.88714756250E+02  0.89195980062E+02  0.00000000000E+00 0.  1.
         22    1    1    2    0    0 -0.16433004393E+02 -0.28970306832E+00  0.14729701140E+02  0.22070153079E+02  0.00000000000E+00 0. -1.
<mgrwt>
<rscale>  0 0.60119759E+02</rscale>
<asrwt>0</asrwt>
<pdfrwt beam="1">  1        2 0.41167367E-02 0.92632096E+02</pdfrwt>
<pdfrwt beam="2">  1       -2 0.17124724E-01 0.92632096E+02</pdfrwt>
<totfact> 0.48158391E+04</totfact>
</mgrwt>
</event>
<event>
 6    1  0.1828142E-002  0.9193215E+02  0.7546771E-02  0.1388158E+00
          1   -1    0    0  501    0  0.00000000000E+00  0.00000000000E+00  0.25415241253E+02  0.25415241253E+02  0.00000000000E+00 0. -1.
         -1   -1    0    0    0  501 -0.00000000000E+00 -0.00000000000E+00 -0.12330236549E+03  0.12330236549E+03  0.00000000000E+00 0.  1.
         23    2    1    2    0    0 -0.17727478371E+02 -0.80568769523E+01 -0.74823291626E+02  0.11853288991E+03  0.89846225657E+02 0.  0.
         13    1    3    3    0    0 -0.19367801326E+02  0.29452490078E+02 -0.72856769632E+02  0.80936208098E+02  0.00000000000E+00 0.  1.
        -13    1    3    3    0    0  0.16403229547E+01 -0.37509367031E+02 -0.19665219939E+01  0.37596681811E+02  0.00000000000E+00 0. -1.
         22    1    1    2    0    0  0.17727478371E+02  0.80568769523E+01 -0.23063832610E+02  0.30184716833E+02  0.00000000000E+00 0. -1.
<mgrwt>
<rscale>  0 0.62367135E+02</rscale>
<asrwt>0</asrwt>
<pdfrwt beam="1">  1        1 0.39100371E-02 0.91932154E+02</pdfrwt>
<pdfrwt beam="2">  1       -1 0.18969595E-01 0.91932154E+02</pdfrwt>
<totfact> 0.44590365E+04</totfact>
</mgrwt>
</event>
<event>
 6    1  0.1828142E-002  0.9240464E+02  0.7546771E-02  0.1366198E+00
         -2   -1    0    0    0  501 -0.00000000000E+00  0.00000000000E+00  0.13384740337E+02  0.13384740337E+02  0.00000000000E+00 0.  1.
          2   -1    0    0  501    0  0.00000000000E+00 -0.00000000000E+00 -0.26843737685E+03  0.26843737685E+03  0.00000000000E+00 0. -1.
         23    2    1    2    0    0  0.78395011078E+01  0.26334451445E+02 -0.19600206558E+03  0.21669200865E+03  0.88225029275E+02 0.  0.
         11    1    3    3    0    0  0.62066626369E+00  0.55845592585E+02 -0.85774449845E+02  0.10235414835E+03  0.00000000000E+00 0.  1.
        -11    1    3    3    0    0  0.72188348441E+01 -0.29511141140E+02 -0.11022761573E+03  0.11433786030E+03  0.00000000000E+00 0. -1.
         22    1    1    2    0    0 -0.78395011078E+01 -0.26334451445E+02 -0.59050570938E+02  0.65130108542E+02  0.00000000000E+00 0. -1.
<mgrwt>
<rscale>  0 0.68235581E+02</rscale>
<asrwt>0</asrwt>
<pdfrwt beam="1">  1        2 0.41298053E-01 0.92404637E+02</pdfrwt>
<pdfrwt beam="2">  1       -2 0.20591911E-02 0.92404637E+02</pdfrwt>
<totfact> 0.79015519E+04</totfact>
</mgrwt>
</event>
<event>
 6    1  0.1828142E-002  0.1224984E+03  0.7546771E-02  0.1259025E+00
         -2   -1    0    0    0  501 -0.00000000000E+00  0.00000000000E+00  0.19975544060E+02  0.19975544060E+02  0.00000000000E+00 0.  1.
          2   -1    0    0  501    0  0.00000000000E+00 -0.00000000000E+00 -0.54318791561E+03  0.54318791561E+03  0.00000000000E+00 0. -1.
         23    2    1    2    0    0  0.32008646373E+02 -0.75608988246E+02 -0.36344253596E+03  0.38353141100E+03  0.90909810965E+02 0.  0.
         13    1    3    3    0    0  0.68351962208E+01 -0.78576056646E+01  0.23419228669E+01  0.10674571508E+02  0.00000000000E+00 0.  1.
        -13    1    3    3    0    0  0.25173450152E+02 -0.67751382581E+02 -0.36578445883E+03  0.37285683949E+03  0.00000000000E+00 0. -1.
         22    1    1    2    0    0 -0.32008646373E+02  0.75608988246E+02 -0.15976983559E+03  0.17963204867E+03  0.00000000000E+00 0.  1.
<mgrwt>
<rscale>  0 0.11083850E+03</rscale>
<asrwt>0</asrwt>
<pdfrwt beam="1">  1        2 0.83567369E-01 0.12249843E+03</pdfrwt>
<pdfrwt beam="2">  1       -2 0.30731607E-02 0.12249843E+03</pdfrwt>
<totfact> 0.21567443E+04</totfact>
</mgrwt>
</event>
<event>
 6    1  0.1828142E-002  0.9306895E+02  0.7546771E-02  0.1382238E+00
          2   -1    0    0  501    0  0.00000000000E+00  0.00000000000E+00  0.75019869435E+02  0.75019869435E+02  0.00000000000E+00 0. -1.
         -2   -1    0    0    0  501 -0.00000000000E+00 -0.00000000000E+00 -0.43835668747E+02  0.43835668747E+02  0.00000000000E+00 0.  1.
         23    2    1    2    0    0 -0.11265064510E+02 -0.17312519595E+02  0.19379232463E+02  0.95065155925E+02  0.90748025913E+02 0.  0.
         13    1    3    3    0    0 -0.30009756830E+02  0.25105210775E+02  0.27714238517E+02  0.47947222335E+02  0.00000000000E+00 0.  1.
        -13    1    3    3    0    0  0.18744692320E+02 -0.42417730370E+02 -0.83350060543E+01  0.47117933590E+02  0.00000000000E+00 0. -1.
         22    1    1    2    0    0  0.11265064510E+02  0.17312519595E+02  0.11804968225E+02  0.23790382257E+02  0.00000000000E+00 0.  1.
<mgrwt>
<rscale>  0 0.63879189E+02</rscale>
<asrwt>0</asrwt>
<pdfrwt beam="1">  1        2 0.11541518E-01 0.93068949E+02</pdfrwt>
<pdfrwt beam="2">  1       -2 0.67439491E-02 0.93068949E+02</pdfrwt>
<totfact> 0.57041515E+04</totfact>
</mgrwt>
</event>
<event>
 6    1  0.1828142E-002  0.9138992E+02  0.7546771E-02  0.1429789E+00
          1   -1    0    0  501    0  0.00000000000E+00  0.00000000000E+00  0.40845956657E+01  0.40845956657E+01  0.00000000000E+00 0. -1.
         -1   -1    0    0    0  501 -0.00000000000E+00 -0.00000000000E+00 -0.11158144614E+04  0.11158144614E+04  0.00000000000E+00 0.  1.
         23    2    1    2    0    0  0.13825391762E+01  0.10246383938E+02 -0.11017339185E+04  0.11055178624E+04  0.90803178112E+02 0.  0.
         11    1    3    3    0    0 -0.14797988308E+02 -0.69385952481E+01 -0.10273236440E+04  0.10274536457E+04  0.00000000000E+00 0.  1.
        -11    1    3    3    0    0  0.16180527484E+02  0.17184979187E+02 -0.74410274522E+02  0.78064216730E+02  0.00000000000E+00 0. -1.
         22    1    1    2    0    0 -0.13825391762E+01 -0.10246383938E+02 -0.99959472371E+01  0.14381194650E+02  0.00000000000E+00 0.  1.
<mgrwt>
<rscale>  0 0.53002435E+02</rscale>
<asrwt>0</asrwt>
<pdfrwt beam="1">  1        1 0.62839954E-03 0.91389917E+02</pdfrwt>
<pdfrwt beam="2">  1       -1 0.17166371E+00 0.91389917E+02</pdfrwt>
<totfact> 0.75093305E+03</totfact>
</mgrwt>
</event>
<event>
 6    1  0.1828142E-002  0.9229854E+02  0.7546771E-02  0.1391548E+00
          2   -1    0    0  501    0  0.00000000000E+00  0.00000000000E+00  0.28174267074E+02  0.28174267074E+02  0.00000000000E+00 0. -1.
         -2   -1    0    0    0  501 -0.00000000000E+00 -0.00000000000E+00 -0.11036989744E+03  0.11036989744E+03  0.00000000000E+00 0.  1.
         23    2    1    2    0    0  0.11679595329E+02  0.13985718916E+02 -0.75093952233E+02  0.11898790943E+03  0.90482084674E+02 0.  0.
         11    1    3    3    0    0 -0.58324811787E+01 -0.65362730000E+01 -0.88451288847E+02  0.88884032313E+02  0.00000000000E+00 0.  1.
        -11    1    3    3    0    0  0.17512076507E+02  0.20521991916E+02  0.13357336614E+02  0.30103877113E+02  0.00000000000E+00 0. -1.
         22    1    1    2    0    0 -0.11679595329E+02 -0.13985718916E+02 -0.71016781282E+01  0.19556255083E+02  0.00000000000E+00 0.  1.
<mgrwt>
<rscale>  0 0.61523433E+02</rscale>
<asrwt>0</asrwt>
<pdfrwt beam="1">  1        2 0.43345026E-02 0.92298542E+02</pdfrwt>
<pdfrwt beam="2">  1       -2 0.16979984E-01 0.92298542E+02</pdfrwt>
<totfact> 0.45635235E+04</totfact>
</mgrwt>
</event>
<event>
 6    1  0.1828142E-002  0.9109827E+02  0.7546771E-02  0.1409857E+00
         -2   -1    0    0    0  501 -0.00000000000E+00  0.00000000000E+00  0.27026039532E+03  0.27026039532E+03  0.00000000000E+00 0.  1.
          2   -1    0    0  501    0  0.00000000000E+00 -0.00000000000E+00 -0.10412433175E+02  0.10412433175E+02  0.00000000000E+00 0. -1.
         23    2    1    2    0    0  0.15427976327E+00  0.14184283532E+02  0.21145225809E+03  0.23024107389E+03  0.89987093260E+02 0.  0.
         11    1    3    3    0    0 -0.71008507349E+01 -0.37454819738E+02  0.10491809249E+03  0.11162926021E+03  0.00000000000E+00 0.  1.
        -11    1    3    3    0    0  0.72551304981E+01  0.51639103270E+02  0.10653416560E+03  0.11861181369E+03  0.00000000000E+00 0. -1.
         22    1    1    2    0    0 -0.15427976327E+00 -0.14184283532E+02  0.48395704047E+02  0.50431754598E+02  0.00000000000E+00 0.  1.
<mgrwt>
<rscale>  0 0.57225668E+02</rscale>
<asrwt>0</asrwt>
<pdfrwt beam="1">  1        2 0.16019130E-02 0.91098269E+02</pdfrwt>
<pdfrwt beam="2">  1       -2 0.41578517E-01 0.91098269E+02</pdfrwt>
<totfact> 0.35725310E+04</totfact>
</mgrwt>
</event>
<event>
 6    1  0.1828142E-002  0.9225301E+02  0.7546771E-02  0.1429347E+00
         -2   -1    0    0    0  501 -0.00000000000E+00  0.00000000000E+00  0.89281940114E+01  0.89281940114E+01  0.00000000000E+00 0.  1.
          2   -1    0    0  501    0  0.00000000000E+00 -0.00000000000E+00 -0.29935189557E+03  0.29935189557E+03  0.00000000000E+00 0. -1.
         23    2    1    2    0    0 -0.10093582701E+02 -0.72102893288E+00 -0.24627936733E+03  0.26299076921E+03  0.91696333770E+02 0.  0.
         13    1    3    3    0    0  0.12203725533E+02  0.31341234229E+02 -0.19827405942E+03  0.20110645569E+03  0.00000000000E+00 0.  1.
        -13    1    3    3    0    0 -0.22297308234E+02 -0.32062263162E+02 -0.48005307903E+02  0.61884313525E+02  0.00000000000E+00 0. -1.
         22    1    1    2    0    0  0.10093582701E+02  0.72102893288E+00 -0.44144334233E+02  0.45289320367E+02  0.00000000000E+00 0.  1.
<mgrwt>
<rscale>  0 0.53091263E+02</rscale>
<asrwt>0</asrwt>
<pdfrwt beam="1">  1        2 0.46054134E-01 0.92253010E+02</pdfrwt>
<pdfrwt beam="2">  1       -2 0.13735684E-02 0.92253010E+02</pdfrwt>
<totfact> 0.12581113E+05</totfact>
</mgrwt>
</event>
<event>
 6    1  0.1828142E-002  0.9611816E+02  0.7546771E-02  0.1386003E+00
         -1   -1    0    0    0  501 -0.00000000000E+00  0.00000000000E+00  0.99532142852E+01  0.99532142852E+01  0.00000000000E+00 0.  1.
          1   -1    0    0  501    0  0.00000000000E+00 -0.00000000000E+00 -0.35659387202E+03  0.35659387202E+03  0.00000000000E+00 0. -1.
         23    2    1    2    0    0  0.45339668229E+00 -0.17634852693E+02 -0.24129168500E+03  0.25973135875E+03  0.94485490246E+02 0.  0.
         13    1    3    3    0    0 -0.38160379704E+02  0.38072103611E+01 -0.47902068281E+02  0.61362183595E+02  0.00000000000E+00 0.  1.
        -13    1    3    3    0    0  0.38613776387E+02 -0.21442063055E+02 -0.19338961672E+03  0.19836917515E+03  0.00000000000E+00 0. -1.
         22    1    1    2    0    0 -0.45339668229E+00  0.17634852693E+02 -0.10534897274E+03  0.10681572756E+03  0.00000000000E+00 0. -1.
<mgrwt>
<rscale>  0 0.62911919E+02</rscale>
<asrwt>0</asrwt>
<pdfrwt beam="1">  1        1 0.54860602E-01 0.96118164E+02</pdfrwt>
<pdfrwt beam="2">  1       -1 0.15312636E-02 0.96118164E+02</pdfrwt>
<totfact> 0.62504819E+04</totfact>
</mgrwt>
</event>
<event>
 6    1  0.1828142E-002  0.9094497E+02  0.7546771E-02  0.1389104E+00
          2   -1    0    0  501    0  0.00000000000E+00  0.00000000000E+00  0.52831087748E+01  0.52831087748E+01  0.00000000000E+00 0. -1.
         -2   -1    0    0    0  501 -0.00000000000E+00 -0.00000000000E+00 -0.11074072061E+04  0.11074072061E+04  0.00000000000E+00 0.  1.
         23    2    1    2    0    0  0.12810773564E+02 -0.15109475460E+02 -0.10763393362E+04  0.10801746867E+04  0.88761337194E+02 0.  0.
         11    1    3    3    0    0 -0.52243955262E+01  0.44524175489E+01 -0.98537535234E+03  0.98539926087E+03  0.00000000000E+00 0.  1.
        -11    1    3    3    0    0  0.18035169090E+02 -0.19561893009E+02 -0.90963983886E+02  0.94775425858E+02  0.00000000000E+00 0. -1.
         22    1    1    2    0    0 -0.12810773564E+02  0.15109475460E+02 -0.25784761053E+02  0.32515628097E+02  0.00000000000E+00 0. -1.
<mgrwt>
<rscale>  0 0.62130066E+02</rscale>
<asrwt>0</asrwt>
<pdfrwt beam="1">  1        2 0.81278687E-03 0.90944968E+02</pdfrwt>
<pdfrwt beam="2">  1       -2 0.17037015E+00 0.90944968E+02</pdfrwt>
<totfact> 0.39681624E+03</totfact>
</mgrwt>
</event>
<event>
 6    1  0.1828142E-002  0.9292014E+02  0.7546771E-02  0.1408681E+00
          2   -1    0    0  501    0  0.00000000000E+00  0.00000000000E+00  0.18835020844E+03  0.18835020844E+03  0.00000000000E+00 0.  1.
         -2   -1    0    0    0  501 -0.00000000000E+00 -0.00000000000E+00 -0.15066169559E+02  0.15066169559E+02  0.00000000000E+00 0. -1.
         23    2    1    2    0    0  0.48725823333E+01 -0.12713163488E+02  0.15045129551E+03  0.17683253414E+03  0.91917279253E+02 0.  0.
         11    1    3    3    0    0  0.12731135386E+02 -0.60408339955E+01 -0.92128144254E+01  0.16835956557E+02  0.00000000000E+00 0. -1.
        -11    1    3    3    0    0 -0.78585530522E+01 -0.66723294923E+01  0.15966410993E+03  0.15999657758E+03  0.00000000000E+00 0.  1.
         22    1    1    2    0    0 -0.48725823333E+01  0.12713163488E+02  0.22832743374E+02  0.26583843862E+02  0.00000000000E+00 0. -1.
<mgrwt>
<rscale>  0 0.57489209E+02</rscale>
<asrwt>0</asrwt>
<pdfrwt beam="1">  1        2 0.28976954E-01 0.92920142E+02</pdfrwt>
<pdfrwt beam="2">  1       -2 0.23178724E-02 0.92920142E+02</pdfrwt>
<totfact> 0.97055224E+04</totfact>
</mgrwt>
</event>
<event>
 6    1  0.1828142E-002  0.9518916E+02  0.7546771E-02  0.1354059E+00
          1   -1    0    0  501    0  0.00000000000E+00  0.00000000000E+00  0.15742515169E+03  0.15742515169E+03  0.00000000000E+00 0. -1.
         -1   -1    0    0    0  501 -0.00000000000E+00 -0.00000000000E+00 -0.41418700163E+02  0.41418700163E+02  0.00000000000E+00 0.  1.
         23    2    1    2    0    0 -0.76515189230E+00 -0.30812801037E+02  0.19011101958E+02  0.97069041595E+02  0.90060883147E+02 0.  0.
         11    1    3    3    0    0  0.33390807861E+02 -0.34707970873E+02 -0.13221862767E+02  0.49944038150E+02  0.00000000000E+00 0.  1.
        -11    1    3    3    0    0 -0.34155959753E+02  0.38951698354E+01  0.32232964725E+02  0.47125003445E+02  0.00000000000E+00 0. -1.
         22    1    1    2    0    0  0.76515189230E+00  0.30812801037E+02  0.96995349571E+02  0.10177481026E+03  0.00000000000E+00 0. -1.
<mgrwt>
<rscale>  0 0.71805365E+02</rscale>
<asrwt>0</asrwt>
<pdfrwt beam="1">  1        1 0.24219254E-01 0.95189163E+02</pdfrwt>
<pdfrwt beam="2">  1       -1 0.63721078E-02 0.95189163E+02</pdfrwt>
<totfact> 0.21677819E+04</totfact>
</mgrwt>
</event>
<event>
 6    1  0.1828142E-002  0.9490396E+02  0.7546771E-02  0.1372410E+00
         -2   -1    0    0    0  501 -0.00000000000E+00  0.00000000000E+00  0.12093279914E+03  0.12093279914E+03  0.00000000000E+00 0.  1.
          2   -1    0    0  501    0  0.00000000000E+00 -0.00000000000E+00 -0.33693061416E+02  0.33693061416E+02  0.00000000000E+00 0. -1.
         23    2    1    2    0    0 -0.19147615372E+02  0.12526715522E+02  0.90947015243E+02  0.13144626429E+03  0.92104348645E+02 0.  0.
         11    1    3    3    0    0  0.47030863349E+01  0.72666564169E+01  0.10358525548E+03  0.10394627684E+03  0.00000000000E+00 0.  1.
        -11    1    3    3    0    0 -0.23850701707E+02  0.52600591047E+01 -0.12638240236E+02  0.27499987454E+02  0.00000000000E+00 0. -1.
         22    1    1    2    0    0  0.19147615372E+02 -0.12526715522E+02 -0.37072775189E+01  0.23179596260E+02  0.00000000000E+00 0.  1.
<mgrwt>
<rscale>  0 0.66501736E+02</rscale>
<asrwt>0</asrwt>
<pdfrwt beam="1">  1        2 0.51835480E-02 0.94903956E+02</pdfrwt>
<pdfrwt beam="2">  1       -2 0.18605046E-01 0.94903956E+02</pdfrwt>
<totfact> 0.31241859E+04</totfact>
</mgrwt>
</event>
<event>
 6    1  0.1828142E-002  0.9149078E+02  0.7546771E-02  0.1419210E+00
         -1   -1    0    0    0  501 -0.00000000000E+00  0.00000000000E+00  0.85676300564E+02  0.85676300564E+02  0.00000000000E+00 0.  1.
          1   -1    0    0  501    0  0.00000000000E+00 -0.00000000000E+00 -0.31940655483E+02  0.31940655483E+02  0.00000000000E+00 0. -1.
         23    2    1    2    0    0  0.12105146835E+02  0.44330382395E+00  0.52390459323E+02  0.10542923178E+03  0.90685343836E+02 0.  0.
         13    1    3    3    0    0  0.83689935341E+01 -0.45018392298E+02  0.28532008049E+02  0.53951563288E+02  0.00000000000E+00 0. -1.
        -13    1    3    3    0    0  0.37361533011E+01  0.45461696122E+02  0.23858451273E+02  0.51477668488E+02  0.00000000000E+00 0.  1.
         22    1    1    2    0    0 -0.12105146835E+02 -0.44330382395E+00  0.13451857579E+01  0.12187724271E+02  0.00000000000E+00 0.  1.
<mgrwt>
<rscale>  0 0.55188459E+02</rscale>
<asrwt>0</asrwt>
<pdfrwt beam="1">  1        1 0.49139470E-02 0.91490779E+02</pdfrwt>
<pdfrwt beam="2">  1       -1 0.13180969E-01 0.91490779E+02</pdfrwt>
<totfact> 0.57620236E+04</totfact>
</mgrwt>
</event>
<event>
 6    1  0.1828142E-002  0.9251933E+02  0.7546771E-02  0.1406821E+00
          4   -1    0    0  501    0  0.00000000000E+00  0.00000000000E+00  0.18913149866E+02  0.18913149866E+02  0.00000000000E+00 0. -1.
         -4   -1    0    0    0  501 -0.00000000000E+00 -0.00000000000E+00 -0.16513448365E+03  0.16513448365E+03  0.00000000000E+00 0.  1.
         23    2    1    2    0    0 -0.14106595399E+02 -0.16272101413E+01 -0.14153986096E+03  0.16909570941E+03  0.91423098038E+02 0.  0.
         13    1    3    3    0    0  0.37679002563E+01 -0.12903301679E+02  0.95790998071E+01  0.16506102498E+02  0.00000000000E+00 0. -1.
        -13    1    3    3    0    0 -0.17874495656E+02  0.11276091537E+02 -0.15111896077E+03  0.15258960692E+03  0.00000000000E+00 0.  1.
         22    1    1    2    0    0  0.14106595399E+02  0.16272101413E+01 -0.46814728248E+01  0.14951924104E+02  0.00000000000E+00 0.  1.
<mgrwt>
<rscale>  0 0.57909189E+02</rscale>
<asrwt>0</asrwt>
<pdfrwt beam="1">  1        4 0.29097154E-02 0.92519332E+02</pdfrwt>
<pdfrwt beam="2">  1       -4 0.25405304E-01 0.92519332E+02</pdfrwt>
<totfact> 0.12001304E+04</totfact>
</mgrwt>
</event>
<event>
 6    1  0.1828142E-002  0.9581876E+02  0.7546771E-02  0.1421995E+00
         -2   -1    0    0    0  501 -0.00000000000E+00  0.00000000000E+00  0.17528230512E+02  0.17528230512E+02  0.00000000000E+00 0. -1.
          2   -1    0    0  501    0  0.00000000000E+00 -0.00000000000E+00 -0.18557896392E+03  0.18557896392E+03  0.00000000000E+00 0.  1.
         23    2    1    2    0    0  0.14203548589E+01  0.10002678942E+02 -0.11778996658E+03  0.15184106842E+03  0.95284641146E+02 0.  0.
         11    1    3    3    0    0  0.28586591987E+02  0.43876599803E+02 -0.62513787321E+02  0.81549511690E+02  0.00000000000E+00 0.  1.
        -11    1    3    3    0    0 -0.27166237128E+02 -0.33873920861E+02 -0.55276179254E+02  0.70291556727E+02  0.00000000000E+00 0. -1.
         22    1    1    2    0    0 -0.14203548589E+01 -0.10002678942E+02 -0.50260766830E+02  0.51266126012E+02  0.00000000000E+00 0.  1.
<mgrwt>
<rscale>  0 0.54601011E+02</rscale>
<asrwt>0</asrwt>
<pdfrwt beam="1">  1        2 0.28550610E-01 0.95818755E+02</pdfrwt>
<pdfrwt beam="2">  1       -2 0.26966508E-02 0.95818755E+02</pdfrwt>
<totfact> 0.79574948E+04</totfact>
</mgrwt>
</event>
<event>
 6    1  0.1828142E-002  0.9406864E+02  0.7546771E-02  0.1380157E+00
         -1   -1    0    0    0  501 -0.00000000000E+00  0.00000000000E+00  0.38410627632E+02  0.38410627632E+02  0.00000000000E+00 0.  1.
          1   -1    0    0  501    0  0.00000000000E+00 -0.00000000000E+00 -0.85874054488E+02  0.85874054488E+02  0.00000000000E+00 0. -1.
         23    2    1    2    0    0 -0.20523056560E+02  0.26449010931E+01 -0.36850743739E+02  0.10102913665E+03  0.91764469078E+02 0.  0.
         11    1    3    3    0    0  0.33650853100E+02 -0.14693634769E+02 -0.19415542293E+02  0.41536081900E+02  0.00000000000E+00 0. -1.
        -11    1    3    3    0    0 -0.54173909660E+02  0.17338535862E+02 -0.17435201445E+02  0.59493054747E+02  0.00000000000E+00 0.  1.
         22    1    1    2    0    0  0.20523056560E+02 -0.26449010931E+01 -0.10612683117E+02  0.23255545474E+02  0.00000000000E+00 0. -1.
<mgrwt>
<rscale>  0 0.64422621E+02</rscale>
<asrwt>0</asrwt>
<pdfrwt beam="1">  1        1 0.13211393E-01 0.94068641E+02</pdfrwt>
<pdfrwt beam="2">  1       -1 0.59093274E-02 0.94068641E+02</pdfrwt>
<totfact> 0.52122170E+04</totfact>
</mgrwt>
</event>
<event>
 6    1  0.1828142E-002  0.9215767E+02  0.7546771E-02  0.1425427E+00
          2   -1    0    0  501    0  0.00000000000E+00  0.00000000000E+00  0.34885748603E+02  0.34885748603E+02  0.00000000000E+00 0. -1.
         -2   -1    0    0    0  501 -0.00000000000E+00 -0.00000000000E+00 -0.83041154737E+02  0.83041154737E+02  0.00000000000E+00 0.  1.
         23    2    1    2    0    0 -0.90452765412E+01 -0.58547166756E+01 -0.52780130272E+02  0.10620159702E+03  0.91525637513E+02 0.  0.
         13    1    3    3    0    0  0.26864998538E+02 -0.14215379644E+02  0.11171736099E+02  0.32382292265E+02  0.00000000000E+00 0. -1.
        -13    1    3    3    0    0 -0.35910275079E+02  0.83606629679E+01 -0.63951866371E+02  0.73819304751E+02  0.00000000000E+00 0.  1.
         22    1    1    2    0    0  0.90452765412E+01  0.58547166756E+01  0.46247241380E+01  0.11725306325E+02  0.00000000000E+00 0. -1.
<mgrwt>
<rscale>  0 0.53889009E+02</rscale>
<asrwt>0</asrwt>
<pdfrwt beam="1">  1        2 0.53670383E-02 0.92157675E+02</pdfrwt>
<pdfrwt beam="2">  1       -2 0.12775562E-01 0.92157675E+02</pdfrwt>
<totfact> 0.54803996E+04</totfact>
</mgrwt>
</event>
<event>
 6    1  0.1828142E-002  0.1022729E+03  0.7546771E-02  0.1320031E+00
         -2   -1    0    0    0  501 -0.00000000000E+00  0.00000000000E+00  0.52314275852E+02  0.52314275852E+02  0.00000000000E+00 0. -1.
          2   -1    0    0  501    0  0.00000000000E+00 -0.00000000000E+00 -0.12942417932E+03  0.12942417932E+03  0.00000000000E+00 0.  1.
         23    2    1    2    0    0 -0.38461900021E+02  0.23233950117E+02 -0.12492505413E+02  0.10303304035E+03  0.91872795324E+02 0.  0.
         11    1    3    3    0    0  0.12284049089E+02 -0.23259286603E+02  0.13373984034E+02  0.29508570353E+02  0.00000000000E+00 0. -1.
        -11    1    3    3    0    0 -0.50745949111E+02  0.46493236720E+02 -0.25866489447E+02  0.73524469996E+02  0.00000000000E+00 0.  1.
         22    1    1    2    0    0  0.38461900021E+02 -0.23233950117E+02 -0.64617398055E+02  0.78705414824E+02  0.00000000000E+00 0. -1.
<mgrwt>
<rscale>  0 0.83265684E+02</rscale>
<asrwt>0</asrwt>
<pdfrwt beam="1">  1        2 0.19911412E-01 0.10227289E+03</pdfrwt>
<pdfrwt beam="2">  1       -2 0.80483503E-02 0.10227289E+03</pdfrwt>
<totfact> 0.23454627E+04</totfact>
</mgrwt>
</event>
<event>
 6    1  0.1828142E-002  0.1267137E+03  0.7546771E-02  0.1250489E+00
         -2   -1    0    0    0  501 -0.00000000000E+00  0.00000000000E+00  0.14053248843E+03  0.14053248843E+03  0.00000000000E+00 0.  1.
          2   -1    0    0  501    0  0.00000000000E+00 -0.00000000000E+00 -0.87725810206E+02  0.87725810206E+02  0.00000000000E+00 0. -1.
         23    2    1    2    0    0 -0.87241000472E+02 -0.10388198315E+02  0.59814758167E+02  0.14012192696E+03  0.91309595845E+02 0.  0.
         11    1    3    3    0    0  0.81839205609E+01 -0.26942442394E+02  0.23539316436E+02  0.36701105925E+02  0.00000000000E+00 0. -1.
        -11    1    3    3    0    0 -0.95424921033E+02  0.16554244079E+02  0.36275441731E+02  0.10342082104E+03  0.00000000000E+00 0.  1.
         22    1    1    2    0    0  0.87241000472E+02  0.10388198315E+02 -0.70080799428E+01  0.88136371675E+02  0.00000000000E+00 0. -1.
<mgrwt>
<rscale>  0 0.11562774E+03</rscale>
<asrwt>0</asrwt>
<pdfrwt beam="1">  1        2 0.13496279E-01 0.12671365E+03</pdfrwt>
<pdfrwt beam="2">  1       -2 0.21620383E-01 0.12671365E+03</pdfrwt>
<totfact> 0.76324864E+03</totfact>
</mgrwt>
</event>
<event>
 6    1  0.1828142E-002  0.9477137E+02  0.7546771E-02  0.1360283E+00
          2   -1    0    0  501    0  0.00000000000E+00  0.00000000000E+00  0.19519541279E+03  0.19519541279E+03  0.00000000000E+00 0. -1.
         -2   -1    0    0    0  501 -0.00000000000E+00 -0.00000000000E+00 -0.21712836084E+02  0.21712836084E+02  0.00000000000E+00 0.  1.
         23    2    1    2    0    0  0.24120467719E+02  0.14449433157E+02  0.97863621481E+02  0.13623105587E+03  0.90504304276E+02 0.  0.
         13    1    3    3    0    0  0.10707721430E+02  0.28189998400E+02 -0.58819998618E+01  0.30723431292E+02  0.00000000000E+00 0.  1.
        -13    1    3    3    0    0  0.13412746289E+02 -0.13740565243E+02  0.10374562134E+03  0.10550762458E+03  0.00000000000E+00 0. -1.
         22    1    1    2    0    0 -0.24120467719E+02 -0.14449433157E+02  0.75618955220E+02  0.80677192999E+02  0.00000000000E+00 0. -1.
<mgrwt>
<rscale>  0 0.69944135E+02</rscale>
<asrwt>0</asrwt>
<pdfrwt beam="1">  1        2 0.30030062E-01 0.94771368E+02</pdfrwt>
<pdfrwt beam="2">  1       -2 0.33404365E-02 0.94771368E+02</pdfrwt>
<totfact> 0.55104698E+04</totfact>
</mgrwt>
</event>
<event>
 6    1  0.1828142E-002  0.9434211E+02  0.7546771E-02  0.1358657E+00
         -3   -1    0    0    0  501 -0.00000000000E+00  0.00000000000E+00  0.20026106579E+03  0.20026106579E+03  0.00000000000E+00 0.  1.
          3   -1    0    0  501    0  0.00000000000E+00 -0.00000000000E+00 -0.28404095388E+02  0.28404095388E+02  0.00000000000E+00 0. -1.
         23    2    1    2    0    0  0.27051626269E+02 -0.11238224642E+02  0.17539630170E+03  0.19915897466E+03  0.89679130025E+02 0.  0.
         13    1    3    3    0    0 -0.20896744304E+02  0.26112975163E+02  0.57562364210E+02  0.66573171532E+02  0.00000000000E+00 0. -1.
        -13    1    3    3    0    0  0.47948370573E+02 -0.37351199805E+02  0.11783393749E+03  0.13258580313E+03  0.00000000000E+00 0.  1.
         22    1    1    2    0    0 -0.27051626269E+02  0.11238224642E+02 -0.35393312937E+01  0.29506186519E+02  0.00000000000E+00 0. -1.
<mgrwt>
<rscale>  0 0.70424001E+02</rscale>
<asrwt>0</asrwt>
<pdfrwt beam="1">  1        3 0.43698610E-02 0.94342114E+02</pdfrwt>
<pdfrwt beam="2">  1       -3 0.30809394E-01 0.94342114E+02</pdfrwt>
<totfact> 0.60640311E+03</totfact>
</mgrwt>
</event>
<event>
 6    1  0.1828142E-002  0.9750235E+02  0.7546771E-02  0.1349195E+00
         -2   -1    0    0    0  501 -0.00000000000E+00  0.00000000000E+00  0.10855366862E+03  0.10855366862E+03  0.00000000000E+00 0.  1.
          2   -1    0    0  501    0  0.00000000000E+00 -0.00000000000E+00 -0.92899601033E+02  0.92899601033E+02  0.00000000000E+00 0. -1.
         23    2    1    2    0    0 -0.21935748429E+02  0.22125030055E+02  0.82487767151E+02  0.12771428803E+03  0.92390549429E+02 0.  0.
         11    1    3    3    0    0 -0.17800650578E+02  0.40349582620E+02  0.95331576147E+02  0.10503838055E+03  0.00000000000E+00 0.  1.
        -11    1    3    3    0    0 -0.41350978509E+01 -0.18224552565E+02 -0.12843808996E+02  0.22675907478E+02  0.00000000000E+00 0. -1.
         22    1    1    2    0    0  0.21935748429E+02 -0.22125030055E+02 -0.66833699561E+02  0.73738981625E+02  0.00000000000E+00 0. -1.
<mgrwt>
<rscale>  0 0.73307194E+02</rscale>
<asrwt>0</asrwt>
<pdfrwt beam="1">  1        2 0.14292246E-01 0.97502347E+02</pdfrwt>
<pdfrwt beam="2">  1       -2 0.16700565E-01 0.97502347E+02</pdfrwt>
<totfact> 0.10745082E+04</totfact>
</mgrwt>
</event>
<event>
 6    1  0.1828142E-002  0.8589428E+02  0.7546771E-02  0.1439943E+00
          1   -1    0    0  501    0  0.00000000000E+00  0.00000000000E+00  0.83951277375E+02  0.83951277375E+02  0.00000000000E+00 0. -1.
         -1   -1    0    0    0  501 -0.00000000000E+00 -0.00000000000E+00 -0.36217389934E+02  0.36217389934E+02  0.00000000000E+00 0.  1.
         23    2    1    2    0    0  0.90661664233E+01  0.56601782648E+01  0.16908165470E+02  0.87542632817E+02  0.85226718283E+02 0.  0.
         11    1    3    3    0    0  0.35349964003E+02  0.27489552065E+02 -0.76984751974E+01  0.45437450943E+02  0.00000000000E+00 0.  1.
        -11    1    3    3    0    0 -0.26283797580E+02 -0.21829373800E+02  0.24606640667E+02  0.42105181874E+02  0.00000000000E+00 0. -1.
         22    1    1    2    0    0 -0.90661664233E+01 -0.56601782648E+01  0.30825721971E+02  0.32626034492E+02  0.00000000000E+00 0. -1.
<mgrwt>
<rscale>  0 0.51014908E+02</rscale>
<asrwt>0</asrwt>
<pdfrwt beam="1">  1        1 0.12915581E-01 0.85894275E+02</pdfrwt>
<pdfrwt beam="2">  1       -1 0.55719062E-02 0.85894275E+02</pdfrwt>
<totfact> 0.57753800E+04</totfact>
</mgrwt>
</event>
<event>
 6    1  0.1828142E-002  0.9448729E+02  0.7546771E-02  0.1371040E+00
          2   -1    0    0  501    0  0.00000000000E+00  0.00000000000E+00  0.21022731268E+03  0.21022731268E+03  0.00000000000E+00 0. -1.
         -2   -1    0    0    0  501 -0.00000000000E+00 -0.00000000000E+00 -0.18693675659E+02  0.18693675659E+02  0.00000000000E+00 0.  1.
         23    2    1    2    0    0 -0.23153313201E+02 -0.51334683148E+01  0.11522598049E+03  0.14901299841E+03  0.91462662909E+02 0.  0.
         11    1    3    3    0    0  0.11178463553E+02  0.18200167517E+02 -0.49027882203E+01  0.21914412549E+02  0.00000000000E+00 0.  1.
        -11    1    3    3    0    0 -0.34331776754E+02 -0.23333635831E+02  0.12012876871E+03  0.12709858586E+03  0.00000000000E+00 0. -1.
         22    1    1    2    0    0  0.23153313201E+02  0.51334683148E+01  0.76307656529E+02  0.79907989926E+02  0.00000000000E+00 0. -1.
<mgrwt>
<rscale>  0 0.66878794E+02</rscale>
<asrwt>0</asrwt>
<pdfrwt beam="1">  1        2 0.32342662E-01 0.94487285E+02</pdfrwt>
<pdfrwt beam="2">  1       -2 0.28759502E-02 0.94487285E+02</pdfrwt>
<totfact> 0.63297790E+04</totfact>
</mgrwt>
</event>
<event>
 6    1  0.1828142E-002  0.8995538E+02  0.7546771E-02  0.1413275E+00
          2   -1    0    0  501    0  0.00000000000E+00  0.00000000000E+00  0.28166536576E+03  0.28166536576E+03  0.00000000000E+00 0.  1.
         -2   -1    0    0    0  501 -0.00000000000E+00 -0.00000000000E+00 -0.10050876060E+02  0.10050876060E+02  0.00000000000E+00 0. -1.
         23    2    1    2    0    0 -0.11353161041E+01  0.13922902775E+02  0.20855539940E+03  0.22712843311E+03  0.88864134182E+02 0.  0.
         11    1    3    3    0    0 -0.40362638279E+02  0.26015870710E+02  0.96428994144E+02  0.10772427307E+03  0.00000000000E+00 0. -1.
        -11    1    3    3    0    0  0.39227322175E+02 -0.12092967934E+02  0.11212640525E+03  0.11940416003E+03  0.00000000000E+00 0.  1.
         22    1    1    2    0    0  0.11353161041E+01 -0.13922902775E+02  0.63059090297E+02  0.64587808706E+02  0.00000000000E+00 0.  1.
<mgrwt>
<rscale>  0 0.56469323E+02</rscale>
<asrwt>0</asrwt>
<pdfrwt beam="1">  1        2 0.43333127E-01 0.89955381E+02</pdfrwt>
<pdfrwt beam="2">  1       -2 0.15462888E-02 0.89955381E+02</pdfrwt>
<totfact> 0.11280272E+05</totfact>
</mgrwt>
</event>
<event>
 6    1  0.1828142E-002  0.9804275E+02  0.7546771E-02  0.1343359E+00
         -3   -1    0    0    0  501 -0.00000000000E+00  0.00000000000E+00  0.66446698942E+02  0.66446698942E+02  0.00000000000E+00 0.  1.
          3   -1    0    0  501    0  0.00000000000E+00 -0.00000000000E+00 -0.67809128479E+02  0.67809128479E+02  0.00000000000E+00 0. -1.
         23    2    1    2    0    0 -0.30731655762E+02 -0.14241336925E+02  0.99481753127E+01  0.98546163109E+02  0.92006139622E+02 0.  0.
         11    1    3    3    0    0 -0.17319763744E+02 -0.22408595840E+02  0.48921565210E+02  0.56528213542E+02  0.00000000000E+00 0.  1.
        -11    1    3    3    0    0 -0.13411892018E+02  0.81672589155E+01 -0.38973389897E+02  0.42017949567E+02  0.00000000000E+00 0. -1.
         22    1    1    2    0    0  0.30731655762E+02  0.14241336925E+02 -0.11310604850E+02  0.35709664313E+02  0.00000000000E+00 0. -1.
<mgrwt>
<rscale>  0 0.75165556E+02</rscale>
<asrwt>0</asrwt>
<pdfrwt beam="1">  1        3 0.10432174E-01 0.98042746E+02</pdfrwt>
<pdfrwt beam="2">  1       -3 0.10222569E-01 0.98042746E+02</pdfrwt>
<totfact> 0.10273830E+04</totfact>
</mgrwt>
</event>
<event>
 6    1  0.1828142E-002  0.9463300E+02  0.7546771E-02  0.1412505E+00
          2   -1    0    0  501    0  0.00000000000E+00  0.00000000000E+00  0.50752421419E+02  0.50752421419E+02  0.00000000000E+00 0.  1.
         -2   -1    0    0    0  501 -0.00000000000E+00 -0.00000000000E+00 -0.94548787090E+02  0.94548787090E+02  0.00000000000E+00 0. -1.
         23    2    1    2    0    0  0.77074307368E+01 -0.93833437554E+01 -0.69139398679E+02  0.11719923437E+03  0.93850692368E+02 0.  0.
         11    1    3    3    0    0 -0.32453931117E+02  0.18064789733E+02 -0.55314297125E+02  0.66627815058E+02  0.00000000000E+00 0. -1.
        -11    1    3    3    0    0  0.40161361854E+02 -0.27448133488E+02 -0.13825101555E+02  0.50571419309E+02  0.00000000000E+00 0.  1.
         22    1    1    2    0    0 -0.77074307368E+01  0.93833437554E+01  0.25343033008E+02  0.28101974142E+02  0.00000000000E+00 0. -1.
<mgrwt>
<rscale>  0 0.56638682E+02</rscale>
<asrwt>0</asrwt>
<pdfrwt beam="1">  1        2 0.78080649E-02 0.94632997E+02</pdfrwt>
<pdfrwt beam="2">  1       -2 0.14545967E-01 0.94632997E+02</pdfrwt>
<totfact> 0.27804376E+04</totfact>
</mgrwt>
</event>
<event>
 6    1  0.1828142E-002  0.1032020E+03  0.7546771E-02  0.1360563E+00
          2   -1    0    0  501    0  0.00000000000E+00  0.00000000000E+00  0.38409786329E+02  0.38409786329E+02  0.00000000000E+00 0. -1.
         -2   -1    0    0    0  501 -0.00000000000E+00 -0.00000000000E+00 -0.11107534204E+03  0.11107534204E+03  0.00000000000E+00 0.  1.
         23    2    1    2    0    0 -0.56895186191E+01 -0.20911862714E+02 -0.75159725595E+02  0.12767005313E+03  0.10090084980E+03 0.  0.
         13    1    3    3    0    0  0.29819853784E+01  0.18237450616E+01  0.24670584115E+02  0.24916982229E+02  0.00000000000E+00 0. -1.
        -13    1    3    3    0    0 -0.86715039975E+01 -0.22735607776E+02 -0.99830309709E+02  0.10275307090E+03  0.00000000000E+00 0.  1.
         22    1    1    2    0    0  0.56895186191E+01  0.20911862714E+02  0.24941698858E+01  0.21815075240E+02  0.00000000000E+00 0. -1.
<mgrwt>
<rscale>  0 0.69862003E+02</rscale>
<asrwt>0</asrwt>
<pdfrwt beam="1">  1        2 0.59091980E-02 0.10320203E+03</pdfrwt>
<pdfrwt beam="2">  1       -2 0.17088514E-01 0.10320203E+03</pdfrwt>
<totfact> 0.30721319E+04</totfact>
</mgrwt>
</event>
<event>
 6    1  0.1828142E-002  0.9199656E+02  0.7546771E-02  0.1401329E+00
          1   -1    0    0  501    0  0.00000000000E+00  0.00000000000E+00  0.31288659885E+01  0.31288659885E+01  0.00000000000E+00 0. -1.
         -1   -1    0    0    0  501 -0.00000000000E+00 -0.00000000000E+00 -0.16802667973E+04  0.16802667973E+04  0.00000000000E+00 0.  1.
         23    2    1    2    0    0  0.81007293523E+01  0.13504504639E+02 -0.16453587929E+04  0.16479286772E+04  0.90638702652E+02 0.  0.
         11    1    3    3    0    0 -0.10256088575E+02  0.49747859070E+02 -0.10044851800E+04  0.10057686184E+04  0.00000000000E+00 0.  1.
        -11    1    3    3    0    0  0.18356817927E+02 -0.36243354431E+02 -0.64087361285E+03  0.64216005882E+03  0.00000000000E+00 0. -1.
         22    1    1    2    0    0 -0.81007293523E+01 -0.13504504639E+02 -0.31779138418E+02  0.35466986061E+02  0.00000000000E+00 0. -1.
<mgrwt>
<rscale>  0 0.59174383E+02</rscale>
<asrwt>0</asrwt>
<pdfrwt beam="1">  1        1 0.48136254E-03 0.91996565E+02</pdfrwt>
<pdfrwt beam="2">  1       -1 0.25850337E+00 0.91996565E+02</pdfrwt>
<totfact> 0.30189794E+03</totfact>
</mgrwt>
</event>
<event>
 6    1  0.1828142E-002  0.9407977E+02  0.7546771E-02  0.1373559E+00
         -2   -1    0    0    0  501 -0.00000000000E+00  0.00000000000E+00  0.12804429987E+03  0.12804429987E+03  0.00000000000E+00 0.  1.
          2   -1    0    0  501    0  0.00000000000E+00 -0.00000000000E+00 -0.40344741220E+02  0.40344741220E+02  0.00000000000E+00 0. -1.
         23    2    1    2    0    0 -0.15673808749E+02  0.16896826161E+02  0.10394004489E+03  0.14019463724E+03  0.91213115088E+02 0.  0.
         13    1    3    3    0    0 -0.17265237505E+02  0.49506485304E+02  0.32601399932E+02  0.61740033939E+02  0.00000000000E+00 0. -1.
        -13    1    3    3    0    0  0.15914287561E+01 -0.32609659142E+02  0.71338644954E+02  0.78454603298E+02  0.00000000000E+00 0.  1.
         22    1    1    2    0    0  0.15673808749E+02 -0.16896826161E+02 -0.16240486240E+02  0.28194403848E+02  0.00000000000E+00 0. -1.
<mgrwt>
<rscale>  0 0.66187578E+02</rscale>
<asrwt>0</asrwt>
<pdfrwt beam="1">  1        2 0.62068833E-02 0.94079771E+02</pdfrwt>
<pdfrwt beam="2">  1       -2 0.19699123E-01 0.94079771E+02</pdfrwt>
<totfact> 0.22531352E+04</totfact>
</mgrwt>
</event>
<event>
 6    1  0.1828142E-002  0.9397447E+02  0.7546771E-02  0.1412069E+00
         -2   -1    0    0    0  501 -0.00000000000E+00  0.00000000000E+00  0.49760502146E+01  0.49760502146E+01  0.00000000000E+00 0.  1.
          2   -1    0    0  501    0  0.00000000000E+00 -0.00000000000E+00 -0.56941948844E+03  0.56941948844E+03  0.00000000000E+00 0. -1.
         23    2    1    2    0    0 -0.11348185890E+02  0.52037268356E+01 -0.49927247684E+03  0.50803957206E+03  0.93141508169E+02 0.  0.
         13    1    3    3    0    0 -0.41231804903E+02 -0.15075114426E+02 -0.40000197850E+03  0.40240390606E+03  0.00000000000E+00 0. -1.
        -13    1    3    3    0    0  0.29883619013E+02  0.20278841261E+02 -0.99270498344E+02  0.10563566599E+03  0.00000000000E+00 0.  1.
         22    1    1    2    0    0  0.11348185890E+02 -0.52037268356E+01 -0.65170961382E+02  0.66355966600E+02  0.00000000000E+00 0.  1.
<mgrwt>
<rscale>  0 0.56734767E+02</rscale>
<asrwt>0</asrwt>
<pdfrwt beam="1">  1        2 0.87602981E-01 0.93974468E+02</pdfrwt>
<pdfrwt beam="2">  1       -2 0.76554634E-03 0.93974468E+02</pdfrwt>
<totfact> 0.14578221E+05</totfact>
</mgrwt>
</event>
<event>
 6    1  0.1828142E-002  0.9361725E+02  0.7546771E-02  0.1421265E+00
         -3   -1    0    0    0  501 -0.00000000000E+00  0.00000000000E+00  0.16541229781E+02  0.16541229781E+02  0.00000000000E+00 0.  1.
          3   -1    0    0  501    0  0.00000000000E+00 -0.00000000000E+00 -0.17047400757E+03  0.17047400757E+03  0.00000000000E+00 0. -1.
         23    2    1    2    0    0 -0.10516070681E+02 -0.30690537797E+01 -0.12569693960E+03  0.15672878176E+03  0.92974101638E+02 0.  0.
         13    1    3    3    0    0 -0.39194188606E+02 -0.71219686766E+01 -0.15427383865E+02  0.42718977413E+02  0.00000000000E+00 0.  1.
        -13    1    3    3    0    0  0.28678117925E+02  0.40529148968E+01 -0.11026955573E+03  0.11400980435E+03  0.00000000000E+00 0. -1.
         22    1    1    2    0    0  0.10516070681E+02  0.30690537797E+01 -0.28235838189E+02  0.30286455585E+02  0.00000000000E+00 0.  1.
<mgrwt>
<rscale>  0 0.54754230E+02</rscale>
<asrwt>0</asrwt>
<pdfrwt beam="1">  1        3 0.26226771E-01 0.93617255E+02</pdfrwt>
<pdfrwt beam="2">  1       -3 0.25448045E-02 0.93617255E+02</pdfrwt>
<totfact> 0.18658715E+04</totfact>
</mgrwt>
</event>
<event>
 6    1  0.1828142E-002  0.9366836E+02  0.7546771E-02  0.1376496E+00
         -2   -1    0    0    0  501 -0.00000000000E+00  0.00000000000E+00  0.12938541181E+02  0.12938541181E+02  0.00000000000E+00 0. -1.
          2   -1    0    0  501    0  0.00000000000E+00 -0.00000000000E+00 -0.26583483060E+03  0.26583483060E+03  0.00000000000E+00 0.  1.
         23    2    1    2    0    0 -0.90891440752E+01  0.20311158206E+02 -0.18565883416E+03  0.20794942754E+03  0.90986845346E+02 0.  0.
         11    1    3    3    0    0 -0.15389399348E+02  0.53219567751E+02 -0.14524876002E+03  0.15545532571E+03  0.00000000000E+00 0.  1.
        -11    1    3    3    0    0  0.63002552730E+01 -0.32908409545E+02 -0.40410074137E+02  0.52494101832E+02  0.00000000000E+00 0. -1.
         22    1    1    2    0    0  0.90891440752E+01 -0.20311158206E+02 -0.67237455268E+02  0.70823944246E+02  0.00000000000E+00 0.  1.
<mgrwt>
<rscale>  0 0.65393926E+02</rscale>
<asrwt>0</asrwt>
<pdfrwt beam="1">  1        2 0.40897666E-01 0.93668360E+02</pdfrwt>
<pdfrwt beam="2">  1       -2 0.19905448E-02 0.93668360E+02</pdfrwt>
<totfact> 0.83976388E+04</totfact>
</mgrwt>
</event>
<event>
 6    1  0.1828142E-002  0.9560131E+02  0.7546771E-02  0.1385311E+00
         -2   -1    0    0    0  501 -0.00000000000E+00  0.00000000000E+00  0.99269333967E+02  0.99269333967E+02  0.00000000000E+00 0.  1.
          2   -1    0    0  501    0  0.00000000000E+00 -0.00000000000E+00 -0.60628280714E+02  0.60628280714E+02  0.00000000000E+00 0. -1.
         23    2    1    2    0    0 -0.13290659392E+02  0.12330985142E+02  0.73510848832E+02  0.12059624746E+03  0.93866475293E+02 0.  0.
         11    1    3    3    0    0  0.13501821679E+02 -0.13682109648E+02 -0.15096126137E+02  0.24441610778E+02  0.00000000000E+00 0. -1.
        -11    1    3    3    0    0 -0.26792481071E+02  0.26013094790E+02  0.88606974969E+02  0.96154636683E+02  0.00000000000E+00 0.  1.
         22    1    1    2    0    0  0.13290659392E+02 -0.12330985142E+02 -0.34869795579E+02  0.39301367220E+02  0.00000000000E+00 0. -1.
<mgrwt>
<rscale>  0 0.63088032E+02</rscale>
<asrwt>0</asrwt>
<pdfrwt beam="1">  1        2 0.93274278E-02 0.95601308E+02</pdfrwt>
<pdfrwt beam="2">  1       -2 0.15272205E-01 0.95601308E+02</pdfrwt>
<totfact> 0.20659298E+04</totfact>
</mgrwt>
</event>
<event>
 6    1  0.1828142E-002  0.1309386E+03  0.7546771E-02  0.1243957E+00
         -2   -1    0    0    0  501 -0.00000000000E+00  0.00000000000E+00  0.76856546640E+03  0.76856546640E+03  0.00000000000E+00 0.  1.
          2   -1    0    0  501    0  0.00000000000E+00 -0.00000000000E+00 -0.33040334188E+02  0.33040334188E+02  0.00000000000E+00 0. -1.
         23    2    1    2    0    0  0.19449178248E+02 -0.88670716753E+02  0.68562523245E+03  0.69801638733E+03  0.94361809342E+02 0.  0.
         13    1    3    3    0    0  0.46772176565E+02 -0.89570379277E+02  0.47533485008E+03  0.48595648884E+03  0.00000000000E+00 0. -1.
        -13    1    3    3    0    0 -0.27322998317E+02  0.89966252449E+00  0.21029038237E+03  0.21205989849E+03  0.00000000000E+00 0.  1.
         22    1    1    2    0    0 -0.19449178248E+02  0.88670716753E+02  0.49899899769E+02  0.10358941327E+03  0.00000000000E+00 0.  1.
<mgrwt>
<rscale>  0 0.11948042E+03</rscale>
<asrwt>0</asrwt>
<pdfrwt beam="1">  1        2 0.50831289E-02 0.13093860E+03</pdfrwt>
<pdfrwt beam="2">  1       -2 0.11824083E+00 0.13093860E+03</pdfrwt>
<totfact> 0.85973237E+02</totfact>
</mgrwt>
</event>
<event>
 6    1  0.1828142E-002  0.9912459E+02  0.7546771E-02  0.1335355E+00
          2   -1    0    0  501    0  0.00000000000E+00  0.00000000000E+00  0.13280505410E+04  0.13280505410E+04  0.00000000000E+00 0. -1.
         -2   -1    0    0    0  501 -0.00000000000E+00 -0.00000000000E+00 -0.40690403723E+01  0.40690403723E+01  0.00000000000E+00 0.  1.
         23    2    1    2    0    0 -0.80668648571E+01 -0.36780456400E+02  0.11413712227E+04  0.11456674698E+04  0.91694095860E+02 0.  0.
         13    1    3    3    0    0 -0.29433654745E+02  0.31890250777E+01  0.87257439890E+03  0.87307650955E+03  0.00000000000E+00 0. -1.
        -13    1    3    3    0    0  0.21366789887E+02 -0.39969481478E+02  0.26879682376E+03  0.27259096027E+03  0.00000000000E+00 0.  1.
         22    1    1    2    0    0  0.80668648571E+01  0.36780456400E+02  0.18261027801E+03  0.18645211159E+03  0.00000000000E+00 0. -1.
<mgrwt>
<rscale>  0 0.77819929E+02</rscale>
<asrwt>0</asrwt>
<pdfrwt beam="1">  1        2 0.20431512E+00 0.99124586E+02</pdfrwt>
<pdfrwt beam="2">  1       -2 0.62600727E-03 0.99124586E+02</pdfrwt>
<totfact> 0.64952195E+04</totfact>
</mgrwt>
</event>
<event>
 6    1  0.1828142E-002  0.9214734E+02  0.7546771E-02  0.1401024E+00
          2   -1    0    0  501    0  0.00000000000E+00  0.00000000000E+00  0.25904769324E+03  0.25904769324E+03  0.00000000000E+00 0. -1.
         -2   -1    0    0    0  501 -0.00000000000E+00 -0.00000000000E+00 -0.11682272097E+02  0.11682272097E+02  0.00000000000E+00 0.  1.
         23    2    1    2    0    0 -0.15466216649E+02 -0.29578016880E+01  0.18883676649E+03  0.21012009928E+03  0.90791956107E+02 0.  0.
         13    1    3    3    0    0 -0.53242202968E+02  0.50653358484E+01  0.10636073626E+03  0.11905039279E+03  0.00000000000E+00 0. -1.
        -13    1    3    3    0    0  0.37775986320E+02 -0.80231375363E+01  0.82476030229E+02  0.91069706493E+02  0.00000000000E+00 0.  1.
         22    1    1    2    0    0  0.15466216649E+02  0.29578016880E+01  0.58528654646E+02  0.60609866053E+02  0.00000000000E+00 0.  1.
<mgrwt>
<rscale>  0 0.59245878E+02</rscale>
<asrwt>0</asrwt>
<pdfrwt beam="1">  1        2 0.39853487E-01 0.92147337E+02</pdfrwt>
<pdfrwt beam="2">  1       -2 0.17972728E-02 0.92147337E+02</pdfrwt>
<totfact> 0.99667269E+04</totfact>
</mgrwt>
</event>
<event>
 6    1  0.1828142E-002  0.9331223E+02  0.7546771E-02  0.1390594E+00
         -2   -1    0    0    0  501 -0.00000000000E+00  0.00000000000E+00  0.68199888243E+02  0.68199888243E+02  0.00000000000E+00 0.  1.
          2   -1    0    0  501    0  0.00000000000E+00 -0.00000000000E+00 -0.45848780139E+02  0.45848780139E+02  0.00000000000E+00 0. -1.
         23    2    1    2    0    0 -0.17885795655E+02  0.84386573469E+00  0.14243894754E+02  0.94393116904E+02  0.91578153429E+02 0.  0.
         13    1    3    3    0    0 -0.27769407597E+02  0.33850981202E+02 -0.17872246705E+02  0.47291078745E+02  0.00000000000E+00 0. -1.
        -13    1    3    3    0    0  0.98836119411E+01 -0.33007115467E+02  0.32116141459E+02  0.47102038159E+02  0.00000000000E+00 0.  1.
         22    1    1    2    0    0  0.17885795655E+02 -0.84386573469E+00  0.81072133497E+01  0.19655551478E+02  0.00000000000E+00 0.  1.
<mgrwt>
<rscale>  0 0.61759205E+02</rscale>
<asrwt>0</asrwt>
<pdfrwt beam="1">  1        2 0.70536585E-02 0.93312228E+02</pdfrwt>
<pdfrwt beam="2">  1       -2 0.10492290E-01 0.93312228E+02</pdfrwt>
<totfact> 0.52923367E+04</totfact>
</mgrwt>
</event>
<event>
 6    1  0.1828142E-002  0.9820318E+02  0.7546771E-02  0.1351587E+00
          3   -1    0    0  501    0  0.00000000000E+00  0.00000000000E+00  0.10084889423E+02  0.10084889423E+02  0.00000000000E+00 0. -1.
         -3   -1    0    0    0  501 -0.00000000000E+00 -0.00000000000E+00 -0.58167470494E+03  0.58167470494E+03  0.00000000000E+00 0.  1.
         23    2    1    2    0    0 -0.14012360630E+02  0.25703352093E+02 -0.53932692128E+03  0.54819466691E+03  0.93738232621E+02 0.  0.
         13    1    3    3    0    0 -0.18960750618E+02  0.13826777576E+02 -0.27273499726E+02  0.35979627978E+02  0.00000000000E+00 0. -1.
        -13    1    3    3    0    0  0.49483899885E+01  0.11876574518E+02 -0.51205342155E+03  0.51221503893E+03  0.00000000000E+00 0.  1.
         22    1    1    2    0    0  0.14012360630E+02 -0.25703352093E+02 -0.32262894239E+02  0.43564927452E+02  0.00000000000E+00 0.  1.
<mgrwt>
<rscale>  0 0.72563348E+02</rscale>
<asrwt>0</asrwt>
<pdfrwt beam="1">  1        3 0.15515210E-02 0.98203181E+02</pdfrwt>
<pdfrwt beam="2">  1       -3 0.89488444E-01 0.98203181E+02</pdfrwt>
<totfact> 0.35049309E+03</totfact>
</mgrwt>
</event>
<event>
 6    1  0.1828142E-002  0.9310345E+02  0.7546771E-02  0.1417394E+00
          2   -1    0    0  501    0  0.00000000000E+00  0.00000000000E+00  0.16944324485E+03  0.16944324485E+03  0.00000000000E+00 0. -1.
         -2   -1    0    0    0  501 -0.00000000000E+00 -0.00000000000E+00 -0.16415902627E+02  0.16415902627E+02  0.00000000000E+00 0.  1.
         23    2    1    2    0    0 -0.61911745257E+01 -0.10070110306E+02  0.12908692744E+03  0.15915931183E+03  0.92349953671E+02 0.  0.
         11    1    3    3    0    0 -0.40278219198E+02  0.17325359707E+02  0.91625902807E+02  0.10157661688E+03  0.00000000000E+00 0. -1.
        -11    1    3    3    0    0  0.34087044672E+02 -0.27395470013E+02  0.37461024631E+02  0.57582694954E+02  0.00000000000E+00 0.  1.
         22    1    1    2    0    0  0.61911745257E+01  0.10070110306E+02  0.23940414789E+02  0.26699835652E+02  0.00000000000E+00 0. -1.
<mgrwt>
<rscale>  0 0.55576161E+02</rscale>
<asrwt>0</asrwt>
<pdfrwt beam="1">  1        2 0.26068190E-01 0.93103446E+02</pdfrwt>
<pdfrwt beam="2">  1       -2 0.25255236E-02 0.93103446E+02</pdfrwt>
<totfact> 0.96135439E+04</totfact>
</mgrwt>
</event>
<event>
 6    1  0.1828142E-002  0.9061142E+02  0.7546771E-02  0.1424450E+00
          2   -1    0    0  501    0  0.00000000000E+00  0.00000000000E+00  0.35878246238E+03  0.35878246238E+03  0.00000000000E+00 0.  1.
         -2   -1    0    0    0  501 -0.00000000000E+00 -0.00000000000E+00 -0.72665501069E+01  0.72665501069E+01  0.00000000000E+00 0. -1.
         23    2    1    2    0    0 -0.79188529267E+01 -0.83478468628E+01  0.31117263339E+03  0.32409695735E+03  0.89877890583E+02 0.  0.
         13    1    3    3    0    0 -0.18469663258E+02 -0.42645956508E+02  0.23922157784E+03  0.24369400766E+03  0.00000000000E+00 0. -1.
        -13    1    3    3    0    0  0.10550810331E+02  0.34298109645E+02  0.71951055548E+02  0.80402949686E+02  0.00000000000E+00 0.  1.
         22    1    1    2    0    0  0.79188529267E+01  0.83478468628E+01  0.40343278885E+02  0.41952055136E+02  0.00000000000E+00 0.  1.
<mgrwt>
<rscale>  0 0.54090509E+02</rscale>
<asrwt>0</asrwt>
<pdfrwt beam="1">  1        2 0.55197288E-01 0.90611423E+02</pdfrwt>
<pdfrwt beam="2">  1       -2 0.11179311E-02 0.90611423E+02</pdfrwt>
<totfact> 0.13910499E+05</totfact>
</mgrwt>
</event>
<event>
 6    1  0.1828142E-002  0.9237795E+02  0.7546771E-02  0.1411540E+00
          2   -1    0    0  501    0  0.00000000000E+00  0.00000000000E+00  0.44347784647E+02  0.44347784647E+02  0.00000000000E+00 0. -1.
         -2   -1    0    0    0  501 -0.00000000000E+00 -0.00000000000E+00 -0.65789387357E+02  0.65789387357E+02  0.00000000000E+00 0.  1.
         23    2    1    2    0    0 -0.15718590931E+01  0.13157887785E+02 -0.26258411367E+02  0.96037441596E+02  0.91422564330E+02 0.  0.
         13    1    3    3    0    0 -0.40988550565E+02  0.22617310302E+02 -0.29562133595E+02  0.55367172091E+02  0.00000000000E+00 0.  1.
        -13    1    3    3    0    0  0.39416691472E+02 -0.94594225168E+01  0.33037222275E+01  0.40670269504E+02  0.00000000000E+00 0. -1.
         22    1    1    2    0    0  0.15718590931E+01 -0.13157887785E+02  0.48168086568E+01  0.14099730409E+02  0.00000000000E+00 0. -1.
<mgrwt>
<rscale>  0 0.56851515E+02</rscale>
<asrwt>0</asrwt>
<pdfrwt beam="1">  1        2 0.68227361E-02 0.92377952E+02</pdfrwt>
<pdfrwt beam="2">  1       -2 0.10121444E-01 0.92377952E+02</pdfrwt>
<totfact> 0.58288589E+04</totfact>
</mgrwt>
</event>
<event>
 6    1  0.1828142E-002  0.7154593E+02  0.7546771E-02  0.1442114E+00
         -1   -1    0    0    0  501 -0.00000000000E+00  0.00000000000E+00  0.12874182015E+02  0.12874182015E+02  0.00000000000E+00 0.  1.
          1   -1    0    0  501    0  0.00000000000E+00 -0.00000000000E+00 -0.15555423680E+03  0.15555423680E+03  0.00000000000E+00 0. -1.
         23    2    1    2    0    0  0.29830764440E+01 -0.17654229458E+02 -0.11179288787E+03  0.13272705129E+03  0.69269400199E+02 0.  0.
         13    1    3    3    0    0  0.19760496641E+02  0.11026937081E+02 -0.90444017578E+02  0.93231919880E+02  0.00000000000E+00 0. -1.
        -13    1    3    3    0    0 -0.16777420197E+02 -0.28681166539E+02 -0.21348870288E+02  0.39495131410E+02  0.00000000000E+00 0.  1.
         22    1    1    2    0    0 -0.29830764440E+01  0.17654229458E+02 -0.30887166922E+02  0.35701367527E+02  0.00000000000E+00 0. -1.
<mgrwt>
<rscale>  0 0.50603338E+02</rscale>
<asrwt>0</asrwt>
<pdfrwt beam="1">  1        1 0.23931421E-01 0.71545932E+02</pdfrwt>
<pdfrwt beam="2">  1       -1 0.19806434E-02 0.71545932E+02</pdfrwt>
<totfact> 0.11428827E+05</totfact>
</mgrwt>
</event>
<event>
 6    1  0.1828142E-002  0.9145155E+02  0.7546771E-02  0.1430281E+00
         -2   -1    0    0    0  501 -0.00000000000E+00  0.00000000000E+00  0.18848150829E+03  0.18848150829E+03  0.00000000000E+00 0.  1.
          2   -1    0    0  501    0  0.00000000000E+00 -0.00000000000E+00 -0.13798176958E+02  0.13798176958E+02  0.00000000000E+00 0. -1.
         23    2    1    2    0    0 -0.30669727176E+01  0.97717029648E+01  0.15198308397E+03  0.17737599615E+03  0.90876254854E+02 0.  0.
         11    1    3    3    0    0 -0.40438463467E+02 -0.25738072079E+01  0.33654917413E+02  0.52673971534E+02  0.00000000000E+00 0. -1.
        -11    1    3    3    0    0  0.37371490749E+02  0.12345510173E+02  0.11832816656E+03  0.12470202462E+03  0.00000000000E+00 0.  1.
         22    1    1    2    0    0  0.30669727176E+01 -0.97717029648E+01  0.22700247363E+02  0.24903689101E+02  0.00000000000E+00 0.  1.
<mgrwt>
<rscale>  0 0.52903738E+02</rscale>
<asrwt>0</asrwt>
<pdfrwt beam="1">  1        2 0.21227966E-02 0.91451551E+02</pdfrwt>
<pdfrwt beam="2">  1       -2 0.28997153E-01 0.91451551E+02</pdfrwt>
<totfact> 0.47233141E+04</totfact>
</mgrwt>
</event>
<event>
 6    1  0.1828142E-002  0.1118155E+03  0.7546771E-02  0.1288100E+00
         -2   -1    0    0    0  501 -0.00000000000E+00  0.00000000000E+00  0.11683818160E+02  0.11683818160E+02  0.00000000000E+00 0. -1.
          2   -1    0    0  501    0  0.00000000000E+00 -0.00000000000E+00 -0.67527955199E+03  0.67527955199E+03  0.00000000000E+00 0.  1.
         23    2    1    2    0    0  0.54888557087E+02 -0.28224046363E+02 -0.35268451666E+03  0.36998523927E+03  0.93238181536E+02 0.  0.
         13    1    3    3    0    0 -0.12710120602E+01 -0.51126303591E+02 -0.16513053789E+03  0.17286876217E+03  0.00000000000E+00 0.  1.
        -13    1    3    3    0    0  0.56159569148E+02  0.22902257228E+02 -0.18755397877E+03  0.19711647710E+03  0.00000000000E+00 0. -1.
         22    1    1    2    0    0 -0.54888557087E+02  0.28224046363E+02 -0.31091121717E+03  0.31697813088E+03  0.00000000000E+00 0. -1.
<mgrwt>
<rscale>  0 0.96379110E+02</rscale>
<asrwt>0</asrwt>
<pdfrwt beam="1">  1        2 0.10388920E+00 0.11181551E+03</pdfrwt>
<pdfrwt beam="2">  1       -2 0.17975099E-02 0.11181551E+03</pdfrwt>
<totfact> 0.36404420E+04</totfact>
</mgrwt>
</event>
<event>
 6    1  0.1828142E-002  0.9432977E+02  0.7546771E-02  0.1373892E+00
         -2   -1    0    0    0  501 -0.00000000000E+00  0.00000000000E+00  0.53102218113E+03  0.53102218113E+03  0.00000000000E+00 0.  1.
          2   -1    0    0  501    0  0.00000000000E+00 -0.00000000000E+00 -0.10495983289E+02  0.10495983289E+02  0.00000000000E+00 0. -1.
         23    2    1    2    0    0 -0.15089394527E+02  0.17011673435E+02  0.50558428990E+03  0.51430883747E+03  0.91547906792E+02 0.  0.
         13    1    3    3    0    0  0.23412329734E+02  0.16184998501E+02  0.53611054574E+02  0.60697912094E+02  0.00000000000E+00 0. -1.
        -13    1    3    3    0    0 -0.38501724261E+02  0.82667493435E+00  0.45197323533E+03  0.45361092537E+03  0.00000000000E+00 0.  1.
         22    1    1    2    0    0  0.15089394527E+02 -0.17011673435E+02  0.14941907933E+02  0.27209326947E+02  0.00000000000E+00 0. -1.
<mgrwt>
<rscale>  0 0.66097043E+02</rscale>
<asrwt>0</asrwt>
<pdfrwt beam="1">  1        2 0.16147671E-02 0.94329773E+02</pdfrwt>
<pdfrwt beam="2">  1       -2 0.81695699E-01 0.94329773E+02</pdfrwt>
<totfact> 0.90105543E+03</totfact>
</mgrwt>
</event>
<event>
 6    1  0.1828142E-002  0.8991329E+02  0.7546771E-02  0.1431488E+00
         -1   -1    0    0    0  501 -0.00000000000E+00  0.00000000000E+00  0.65724089717E+02  0.65724089717E+02  0.00000000000E+00 0.  1.
          1   -1    0    0  501    0  0.00000000000E+00 -0.00000000000E+00 -0.90829213984E+02  0.90829213984E+02  0.00000000000E+00 0. -1.
         23    2    1    2    0    0  0.68760178680E+00  0.10558843961E+02  0.34284828428E+02  0.96228114409E+02  0.89288513037E+02 0.  0.
         11    1    3    3    0    0 -0.28232182175E+01 -0.13951633391E+02  0.59327531909E+02  0.61011266810E+02  0.00000000000E+00 0.  1.
        -11    1    3    3    0    0  0.35108200043E+01  0.24510477353E+02 -0.25042703481E+02  0.35216847599E+02  0.00000000000E+00 0. -1.
         22    1    1    2    0    0 -0.68760178680E+00 -0.10558843961E+02 -0.59389952696E+02  0.60325189293E+02  0.00000000000E+00 0. -1.
<mgrwt>
<rscale>  0 0.52662534E+02</rscale>
<asrwt>0</asrwt>
<pdfrwt beam="1">  1        1 0.13973725E-01 0.89913295E+02</pdfrwt>
<pdfrwt beam="2">  1       -1 0.10111398E-01 0.89913295E+02</pdfrwt>
<totfact> 0.21645697E+04</totfact>
</mgrwt>
</event>
<event>
 6    1  0.1828142E-002  0.6553540E+02  0.7546771E-02  0.1481784E+00
         -2   -1    0    0    0  501 -0.00000000000E+00  0.00000000000E+00  0.29924257337E+03  0.29924257337E+03  0.00000000000E+00 0.  1.
          2   -1    0    0  501    0  0.00000000000E+00 -0.00000000000E+00 -0.68892611007E+01  0.68892611007E+01  0.00000000000E+00 0. -1.
         23    2    1    2    0    0  0.11559994582E+02 -0.61861089875E+01  0.28174502493E+03  0.28926656900E+03  0.64210493294E+02 0.  0.
         13    1    3    3    0    0 -0.25284117260E+02  0.61027447743E+01  0.93119258643E+02  0.96683640858E+02  0.00000000000E+00 0. -1.
        -13    1    3    3    0    0  0.36844111842E+02 -0.12288853762E+02  0.18862576629E+03  0.19258292814E+03  0.00000000000E+00 0.  1.
         22    1    1    2    0    0 -0.11559994582E+02  0.61861089875E+01  0.10608287340E+02  0.16865265472E+02  0.00000000000E+00 0.  1.
<mgrwt>
<rscale>  0 0.43829539E+02</rscale>
<asrwt>0</asrwt>
<pdfrwt beam="1">  1        2 0.10598866E-02 0.65535402E+02</pdfrwt>
<pdfrwt beam="2">  1       -2 0.46037309E-01 0.65535402E+02</pdfrwt>
<totfact> 0.48837230E+04</totfact>
</mgrwt>
</event>
<event>
 6    1  0.1828142E-002  0.9347738E+02  0.7546771E-02  0.1391087E+00
          2   -1    0    0  501    0  0.00000000000E+00  0.00000000000E+00  0.12027640064E+02  0.12027640064E+02  0.00000000000E+00 0. -1.
         -2   -1    0    0    0  501 -0.00000000000E+00 -0.00000000000E+00 -0.35223063214E+03  0.35223063214E+03  0.00000000000E+00 0.  1.
         23    2    1    2    0    0 -0.16272263446E+02 -0.68896125996E+01 -0.33175333242E+03  0.34467128500E+03  0.91791981197E+02 0.  0.
         13    1    3    3    0    0  0.18214551983E+02 -0.40219024336E+02 -0.18854355905E+03  0.19364403807E+03  0.00000000000E+00 0. -1.
        -13    1    3    3    0    0 -0.34486815429E+02  0.33329411737E+02 -0.14320977337E+03  0.15102724693E+03  0.00000000000E+00 0.  1.
         22    1    1    2    0    0  0.16272263446E+02  0.68896125996E+01 -0.84496596533E+01  0.19586987203E+02  0.00000000000E+00 0. -1.
<mgrwt>
<rscale>  0 0.61637255E+02</rscale>
<asrwt>0</asrwt>
<pdfrwt beam="1">  1        2 0.18504064E-02 0.93477383E+02</pdfrwt>
<pdfrwt beam="2">  1       -2 0.54189322E-01 0.93477383E+02</pdfrwt>
<totfact> 0.17628444E+04</totfact>
</mgrwt>
</event>
<event>
 6    1  0.1828142E-002  0.9672391E+02  0.7546771E-02  0.1400972E+00
         -2   -1    0    0    0  501 -0.00000000000E+00  0.00000000000E+00  0.13177356333E+02  0.13177356333E+02  0.00000000000E+00 0.  1.
          2   -1    0    0  501    0  0.00000000000E+00 -0.00000000000E+00 -0.23367613438E+03  0.23367613438E+03  0.00000000000E+00 0. -1.
         23    2    1    2    0    0 -0.11093941987E+02  0.79125155518E+01 -0.18361562786E+03  0.20753364561E+03  0.95759238795E+02 0.  0.
         11    1    3    3    0    0  0.21206997834E+02 -0.10339877593E+01 -0.35700313665E+00  0.21235191053E+02  0.00000000000E+00 0.  1.
        -11    1    3    3    0    0 -0.32300939821E+02  0.89465033111E+01 -0.18325862472E+03  0.18629845456E+03  0.00000000000E+00 0. -1.
         22    1    1    2    0    0  0.11093941987E+02 -0.79125155518E+01 -0.36883150183E+02  0.39319845099E+02  0.00000000000E+00 0. -1.
<mgrwt>
<rscale>  0 0.59258007E+02</rscale>
<asrwt>0</asrwt>
<pdfrwt beam="1">  1        2 0.35950171E-01 0.96723913E+02</pdfrwt>
<pdfrwt beam="2">  1       -2 0.20272858E-02 0.96723913E+02</pdfrwt>
<totfact> 0.94129427E+04</totfact>
</mgrwt>
</event>
<event>
 6    1  0.1828142E-002  0.9120233E+02  0.7546771E-02  0.1427149E+00
          4   -1    0    0  501    0  0.00000000000E+00  0.00000000000E+00  0.84265764045E+02  0.84265764045E+02  0.00000000000E+00 0. -1.
         -4   -1    0    0    0  501 -0.00000000000E+00 -0.00000000000E+00 -0.36416071178E+02  0.36416071178E+02  0.00000000000E+00 0.  1.
         23    2    1    2    0    0 -0.10807514121E+02 -0.67956772321E+00  0.23724186677E+02  0.94237474338E+02  0.90557166267E+02 0.  0.
         11    1    3    3    0    0 -0.21317198008E+01 -0.45445163771E+02  0.95494706029E+01  0.46486552123E+02  0.00000000000E+00 0.  1.
        -11    1    3    3    0    0 -0.86757943198E+01  0.44765596048E+02  0.14174716074E+02  0.47750922215E+02  0.00000000000E+00 0. -1.
         22    1    1    2    0    0  0.10807514121E+02  0.67956772321E+00  0.24125506189E+02  0.26444360886E+02  0.00000000000E+00 0.  1.
<mgrwt>
<rscale>  0 0.53536517E+02</rscale>
<asrwt>0</asrwt>
<pdfrwt beam="1">  1        4 0.12963964E-01 0.91202327E+02</pdfrwt>
<pdfrwt beam="2">  1       -4 0.56024725E-02 0.91202327E+02</pdfrwt>
<totfact> 0.13966222E+04</totfact>
</mgrwt>
</event>
<event>
 6    1  0.1828142E-002  0.9576066E+02  0.7546771E-02  0.1367072E+00
          2   -1    0    0  501    0  0.00000000000E+00  0.00000000000E+00  0.18229418037E+03  0.18229418037E+03  0.00000000000E+00 0. -1.
         -2   -1    0    0    0  501 -0.00000000000E+00 -0.00000000000E+00 -0.35558110072E+02  0.35558110072E+02  0.00000000000E+00 0.  1.
         23    2    1    2    0    0 -0.24082842310E+02  0.34690779520E+01  0.32609242970E+02  0.10116060046E+03  0.92617960257E+02 0.  0.
         13    1    3    3    0    0 -0.28053453872E+02 -0.40851792275E+02  0.26641102723E+02  0.56263785515E+02  0.00000000000E+00 0.  1.
        -13    1    3    3    0    0  0.39706115622E+01  0.44320870227E+02  0.59681402468E+01  0.44896814941E+02  0.00000000000E+00 0. -1.
         22    1    1    2    0    0  0.24082842310E+02 -0.34690779520E+01  0.11412682733E+03  0.11669168998E+03  0.00000000000E+00 0. -1.
<mgrwt>
<rscale>  0 0.67987990E+02</rscale>
<asrwt>0</asrwt>
<pdfrwt beam="1">  1        2 0.28045258E-01 0.95760662E+02</pdfrwt>
<pdfrwt beam="2">  1       -2 0.54704786E-02 0.95760662E+02</pdfrwt>
<totfact> 0.28657444E+04</totfact>
</mgrwt>
</event>
<event>
 6    1  0.1828142E-002  0.9666671E+02  0.7546771E-02  0.1349944E+00
          2   -1    0    0  501    0  0.00000000000E+00  0.00000000000E+00  0.12926255985E+03  0.12926255985E+03  0.00000000000E+00 0. -1.
         -2   -1    0    0    0  501 -0.00000000000E+00 -0.00000000000E+00 -0.34460418501E+02  0.34460418501E+02  0.00000000000E+00 0.  1.
         23    2    1    2    0    0 -0.18796002477E+02  0.25358300766E+02  0.89458604918E+02  0.13170912965E+03  0.91368045362E+02 0.  0.
         11    1    3    3    0    0 -0.52323721030E+02  0.28989326960E+02  0.72406374158E+02  0.93919305144E+02  0.00000000000E+00 0. -1.
        -11    1    3    3    0    0  0.33527718552E+02 -0.36310261945E+01  0.17052230760E+02  0.37789824509E+02  0.00000000000E+00 0.  1.
         22    1    1    2    0    0  0.18796002477E+02 -0.25358300766E+02  0.53435364314E+01  0.32013848698E+02  0.00000000000E+00 0.  1.
<mgrwt>
<rscale>  0 0.73073225E+02</rscale>
<asrwt>0</asrwt>
<pdfrwt beam="1">  1        2 0.19886547E-01 0.96666710E+02</pdfrwt>
<pdfrwt beam="2">  1       -2 0.53016029E-02 0.96666710E+02</pdfrwt>
<totfact> 0.43857690E+04</totfact>
</mgrwt>
</event>
<event>
 6    1  0.1828142E-002  0.9113799E+02  0.7546771E-02  0.1408349E+00
          2   -1    0    0  501    0  0.00000000000E+00  0.00000000000E+00  0.19290860814E+03  0.19290860814E+03  0.00000000000E+00 0.  1.
         -2   -1    0    0    0  501 -0.00000000000E+00 -0.00000000000E+00 -0.15161370823E+02  0.15161370823E+02  0.00000000000E+00 0. -1.
         23    2    1    2    0    0  0.87611732594E+01 -0.11559395003E+02  0.13461970450E+03  0.16256874979E+03  0.89976418009E+02 0.  0.
         11    1    3    3    0    0  0.28933328632E+02 -0.19045445819E+02  0.13663569767E+03  0.14095808026E+03  0.00000000000E+00 0.  1.
        -11    1    3    3    0    0 -0.20172155373E+02  0.74860508163E+01 -0.20159931656E+01  0.21610669533E+02  0.00000000000E+00 0. -1.
         22    1    1    2    0    0 -0.87611732594E+01  0.11559395003E+02  0.43127532815E+02  0.45501229175E+02  0.00000000000E+00 0. -1.
<mgrwt>
<rscale>  0 0.57563815E+02</rscale>
<asrwt>0</asrwt>
<pdfrwt beam="1">  1        2 0.29678246E-01 0.91137992E+02</pdfrwt>
<pdfrwt beam="2">  1       -2 0.23325187E-02 0.91137992E+02</pdfrwt>
<totfact> 0.93473012E+04</totfact>
</mgrwt>
</event>
<event>
 6    1  0.1828142E-002  0.9448095E+02  0.7546771E-02  0.1385405E+00
         -4   -1    0    0    0  501 -0.00000000000E+00  0.00000000000E+00  0.37160048461E+02  0.37160048461E+02  0.00000000000E+00 0.  1.
          4   -1    0    0  501    0  0.00000000000E+00 -0.00000000000E+00 -0.94137855323E+02  0.94137855323E+02  0.00000000000E+00 0. -1.
         23    2    1    2    0    0  0.18593510537E+02  0.24499824050E+01 -0.60533718131E+02  0.11220954207E+03  0.92600913892E+02 0.  0.
         11    1    3    3    0    0  0.48847558665E+02 -0.94206829237E+01 -0.62224182739E+02  0.79666066627E+02  0.00000000000E+00 0. -1.
        -11    1    3    3    0    0 -0.30254048128E+02  0.11870665329E+02  0.16904646084E+01  0.32543475446E+02  0.00000000000E+00 0.  1.
         22    1    1    2    0    0 -0.18593510537E+02 -0.24499824050E+01  0.35559112690E+01  0.19088361711E+02  0.00000000000E+00 0. -1.
<mgrwt>
<rscale>  0 0.63064214E+02</rscale>
<asrwt>0</asrwt>
<pdfrwt beam="1">  1        4 0.14482747E-01 0.94480952E+02</pdfrwt>
<pdfrwt beam="2">  1       -4 0.57169306E-02 0.94480952E+02</pdfrwt>
<totfact> 0.11296491E+04</totfact>
</mgrwt>
</event>
<event>
 6    1  0.1828142E-002  0.9323732E+02  0.7546771E-02  0.1424405E+00
         -2   -1    0    0    0  501 -0.00000000000E+00  0.00000000000E+00  0.18905707784E+03  0.18905707784E+03  0.00000000000E+00 0.  1.
          2   -1    0    0  501    0  0.00000000000E+00 -0.00000000000E+00 -0.16074077274E+02  0.16074077274E+02  0.00000000000E+00 0. -1.
         23    2    1    2    0    0  0.64540895336E+01  0.83688579126E+01  0.17041736862E+03  0.19425570010E+03  0.92636409902E+02 0.  0.
         13    1    3    3    0    0 -0.43004617447E+01 -0.13716758997E+02  0.16904221079E+03  0.16965232824E+03  0.00000000000E+00 0.  1.
        -13    1    3    3    0    0  0.10754551278E+02  0.22085616910E+02  0.13751578231E+01  0.24603371853E+02  0.00000000000E+00 0. -1.
         22    1    1    2    0    0 -0.64540895336E+01 -0.83688579126E+01  0.25656319463E+01  0.10875455014E+02  0.00000000000E+00 0. -1.
<mgrwt>
<rscale>  0 0.54099793E+02</rscale>
<asrwt>0</asrwt>
<pdfrwt beam="1">  1        2 0.24729351E-02 0.93237318E+02</pdfrwt>
<pdfrwt beam="2">  1       -2 0.29085703E-01 0.93237318E+02</pdfrwt>
<totfact> 0.38376729E+04</totfact>
</mgrwt>
</event>
<event>
 6    1  0.1828142E-002  0.1624559E+03  0.7546771E-02  0.1195078E+00
         -2   -1    0    0    0  501 -0.00000000000E+00  0.00000000000E+00  0.18880150370E+02  0.18880150370E+02  0.00000000000E+00 0. -1.
          2   -1    0    0  501    0  0.00000000000E+00 -0.00000000000E+00 -0.11907200606E+04  0.11907200606E+04  0.00000000000E+00 0.  1.
         23    2    1    2    0    0  0.44291724611E+01 -0.13273833832E+03 -0.74801820377E+03  0.76545617702E+03  0.93556623164E+02 0.  0.
         11    1    3    3    0    0 -0.31078222826E+02 -0.73952292891E+02 -0.55105668845E+03  0.55686467966E+03  0.00000000000E+00 0.  1.
        -11    1    3    3    0    0  0.35507395287E+02 -0.58786045425E+02 -0.19696151531E+03  0.20859149736E+03  0.00000000000E+00 0. -1.
         22    1    1    2    0    0 -0.44291724611E+01  0.13273833832E+03 -0.42382170644E+03  0.44414403393E+03  0.00000000000E+00 0.  1.
<mgrwt>
<rscale>  0 0.15447605E+03</rscale>
<asrwt>0</asrwt>
<pdfrwt beam="1">  1        2 0.18318774E+00 0.16245592E+03</pdfrwt>
<pdfrwt beam="2">  1       -2 0.29046380E-02 0.16245592E+03</pdfrwt>
<totfact> 0.88001362E+03</totfact>
</mgrwt>
</event>
<event>
 6    1  0.1828142E-002  0.8951757E+02  0.7546771E-02  0.1430121E+00
          4   -1    0    0  501    0  0.00000000000E+00  0.00000000000E+00  0.68187465728E+02  0.68187465728E+02  0.00000000000E+00 0. -1.
         -4   -1    0    0    0  501 -0.00000000000E+00 -0.00000000000E+00 -0.50480116080E+02  0.50480116080E+02  0.00000000000E+00 0.  1.
         23    2    1    2    0    0 -0.49523364061E+01  0.97621256042E+01 -0.88389951370E+01  0.89952896478E+02  0.88845770960E+02 0.  0.
         11    1    3    3    0    0  0.39361869961E+02 -0.10163155336E+01 -0.18229239156E+02  0.43390031854E+02  0.00000000000E+00 0. -1.
        -11    1    3    3    0    0 -0.44314206367E+02  0.10778441138E+02  0.93902440186E+01  0.46562864624E+02  0.00000000000E+00 0.  1.
         22    1    1    2    0    0  0.49523364061E+01 -0.97621256042E+01  0.26546344785E+02  0.28714685331E+02  0.00000000000E+00 0. -1.
<mgrwt>
<rscale>  0 0.52935806E+02</rscale>
<asrwt>0</asrwt>
<pdfrwt beam="1">  1        4 0.10490379E-01 0.89517572E+02</pdfrwt>
<pdfrwt beam="2">  1       -4 0.77661717E-02 0.89517572E+02</pdfrwt>
<totfact> 0.11700263E+04</totfact>
</mgrwt>
</event>
<event>
 6    1  0.1828142E-002  0.9218104E+02  0.7546771E-02  0.1384428E+00
          2   -1    0    0  501    0  0.00000000000E+00  0.00000000000E+00  0.57801271440E+02  0.57801271440E+02  0.00000000000E+00 0. -1.
         -2   -1    0    0    0  501 -0.00000000000E+00 -0.00000000000E+00 -0.98865882299E+02  0.98865882299E+02  0.00000000000E+00 0.  1.
         23    2    1    2    0    0  0.17076588621E+02 -0.11369243585E+02 -0.73766569428E+02  0.11806290951E+03  0.89869206389E+02 0.  0.
         13    1    3    3    0    0 -0.28159528891E+02 -0.13081133102E+02  0.53870033210E+00  0.31054231735E+02  0.00000000000E+00 0. -1.
        -13    1    3    3    0    0  0.45236117512E+02  0.17118895164E+01 -0.74305269760E+02  0.87008677770E+02  0.00000000000E+00 0.  1.
         22    1    1    2    0    0 -0.17076588621E+02  0.11369243585E+02  0.32701958568E+02  0.38604244234E+02  0.00000000000E+00 0. -1.
<mgrwt>
<rscale>  0 0.63313984E+02</rscale>
<asrwt>0</asrwt>
<pdfrwt beam="1">  1        2 0.88925034E-02 0.92181038E+02</pdfrwt>
<pdfrwt beam="2">  1       -2 0.15210136E-01 0.92181038E+02</pdfrwt>
<totfact> 0.21957127E+04</totfact>
</mgrwt>
</event>
